<?xml version="1.0"?>
<VTKFile type="UnstructuredGrid"  version="0.1"  >
<UnstructuredGrid>
<Piece  NumberOfPoints="1681" NumberOfCells="3200">
<Points>
<DataArray  type="Float64"  NumberOfComponents="3"  format="ascii">0 0 0  0.025 0 0  0.05 0 0  0.075 0 0  0.1 0 0  0.125 0 0  0.15 0 0  0.175 0 0  0.2 0 0  0.225 0 0  0.25 0 0  0.275 0 0  0.3 0 0  0.325 0 0  0.35 0 0  0.375 0 0  0.4 0 0  0.425 0 0  0.45 0 0  0.475 0 0  0.5 0 0  0.525 0 0  0.55 0 0  0.575 0 0  0.6 0 0  0.625 0 0  0.65 0 0  0.675 0 0  0.7 0 0  0.725 0 0  0.75 0 0  0.775 0 0  0.8 0 0  0.825 0 0  0.85 0 0  0.875 0 0  0.9 0 0  0.925 0 0  0.95 0 0  0.975 0 0  1 0 0  0 0.025 0  0.025 0.025 0  0.05 0.025 0  0.075 0.025 0  0.1 0.025 0  0.125 0.025 0  0.15 0.025 0  0.175 0.025 0  0.2 0.025 0  0.225 0.025 0  0.25 0.025 0  0.275 0.025 0  0.3 0.025 0  0.325 0.025 0  0.35 0.025 0  0.375 0.025 0  0.4 0.025 0  0.425 0.025 0  0.45 0.025 0  0.475 0.025 0  0.5 0.025 0  0.525 0.025 0  0.55 0.025 0  0.575 0.025 0  0.6 0.025 0  0.625 0.025 0  0.65 0.025 0  0.675 0.025 0  0.7 0.025 0  0.725 0.025 0  0.75 0.025 0  0.775 0.025 0  0.8 0.025 0  0.825 0.025 0  0.85 0.025 0  0.875 0.025 0  0.9 0.025 0  0.925 0.025 0  0.95 0.025 0  0.975 0.025 0  1 0.025 0  0 0.05 0  0.025 0.05 0  0.05 0.05 0  0.075 0.05 0  0.1 0.05 0  0.125 0.05 0  0.15 0.05 0  0.175 0.05 0  0.2 0.05 0  0.225 0.05 0  0.25 0.05 0  0.275 0.05 0  0.3 0.05 0  0.325 0.05 0  0.35 0.05 0  0.375 0.05 0  0.4 0.05 0  0.425 0.05 0  0.45 0.05 0  0.475 0.05 0  0.5 0.05 0  0.525 0.05 0  0.55 0.05 0  0.575 0.05 0  0.6 0.05 0  0.625 0.05 0  0.65 0.05 0  0.675 0.05 0  0.7 0.05 0  0.725 0.05 0  0.75 0.05 0  0.775 0.05 0  0.8 0.05 0  0.825 0.05 0  0.85 0.05 0  0.875 0.05 0  0.9 0.05 0  0.925 0.05 0  0.95 0.05 0  0.975 0.05 0  1 0.05 0  0 0.075 0  0.025 0.075 0  0.05 0.075 0  0.075 0.075 0  0.1 0.075 0  0.125 0.075 0  0.15 0.075 0  0.175 0.075 0  0.2 0.075 0  0.225 0.075 0  0.25 0.075 0  0.275 0.075 0  0.3 0.075 0  0.325 0.075 0  0.35 0.075 0  0.375 0.075 0  0.4 0.075 0  0.425 0.075 0  0.45 0.075 0  0.475 0.075 0  0.5 0.075 0  0.525 0.075 0  0.55 0.075 0  0.575 0.075 0  0.6 0.075 0  0.625 0.075 0  0.65 0.075 0  0.675 0.075 0  0.7 0.075 0  0.725 0.075 0  0.75 0.075 0  0.775 0.075 0  0.8 0.075 0  0.825 0.075 0  0.85 0.075 0  0.875 0.075 0  0.9 0.075 0  0.925 0.075 0  0.95 0.075 0  0.975 0.075 0  1 0.075 0  0 0.1 0  0.025 0.1 0  0.05 0.1 0  0.075 0.1 0  0.1 0.1 0  0.125 0.1 0  0.15 0.1 0  0.175 0.1 0  0.2 0.1 0  0.225 0.1 0  0.25 0.1 0  0.275 0.1 0  0.3 0.1 0  0.325 0.1 0  0.35 0.1 0  0.375 0.1 0  0.4 0.1 0  0.425 0.1 0  0.45 0.1 0  0.475 0.1 0  0.5 0.1 0  0.525 0.1 0  0.55 0.1 0  0.575 0.1 0  0.6 0.1 0  0.625 0.1 0  0.65 0.1 0  0.675 0.1 0  0.7 0.1 0  0.725 0.1 0  0.75 0.1 0  0.775 0.1 0  0.8 0.1 0  0.825 0.1 0  0.85 0.1 0  0.875 0.1 0  0.9 0.1 0  0.925 0.1 0  0.95 0.1 0  0.975 0.1 0  1 0.1 0  0 0.125 0  0.025 0.125 0  0.05 0.125 0  0.075 0.125 0  0.1 0.125 0  0.125 0.125 0  0.15 0.125 0  0.175 0.125 0  0.2 0.125 0  0.225 0.125 0  0.25 0.125 0  0.275 0.125 0  0.3 0.125 0  0.325 0.125 0  0.35 0.125 0  0.375 0.125 0  0.4 0.125 0  0.425 0.125 0  0.45 0.125 0  0.475 0.125 0  0.5 0.125 0  0.525 0.125 0  0.55 0.125 0  0.575 0.125 0  0.6 0.125 0  0.625 0.125 0  0.65 0.125 0  0.675 0.125 0  0.7 0.125 0  0.725 0.125 0  0.75 0.125 0  0.775 0.125 0  0.8 0.125 0  0.825 0.125 0  0.85 0.125 0  0.875 0.125 0  0.9 0.125 0  0.925 0.125 0  0.95 0.125 0  0.975 0.125 0  1 0.125 0  0 0.15 0  0.025 0.15 0  0.05 0.15 0  0.075 0.15 0  0.1 0.15 0  0.125 0.15 0  0.15 0.15 0  0.175 0.15 0  0.2 0.15 0  0.225 0.15 0  0.25 0.15 0  0.275 0.15 0  0.3 0.15 0  0.325 0.15 0  0.35 0.15 0  0.375 0.15 0  0.4 0.15 0  0.425 0.15 0  0.45 0.15 0  0.475 0.15 0  0.5 0.15 0  0.525 0.15 0  0.55 0.15 0  0.575 0.15 0  0.6 0.15 0  0.625 0.15 0  0.65 0.15 0  0.675 0.15 0  0.7 0.15 0  0.725 0.15 0  0.75 0.15 0  0.775 0.15 0  0.8 0.15 0  0.825 0.15 0  0.85 0.15 0  0.875 0.15 0  0.9 0.15 0  0.925 0.15 0  0.95 0.15 0  0.975 0.15 0  1 0.15 0  0 0.175 0  0.025 0.175 0  0.05 0.175 0  0.075 0.175 0  0.1 0.175 0  0.125 0.175 0  0.15 0.175 0  0.175 0.175 0  0.2 0.175 0  0.225 0.175 0  0.25 0.175 0  0.275 0.175 0  0.3 0.175 0  0.325 0.175 0  0.35 0.175 0  0.375 0.175 0  0.4 0.175 0  0.425 0.175 0  0.45 0.175 0  0.475 0.175 0  0.5 0.175 0  0.525 0.175 0  0.55 0.175 0  0.575 0.175 0  0.6 0.175 0  0.625 0.175 0  0.65 0.175 0  0.675 0.175 0  0.7 0.175 0  0.725 0.175 0  0.75 0.175 0  0.775 0.175 0  0.8 0.175 0  0.825 0.175 0  0.85 0.175 0  0.875 0.175 0  0.9 0.175 0  0.925 0.175 0  0.95 0.175 0  0.975 0.175 0  1 0.175 0  0 0.2 0  0.025 0.2 0  0.05 0.2 0  0.075 0.2 0  0.1 0.2 0  0.125 0.2 0  0.15 0.2 0  0.175 0.2 0  0.2 0.2 0  0.225 0.2 0  0.25 0.2 0  0.275 0.2 0  0.3 0.2 0  0.325 0.2 0  0.35 0.2 0  0.375 0.2 0  0.4 0.2 0  0.425 0.2 0  0.45 0.2 0  0.475 0.2 0  0.5 0.2 0  0.525 0.2 0  0.55 0.2 0  0.575 0.2 0  0.6 0.2 0  0.625 0.2 0  0.65 0.2 0  0.675 0.2 0  0.7 0.2 0  0.725 0.2 0  0.75 0.2 0  0.775 0.2 0  0.8 0.2 0  0.825 0.2 0  0.85 0.2 0  0.875 0.2 0  0.9 0.2 0  0.925 0.2 0  0.95 0.2 0  0.975 0.2 0  1 0.2 0  0 0.225 0  0.025 0.225 0  0.05 0.225 0  0.075 0.225 0  0.1 0.225 0  0.125 0.225 0  0.15 0.225 0  0.175 0.225 0  0.2 0.225 0  0.225 0.225 0  0.25 0.225 0  0.275 0.225 0  0.3 0.225 0  0.325 0.225 0  0.35 0.225 0  0.375 0.225 0  0.4 0.225 0  0.425 0.225 0  0.45 0.225 0  0.475 0.225 0  0.5 0.225 0  0.525 0.225 0  0.55 0.225 0  0.575 0.225 0  0.6 0.225 0  0.625 0.225 0  0.65 0.225 0  0.675 0.225 0  0.7 0.225 0  0.725 0.225 0  0.75 0.225 0  0.775 0.225 0  0.8 0.225 0  0.825 0.225 0  0.85 0.225 0  0.875 0.225 0  0.9 0.225 0  0.925 0.225 0  0.95 0.225 0  0.975 0.225 0  1 0.225 0  0 0.25 0  0.025 0.25 0  0.05 0.25 0  0.075 0.25 0  0.1 0.25 0  0.125 0.25 0  0.15 0.25 0  0.175 0.25 0  0.2 0.25 0  0.225 0.25 0  0.25 0.25 0  0.275 0.25 0  0.3 0.25 0  0.325 0.25 0  0.35 0.25 0  0.375 0.25 0  0.4 0.25 0  0.425 0.25 0  0.45 0.25 0  0.475 0.25 0  0.5 0.25 0  0.525 0.25 0  0.55 0.25 0  0.575 0.25 0  0.6 0.25 0  0.625 0.25 0  0.65 0.25 0  0.675 0.25 0  0.7 0.25 0  0.725 0.25 0  0.75 0.25 0  0.775 0.25 0  0.8 0.25 0  0.825 0.25 0  0.85 0.25 0  0.875 0.25 0  0.9 0.25 0  0.925 0.25 0  0.95 0.25 0  0.975 0.25 0  1 0.25 0  0 0.275 0  0.025 0.275 0  0.05 0.275 0  0.075 0.275 0  0.1 0.275 0  0.125 0.275 0  0.15 0.275 0  0.175 0.275 0  0.2 0.275 0  0.225 0.275 0  0.25 0.275 0  0.275 0.275 0  0.3 0.275 0  0.325 0.275 0  0.35 0.275 0  0.375 0.275 0  0.4 0.275 0  0.425 0.275 0  0.45 0.275 0  0.475 0.275 0  0.5 0.275 0  0.525 0.275 0  0.55 0.275 0  0.575 0.275 0  0.6 0.275 0  0.625 0.275 0  0.65 0.275 0  0.675 0.275 0  0.7 0.275 0  0.725 0.275 0  0.75 0.275 0  0.775 0.275 0  0.8 0.275 0  0.825 0.275 0  0.85 0.275 0  0.875 0.275 0  0.9 0.275 0  0.925 0.275 0  0.95 0.275 0  0.975 0.275 0  1 0.275 0  0 0.3 0  0.025 0.3 0  0.05 0.3 0  0.075 0.3 0  0.1 0.3 0  0.125 0.3 0  0.15 0.3 0  0.175 0.3 0  0.2 0.3 0  0.225 0.3 0  0.25 0.3 0  0.275 0.3 0  0.3 0.3 0  0.325 0.3 0  0.35 0.3 0  0.375 0.3 0  0.4 0.3 0  0.425 0.3 0  0.45 0.3 0  0.475 0.3 0  0.5 0.3 0  0.525 0.3 0  0.55 0.3 0  0.575 0.3 0  0.6 0.3 0  0.625 0.3 0  0.65 0.3 0  0.675 0.3 0  0.7 0.3 0  0.725 0.3 0  0.75 0.3 0  0.775 0.3 0  0.8 0.3 0  0.825 0.3 0  0.85 0.3 0  0.875 0.3 0  0.9 0.3 0  0.925 0.3 0  0.95 0.3 0  0.975 0.3 0  1 0.3 0  0 0.325 0  0.025 0.325 0  0.05 0.325 0  0.075 0.325 0  0.1 0.325 0  0.125 0.325 0  0.15 0.325 0  0.175 0.325 0  0.2 0.325 0  0.225 0.325 0  0.25 0.325 0  0.275 0.325 0  0.3 0.325 0  0.325 0.325 0  0.35 0.325 0  0.375 0.325 0  0.4 0.325 0  0.425 0.325 0  0.45 0.325 0  0.475 0.325 0  0.5 0.325 0  0.525 0.325 0  0.55 0.325 0  0.575 0.325 0  0.6 0.325 0  0.625 0.325 0  0.65 0.325 0  0.675 0.325 0  0.7 0.325 0  0.725 0.325 0  0.75 0.325 0  0.775 0.325 0  0.8 0.325 0  0.825 0.325 0  0.85 0.325 0  0.875 0.325 0  0.9 0.325 0  0.925 0.325 0  0.95 0.325 0  0.975 0.325 0  1 0.325 0  0 0.35 0  0.025 0.35 0  0.05 0.35 0  0.075 0.35 0  0.1 0.35 0  0.125 0.35 0  0.15 0.35 0  0.175 0.35 0  0.2 0.35 0  0.225 0.35 0  0.25 0.35 0  0.275 0.35 0  0.3 0.35 0  0.325 0.35 0  0.35 0.35 0  0.375 0.35 0  0.4 0.35 0  0.425 0.35 0  0.45 0.35 0  0.475 0.35 0  0.5 0.35 0  0.525 0.35 0  0.55 0.35 0  0.575 0.35 0  0.6 0.35 0  0.625 0.35 0  0.65 0.35 0  0.675 0.35 0  0.7 0.35 0  0.725 0.35 0  0.75 0.35 0  0.775 0.35 0  0.8 0.35 0  0.825 0.35 0  0.85 0.35 0  0.875 0.35 0  0.9 0.35 0  0.925 0.35 0  0.95 0.35 0  0.975 0.35 0  1 0.35 0  0 0.375 0  0.025 0.375 0  0.05 0.375 0  0.075 0.375 0  0.1 0.375 0  0.125 0.375 0  0.15 0.375 0  0.175 0.375 0  0.2 0.375 0  0.225 0.375 0  0.25 0.375 0  0.275 0.375 0  0.3 0.375 0  0.325 0.375 0  0.35 0.375 0  0.375 0.375 0  0.4 0.375 0  0.425 0.375 0  0.45 0.375 0  0.475 0.375 0  0.5 0.375 0  0.525 0.375 0  0.55 0.375 0  0.575 0.375 0  0.6 0.375 0  0.625 0.375 0  0.65 0.375 0  0.675 0.375 0  0.7 0.375 0  0.725 0.375 0  0.75 0.375 0  0.775 0.375 0  0.8 0.375 0  0.825 0.375 0  0.85 0.375 0  0.875 0.375 0  0.9 0.375 0  0.925 0.375 0  0.95 0.375 0  0.975 0.375 0  1 0.375 0  0 0.4 0  0.025 0.4 0  0.05 0.4 0  0.075 0.4 0  0.1 0.4 0  0.125 0.4 0  0.15 0.4 0  0.175 0.4 0  0.2 0.4 0  0.225 0.4 0  0.25 0.4 0  0.275 0.4 0  0.3 0.4 0  0.325 0.4 0  0.35 0.4 0  0.375 0.4 0  0.4 0.4 0  0.425 0.4 0  0.45 0.4 0  0.475 0.4 0  0.5 0.4 0  0.525 0.4 0  0.55 0.4 0  0.575 0.4 0  0.6 0.4 0  0.625 0.4 0  0.65 0.4 0  0.675 0.4 0  0.7 0.4 0  0.725 0.4 0  0.75 0.4 0  0.775 0.4 0  0.8 0.4 0  0.825 0.4 0  0.85 0.4 0  0.875 0.4 0  0.9 0.4 0  0.925 0.4 0  0.95 0.4 0  0.975 0.4 0  1 0.4 0  0 0.425 0  0.025 0.425 0  0.05 0.425 0  0.075 0.425 0  0.1 0.425 0  0.125 0.425 0  0.15 0.425 0  0.175 0.425 0  0.2 0.425 0  0.225 0.425 0  0.25 0.425 0  0.275 0.425 0  0.3 0.425 0  0.325 0.425 0  0.35 0.425 0  0.375 0.425 0  0.4 0.425 0  0.425 0.425 0  0.45 0.425 0  0.475 0.425 0  0.5 0.425 0  0.525 0.425 0  0.55 0.425 0  0.575 0.425 0  0.6 0.425 0  0.625 0.425 0  0.65 0.425 0  0.675 0.425 0  0.7 0.425 0  0.725 0.425 0  0.75 0.425 0  0.775 0.425 0  0.8 0.425 0  0.825 0.425 0  0.85 0.425 0  0.875 0.425 0  0.9 0.425 0  0.925 0.425 0  0.95 0.425 0  0.975 0.425 0  1 0.425 0  0 0.45 0  0.02
[...]
<PointData  Scalars="ControlVisualisation"> 
<DataArray  type="Float64"  Name="ControlVisualisation"  format="ascii">1.9999936171556004e-01  1.9994811370166740e-01  1.9994919801852820e-01  1.9995170680473603e-01  1.9995561961368399e-01  1.9996086901331372e-01  1.9996739525344748e-01  1.9997513663229879e-01  1.9998402761283424e-01  1.9999400062486250e-01  2.0000498945951672e-01  2.0001693231337186e-01  2.0002977437172234e-01  2.0004346978007587e-01  2.0005798287010715e-01  2.0007328850869216e-01  2.0008937140111582e-01  2.0010622411333542e-01  2.0012384346782214e-01  2.0014222480041413e-01  2.0016135332709906e-01  2.0018119154353983e-01  2.0020166115430468e-01  2.0022261750763831e-01  2.0024381394524451e-01  2.0026485302129501e-01  2.0028512157701572e-01  2.0030370800501490e-01  2.0031930425494035e-01  2.0033010518763436e-01  2.0033373837890384e-01  2.0032729191443319e-01  2.0030756882801445e-01  2.0027173783002514e-01  2.0021858423419109e-01  2.0015040459425945e-01  2.0007492322102036e-01  2.0000604846058453e-01  1.9996107766900517e-01  1.9994768121402060e-01  2.0005075124451507e-01  1.9994811359832090e-01  1.9979721643211024e-01  1.9980797372814416e-01  1.9982973094330858e-01  1.9986350861603966e-01  1.9990899690160430e-01  1.9996566836417537e-01  2.0003297193798286e-01  2.0011032204119195e-01  2.0019711614789990e-01  2.0029276142189653e-01  2.0039670020803405e-01  2.0050843241291225e-01  2.0062753281782422e-01  2.0075366220400384e-01  2.0088657118562989e-01  2.0102609542494973e-01  2.0117214043244805e-01  2.0132465333399369e-01  2.0148357773202355e-01  2.0164878599001787e-01  2.0181998080952074e-01  2.0199655475220621e-01  2.0217739240070476e-01  2.0236059547182991e-01  2.0254310742615961e-01  2.0272021349004582e-01  2.0288490002938211e-01  2.0302708455380414e-01  2.0313279471658874e-01  2.0318351099986537e-01  2.0315613828337728e-01  2.0302448107244314e-01  2.0276349634746627e-01  2.0235811576923107e-01  2.0181708932155257e-01  2.0118943591851743e-01  2.0057454205331990e-01  2.0010057536299475e-01  1.9984506675524030e-01  1.9994763414803771e-01  1.9994920207852132e-01  1.9980802908769293e-01  1.9983322164411974e-01  1.9987281933516690e-01  1.9993186077523575e-01  2.0001105168845457e-01  2.0010971264753208e-01  2.0022689843696997e-01  2.0036156699060342e-01  2.0051264917739084e-01  2.0067909414976803e-01  2.0085991377898149e-01  2.0105422169384643e-01  2.0126126389739621e-01  2.0148043908058244e-01  2.0171130676618987e-01  2.0195358124041143e-01  2.0220710854242616e-01  2.0247182253236937e-01  2.0274767411952557e-01  2.0303452493891730e-01  2.0333199293117968e-01  2.0363923224675479e-01  2.0395462364000774e-01  2.0427534443098447e-01  2.0459678055036010e-01  2.0491174056835251e-01  2.0520944048099524e-01  2.0547426334788296e-01  2.0568438817998511e-01  2.0581057114554857e-01  2.0581572955541158e-01  2.0565655709235101e-01  2.0528919710957050e-01  2.0468200659333585e-01  2.0383646652341669e-01  2.0281682023934455e-01  2.0176582191731429e-01  2.0085249735812344e-01  2.0012635130052325e-01  1.9996148939877423e-01  1.9995174533433496e-01  1.9983012581170045e-01  1.9987340290234853e-01  1.9992157257425980e-01  1.9998800504002001e-01  2.0007610145668614e-01  2.0018566604477622e-01  2.0031572641614695e-01  2.0046511650196336e-01  2.0063262772297785e-01  2.0081707378431332e-01  2.0101734461485138e-01  2.0123245116523497e-01  2.0146156103295959e-01  2.0170402302234192e-01  2.0195937896412636e-01  2.0222736103739766e-01  2.0250787224009376e-01  2.0280094651831584e-01  2.0310668325256370e-01  2.0342514816687565e-01  2.0375622910112659e-01  2.0409943029803596e-01  2.0445358282985376e-01  2.0481644175248520e-01  2.0518413349609835e-01  2.0555041246691302e-01  2.0590568968039796e-01  2.0623582034588289e-01  2.0652070481323506e-01  2.0673290538755240e-01  2.0683678641509431e-01  2.0678916212165674e-01  2.0654338181671844e-01  2.0605945557341268e-01  2.0532273076797292e-01  2.0437401542055222e-01  2.0331117377757621e-01  2.0219938737693757e-01  2.0080717722792951e-01  2.0001754804881711e-01  1.9995578101141021e-01  1.9986502547279339e-01  1.9993439247829656e-01  1.9999014173590526e-01  2.0005907666952583e-01  2.0014893422179086e-01  2.0026036411165346e-01  2.0039250045169513e-01  2.0054415297638112e-01  2.0071406537699385e-01  2.0090100675528905e-01  2.0110383313893537e-01  2.0132153637241526e-01  2.0155328323345936e-01  2.0179844351226675e-01  2.0205660616646978e-01  2.0232758254822941e-01  2.0261139533909567e-01  2.0290825101336110e-01  2.0321849229586630e-01  2.0354252509840062e-01  2.0388071169620647e-01  2.0423321832836322e-01  2.0459980091104921e-01  2.0497950726025735e-01  2.0537026869957350e-01  2.0576834974009148e-01  2.0616762516529716e-01  2.0655866665433201e-01  2.0692766015573902e-01  2.0725526430638230e-01  2.0751570929740004e-01  2.0767673629209957e-01  2.0770170675982458e-01  2.0755512385652292e-01  2.0721536736788740e-01  2.0668802431723443e-01  2.0597302366052878e-01  2.0483787360291297e-01  2.0224420504808477e-01  2.0014718404757395e-01  1.9996133235553309e-01  1.9991320617549535e-01  2.0001826004223361e-01  2.0008339525724431e-01  2.0015415539830728e-01  2.0024433111733983e-01  2.0035572414721028e-01  2.0048762884653376e-01  2.0063884539388280e-01  2.0080808243493384e-01  2.0099407889838686e-01  2.0119567312600900e-01  2.0141185627797550e-01  2.0164181495369890e-01  2.0188496306752590e-01  2.0214096301185838e-01  2.0240973612051047e-01  2.0269146238897123e-01  2.0298656900026413e-01  2.0329570646781439e-01  2.0361971012889726e-01  2.0395954330419236e-01  2.0431621670874117e-01  2.0469067675538888e-01  2.0508365350377430e-01  2.0549545780443237e-01  2.0592571801181206e-01  2.0637305213380000e-01  2.0683468676045733e-01  2.0730606861549117e-01  2.0778058555423634e-01  2.0824965278633809e-01  2.0870364241710082e-01  2.0913463103450938e-01  2.0954168442566570e-01  2.0994153452727440e-01  2.1035929036481557e-01  2.1072133228858819e-01  2.1005458724173637e-01  2.0513698529956542e-01  2.0037911847135312e-01  1.9996846334457433e-01  1.9997521822663977e-01  2.0012620116337176e-01  2.0020320419999621e-01  2.0027595263212924e-01  2.0036607262987530e-01  2.0047685895202433e-01  2.0060781496214483e-01  2.0075773091800292e-01  2.0092527781118363e-01  2.0110916436401299e-01  2.0130821467830984e-01  2.0152142605900158e-01  2.0174801501037246e-01  2.0198745291181672e-01  2.0223949232967955e-01  2.0250418518001059e-01  2.0278189419569359e-01  2.0307329919976719e-01  2.0337939965060631e-01  2.0370151490249072e-01  2.0404128378865735e-01  2.0440066574944668e-01  2.0478194724526891e-01  2.0518776039936262e-01  2.0562112711654248e-01  2.0608555385911650e-01  2.0658522445073099e-01  2.0712537941248274e-01  2.0771304573302612e-01  2.0835842486830269e-01  2.0907751297227825e-01  2.0989704828726521e-01  2.1086397907147009e-01  2.1206327680548537e-01  2.1365246533448570e-01  2.1589924641353697e-01  2.1910114495700744e-01  2.2174343523599932e-01  2.1409914959265530e-01  2.0115160715952513e-01  1.9997727063775345e-01  2.0005189060422010e-01  2.0025966720905133e-01  2.0035123421716586e-01  2.0042624483391186e-01  2.0051603673803015e-01  2.0062576481862371e-01  2.0075519692445354e-01  2.0090311648726464e-01  2.0106815507492881e-01  2.0124899175567348e-01  2.0144444043997770e-01  2.0165351166664086e-01  2.0187546144963997e-01  2.0210983016603198e-01  2.0235647348422148e-01  2.0261558782983324e-01  2.0288773338977634e-01  2.0317385816232375e-01  2.0347532723291159e-01  2.0379396253837984e-01  2.0413210025496634e-01  2.0449267619248429e-01  2.0487935516421824e-01  2.0529672987759470e-01  2.0575063135290578e-01  2.0624862144869624e-01  2.0680078845031280e-01  2.0742105737336561e-01  2.0812939419123072e-01  2.0895560707334945e-01  2.0994608002330967e-01  2.1117616431418837e-01  2.1277393837660150e-01  2.1496821362252017e-01  2.1819251633748316e-01  2.2330417082706575e-01  2.3192663756982898e-01  2.4487471199537422e-01  2.4693443912225949e-01  2.0966060933606384e-01  1.9998788474832177e-01  2.0014434561036490e-01  2.0042057444723038e-01  2.0052956025028493e-01  2.0060706718327059e-01  2.0069615477236832e-01  2.0080423438481798e-01  2.0093140513076677e-01  2.0107645432864871e-01  2.0123797814635203e-01  2.0141463190148398e-01  2.0160522798594052e-01  2.0180880087738845e-01  2.0202465779715426e-01  2.0225241962871096e-01  2.0249205527094083e-01  2.0274391319194168e-01  2.0300875466809915e-01  2.0328779408963216e-01  2.0358275301971868e-01  2.0389593680813434e-01  2.0423034607062773e-01  2.0458984118422316e-01  2.0497938766820861e-01  2.0540542660593891e-01  2.0587644190287957e-01  2.0640384397807932e-01  2.0700337418265413e-01  2.0769738871168639e-01  2.0851867291503387e-01  2.0951701211608928e-01  2.1077092591957164e-01  2.1240961564579150e-01  2.1465600437066659e-01  2.1791742527552738e-01  2.2298935466679073e-01  2.3153526384661013e-01  2.4715048281504293e-01  2.7575603029180240e-01  3.1125705687695582e-01  2.4855113176817598e-01  2.0000047717078037e-01  2.0025406117078329e-01  2.0061144707714582e-01  2.0074088830224263e-01  2.0082102578057745e-01  2.0090884172166831e-01  2.0101444123090248e-01  2.0113833507642020e-01  2.0127933499208819e-01  2.0143601506929426e-01  2.0160702138446684e-01  2.0179118084854741e-01  2.0198756826964850e-01  2.0219555724602273e-01  2.0241486142605364e-01  2.0264557054972249e-01  2.0288818621874094e-01  2.0314366317478597e-01  2.0341346302116425e-01  2.0369962911300504e-01  2.0400489428290255e-01  2.0433283792839219e-01  2.0468811699562231e-01  2.0507680862185287e-01  2.0550692427352804e-01  2.0598919268192639e-01  2.0653827392846180e-01  2.0717468315111576e-01  2.0792791648196432e-01  2.0884168199909120e-01  2.0998295663279948e-01  2.1145830918296110e-01  2.1344473625529525e-01  2.1625099203060083e-01  2.2044851924266251e-01  2.2716445095408588e-01  2.3878653765177965e-01  2.6058470912559811e-01  3.0288515464577581e-01  3.7091720924346927e-01  2.9853472105294931e-01  2.0001527253884613e-01  2.0038297088750198e-01  2.0083558313351077e-01  2.0098873994771196e-01  2.0107148945032025e-01  2.0115719102088767e-01  2.0125913781851243e-01  2.0137835264869364e-01  2.0151370681384548e-01  2.0166377926757265e-01  2.0182723366305291e-01  2.0200293780016682e-01  2.0219003094538410e-01  2.0238797291164998e-01  2.0259658363447813e-01  2.0281607887139635e-01  2.0304710797252809e-01  2.0329080047085260e-01  2.0354882949432895e-01  2.0382350206894045e-01  2.0411788984698731e-01  2.0443601952995086e-01  2.0478315166725189e-01  2.0516619198831723e-01  2.0559430516232713e-01  2.0607984448492012e-01  2.0663978668360711e-01  2.0729799628933496e-01  2.0808889393094507e-01  2.0906358238036651e-01  2.1030044363473205e-01  2.1192423798409030e-01  2.1414216766908137e-01  2.1731578009859187e-01  2.2211339966689261e-01  2.2984831129813915e-01  2.4328439628586004e-01  2.6835453898168143e-01  3.1644380875738792e-01  3.9504093895843928e-01  3.2382787263911045e-01  2.0003256541848013e-01  2.0053360471082635e-01  2.0109728858363185e-01  2.0127769624665995e-01  2.0136281414272850e-01  2.0144516939608190e-01  2.0154181753255621e-01  2.0165442399686387e-01  2.0178197693999061e-01  2.0192310695371898e-01  2.0207653934473252e-01  2.0224122299573902e-01  2.0241639555581342e-01  2.0260162842717314e-01  2.0279686264973412e-01  2.0300244237282955e-01  2.0321915254971090e-01  2.0344826811351086e-01  2.0369162308480654e-01  2.0395171018215077e-01  2.0423182514501878e-01  2.0453627601186597e-01  2.0487068744357501e-01  2.0524244625495672e-01  2.0566136084096309e-01  2.0614065178457522e-01  2.0669846776497294e-01  2.0736025708324032e-01  2.0816257456046505e-01  2.0915937744129875e-01  2.1043280237583634e-01  2.1211236066102523e-01  2.1441072255169055e-01  2.1769410887109722e-01  2.2262864460597526e-01  2.3050294937156585e-01  2.4396872386740767e-01  2.6844315328521823e-01  3.1290129892269897e-01  3.7384879558614065e-01  3.1089681110989020e-01  2.0005274388759209e-01  2.0070928709403124e-01  2.0140220571180686e-01  2.0161373265384289e-01  2.0170064196921084e-01  2.0177786656490324e-01  2.0186691050263755e-01  2.0197025835193744e-01  2.0208710617762235e-01  2.0221621186902905e-01  2.0235643012938756e-01  2.0250684877091188e-01  2.0266684915296262e-01  2.0283614511468886e-01  2.0301481383637179e-01  2.0320332602852337e-01  2.0340258228786812e-01  2.0361396281066688e-01  2.0383939867163445e-01  2.0408147486617048e-01  2.0434357879763931e-01  2.0463011365364228e-01  2.0494680542303403e-01  2.0530114729857282e-01  2.0570304960118138e-01  2.0616580374628424e-01  2.0670753717331247e-01  2.0735345513463183e-01  2.0813937850553318e-01  2.0911748223490825e-01  2.1036590077917328e-01  2.1200539761884815e-01  2.1422953073573420e-01  2.1736194147285506e-01  2.2197092074558558e-01  2.2911204461977430e-01  2.4083724523939762e-01  2.6101067273208045e-01  2.9388999624093204e-01  3.1972438991154239e-01  2.6711643536477248e-01  2.0007632316017035e-01  2.0091441881815808e-01  2.0175777797392414e-01  2.0200468816652523e-01  2.0209231217903723e-01  2.0216182861763538e-01  2.0224003487124811e-01  2.0233048122444533e-01  2.0243271397034010e-01  2.0254573533976955e-01  2.0266862855566925e-01  2.0280069930077241e-01  2.0294152947399255e-01  2.0309100954790496e-01  2.0324936487227893e-01  2.0341718336053219e-01  2.0359545091916478e-01  2.0378560108717972e-01  2.0398958618670687e-01  2.0420997904385002e-01  2.0445011742776720e-01  2.0471430839063245e-01  2.0500811766788185e-01  2.0533878187442017e-01  2.0571580122094124e-01  2.0615180272878555e-01  2.0666381698754924e-01  2.0727520077119119e-01  2.0801859177110427e-01  2.0894055451874560e-01  2.1010907478319699e-01  2.1162600102348267e-01  2.1364837637115475e-01  2.1642632497162478e-01  2.2037276767772590e-01  2.2619355075016312e-01  2.3509637965341515e-01  2.4880445652525296e-01  2.6614778171095499e-01  2.6307890585926275e-01  2.2156661049279425e-01  2.0010399446635513e-01  2.0115488526361214e-01  2.0217391909291133e-01  2.0246093183417069e-01  2.0254743252189655e-01  2.0260550730294391e-01  2.0266832102702093e-01  2.0274084400777337e-01  2.0282319207583224e-01  2.0291478669207175e-01  2.0301507817588074e-01  2.0312369140079056e-01  2.0324047370302359e-01  2.0336552365822252e-01  2.0349921686502068e-01  2.0364223510697266e-01  2.0379560392473314e-01  2.0396074372300280e-01  2.0413954031904352e-01  2.0433444237533543e-01  2.0454859572454090e-01  2.0478602861729439e-01  2.0505190808372345e-01  2.0535289699338458e-01  2.0569765580425894e-01  2.0609755531538046e-01  2.0656770176770065e-01  2.0712843132607209e-01  2.0780752061083868e-01  2.0864350574776425e-01  2.0969074114843417e-01  2.1102721944290351e-01  2.1276679335704804e-01  2.1507831817701101e-01  2.1821478099239836e-01  2.2255001395186383e-01  2.2857065391134135e-01  2.3642982016370795e-01  2.4274070156842426e-01  2.3108553501795723e-01  2.0483535538440359e-01  2.0013669775487203e-01  2.0143866096911653e-01  2.0266399572326560e-01  2.0299632616795824e-01  2.0307868411623664e-01  2.0311986947513583e-01  2.0316082793919679e-01  2.0320847078283075e-01  2.0326381677544603e-01  2.0332695920844437e-01  2.0339789919077705e-01  2.0347669994957734e-01  2.0356353667233851e-01  2.0365873177673499e-01  2.0376279038483849e-01  2.0387643979259867e-01  2.0400067582956166e-01  2.0413681957179719e-01  2.0428658886016471e-01  2.0445219046692606e-01  2.0463644074739648e-01  2.0484292549551364e-01  2.0507621389963337e-01  2.0534214755442723e-01  2.0564823427855836e-01  2.0600418923658342e-01  2.0642268424841992e-01  2.0692039232032111e-01  2.0751945050286716e-01  2.0824951065603445e-01  2.0915059797985822e-01  2.1027702102441134e-01  2.1170246989607042e-01  2.1352585173105992e-01  2.1587500096659282e-01  2.1889537790314989e-01  2.2266443287435891e-01  2.2673967889967067e-01  2.2815156547949589e-01  2.1783094550238236e-01  2.0205513347074203e-01  2.0017573267125269e-01  2.0177672804277363e-01  2.0324630534494728e-01  2.0362964802194675e-01  2.0370297143620941e-01  2.0371922766535169e-01  2.0372907138380414e-01  2.0374213459352289e-01  2.0376083761488600e-01  2.0378629559942343e-01  2.0381928590281187e-01  2.0386042967180343e-01  2.0391026617920965e-01  2.0396931737180113e-01  2.0403815279554169e-01  2.0411745465546963e-01  2.0420808361123324e-01  2.0431114762174291e-01  2.0442807758331946e-01  2.0456071475107798e-01  2.0471141626817321e-01  2.0488318680659151e-01  2.0507984657821315e-01  2.0530624902378797e-01  2.0556856551502084e-01  2.0587465947737668e-01  2.0623457816452503e-01  2.0666119564023958e-01  2.0717104176712253e-01  2.0778534006270633e-01  2.0853123026843945e-01  2.0944301775346411e-01  2.1056294906562764e-01  2.1194015037167141e-01  2.1362407252367688e-01  2.1564169544073583e-01  2.1791940821365147e-01  2.1998407567259651e-01  2.1983173975646172e-01  2.1194818588802916e-01  2.0139769943085589e-01  2.0022293333253205e-01  2.0218451378806701e-01  2.0394636038290367e-01  2.0438673242037433e-01  2.0444308997875105e-01  2.0442237387883319e-01  2.0438767816719541e-01  2.0435253692360741e-01  2.0432149993467619e-01  2.0429715998200249e-01  2.0428131113194695e-01  2.0427520915057387e-01  2.0427972111249393e-01  2.0429546256732423e-01  2.0432292464139759e-01  2.0436258701062060e-01  2.0441501689640790e-01  2.0448095749781259e-01  2.0456141095271577e-01  2.0465772164873192e-01  2.0477166606110306e-01  2.0490555562732898e-01  2.0506235963809594e-01  2.0524585572656362e-01  2.0546081607442196e-01  2.0571323739547892e-01  2.0601062094612352e-01  2.0636230282757939e-01  2.0677981977334450e-01  2.0727726165627838e-01  2.0787148988970303e-01  2.0858195370648153e-01  2.0942954312434817e-01  2.1043333425326327e-01  2.1160283087707327e-01  2.1291970990105250e-01  2.1428759888031243e-01  2.1535024297276856e-01  2.1474369854987699e-01  2.0872133511379948e-01  2.0099684731628725e-01  2.0028095353294254e-01  2.0268421582777588e-01  2.0480053206236593e-01  2.0530379043518865e-01  2.0533017981812873e-01  2.0525411993623885e-01  2.0515515753713157e-01  2.0505252550973183e-01  2.0495392253126918e-01  2.0486394800449681e-01  2.0478558871027089e-01  2.0472067761751911e-01  2.0467021811055430e-01  2.0463466611181000e-01  2.0461416615807645e-01  2.0460873921179681e-01  2.0461842815708375e-01  2.0464341070216863e-01  2.0468408995593451e-01  2.0474117199074940e-01  2.0481573830887689e-01  2.0490931976493107e-01  2.0502397726092544e-01  2.0516239327258651e-01  2.0532797659789565e-01  2.0552497993083732e-01  2.0575862469671510e-01  2.0603521783169623e-01  2.0636222700504470e-01  2.0674824764784408e-01  2.0720273649970250e-01  2.0773528632588614e-01  2.0835405372035648e-01  2.0906269476220221e-01  2.0985467945004996e-01  2.1070211060663732e-01  2.1152589564902011e-01  2.1207287680855688e-01  2.1136459242296962e-01  2.0661595458891593e-01  2.0074393862160558e-01  2.0035374664240399e-01  2.0330872934828523e-01  2.0586208308911172e-01  2.0643268706337503e-01  2.0640738120534732e-01  2.0624735278499295e-01  2.0605471652386390e-01  2.0585710880917552e-01  2.0566669201600915e-01  2.0549053146826182e-01  2.0533273020758763e-01  2.0519533294899994e-01  2.0507899663092749e-01  2.0498352155757393e-01  2.0490825069760513e-01  2.0485235486186987e-01  2.0481502934500917e-01  2.0479562722186384e-01  2.0479375029427571e-01  2.0480931369922914e-01  2.0484259572479963e-01  2.0489428075319752e-01  2.0496550031127053e-01  2.0505787459047417e-01  2.0517355398339288e-01  2.0531525646902818e-01  2.0548629106029540e-01  2.0569054852227817e-01  2.0593242602273595e-01  2.0621662934725013e-01  2.0654776144625356e-01  2.0692955718714962e-01  2.0736356389075075e-01  2.0784699964750930e-01  2.0836936437071585e-01  2.0890623411374457e-01  2.0940026534109882e-01  2.0966976918096306e-01  2.0897570623254735e-01  2.0516482470201505e-01  2.0057199394128400e-01  2.0044744319075702e-01  2.0410864163763323e-01  2.0721154621103074e-01  2.0784960833112257e-01  2.0773531936740128e-01  2.0744565051121400e-01  2.0711488693073485e-01  2.0678297942144380e-01  2.064679426