<?xml version="1.0"?>
<VTKFile type="UnstructuredGrid"  version="0.1"  >
<UnstructuredGrid>
<Piece  NumberOfPoints="1681" NumberOfCells="3200">
<Points>
<DataArray  type="Float64"  NumberOfComponents="3"  format="ascii">0 0 0  0.025 0 0  0.05 0 0  0.075 0 0  0.1 0 0  0.125 0 0  0.15 0 0  0.175 0 0  0.2 0 0  0.225 0 0  0.25 0 0  0.275 0 0  0.3 0 0  0.325 0 0  0.35 0 0  0.375 0 0  0.4 0 0  0.425 0 0  0.45 0 0  0.475 0 0  0.5 0 0  0.525 0 0  0.55 0 0  0.575 0 0  0.6 0 0  0.625 0 0  0.65 0 0  0.675 0 0  0.7 0 0  0.725 0 0  0.75 0 0  0.775 0 0  0.8 0 0  0.825 0 0  0.85 0 0  0.875 0 0  0.9 0 0  0.925 0 0  0.95 0 0  0.975 0 0  1 0 0  0 0.025 0  0.025 0.025 0  0.05 0.025 0  0.075 0.025 0  0.1 0.025 0  0.125 0.025 0  0.15 0.025 0  0.175 0.025 0  0.2 0.025 0  0.225 0.025 0  0.25 0.025 0  0.275 0.025 0  0.3 0.025 0  0.325 0.025 0  0.35 0.025 0  0.375 0.025 0  0.4 0.025 0  0.425 0.025 0  0.45 0.025 0  0.475 0.025 0  0.5 0.025 0  0.525 0.025 0  0.55 0.025 0  0.575 0.025 0  0.6 0.025 0  0.625 0.025 0  0.65 0.025 0  0.675 0.025 0  0.7 0.025 0  0.725 0.025 0  0.75 0.025 0  0.775 0.025 0  0.8 0.025 0  0.825 0.025 0  0.85 0.025 0  0.875 0.025 0  0.9 0.025 0  0.925 0.025 0  0.95 0.025 0  0.975 0.025 0  1 0.025 0  0 0.05 0  0.025 0.05 0  0.05 0.05 0  0.075 0.05 0  0.1 0.05 0  0.125 0.05 0  0.15 0.05 0  0.175 0.05 0  0.2 0.05 0  0.225 0.05 0  0.25 0.05 0  0.275 0.05 0  0.3 0.05 0  0.325 0.05 0  0.35 0.05 0  0.375 0.05 0  0.4 0.05 0  0.425 0.05 0  0.45 0.05 0  0.475 0.05 0  0.5 0.05 0  0.525 0.05 0  0.55 0.05 0  0.575 0.05 0  0.6 0.05 0  0.625 0.05 0  0.65 0.05 0  0.675 0.05 0  0.7 0.05 0  0.725 0.05 0  0.75 0.05 0  0.775 0.05 0  0.8 0.05 0  0.825 0.05 0  0.85 0.05 0  0.875 0.05 0  0.9 0.05 0  0.925 0.05 0  0.95 0.05 0  0.975 0.05 0  1 0.05 0  0 0.075 0  0.025 0.075 0  0.05 0.075 0  0.075 0.075 0  0.1 0.075 0  0.125 0.075 0  0.15 0.075 0  0.175 0.075 0  0.2 0.075 0  0.225 0.075 0  0.25 0.075 0  0.275 0.075 0  0.3 0.075 0  0.325 0.075 0  0.35 0.075 0  0.375 0.075 0  0.4 0.075 0  0.425 0.075 0  0.45 0.075 0  0.475 0.075 0  0.5 0.075 0  0.525 0.075 0  0.55 0.075 0  0.575 0.075 0  0.6 0.075 0  0.625 0.075 0  0.65 0.075 0  0.675 0.075 0  0.7 0.075 0  0.725 0.075 0  0.75 0.075 0  0.775 0.075 0  0.8 0.075 0  0.825 0.075 0  0.85 0.075 0  0.875 0.075 0  0.9 0.075 0  0.925 0.075 0  0.95 0.075 0  0.975 0.075 0  1 0.075 0  0 0.1 0  0.025 0.1 0  0.05 0.1 0  0.075 0.1 0  0.1 0.1 0  0.125 0.1 0  0.15 0.1 0  0.175 0.1 0  0.2 0.1 0  0.225 0.1 0  0.25 0.1 0  0.275 0.1 0  0.3 0.1 0  0.325 0.1 0  0.35 0.1 0  0.375 0.1 0  0.4 0.1 0  0.425 0.1 0  0.45 0.1 0  0.475 0.1 0  0.5 0.1 0  0.525 0.1 0  0.55 0.1 0  0.575 0.1 0  0.6 0.1 0  0.625 0.1 0  0.65 0.1 0  0.675 0.1 0  0.7 0.1 0  0.725 0.1 0  0.75 0.1 0  0.775 0.1 0  0.8 0.1 0  0.825 0.1 0  0.85 0.1 0  0.875 0.1 0  0.9 0.1 0  0.925 0.1 0  0.95 0.1 0  0.975 0.1 0  1 0.1 0  0 0.125 0  0.025 0.125 0  0.05 0.125 0  0.075 0.125 0  0.1 0.125 0  0.125 0.125 0  0.15 0.125 0  0.175 0.125 0  0.2 0.125 0  0.225 0.125 0  0.25 0.125 0  0.275 0.125 0  0.3 0.125 0  0.325 0.125 0  0.35 0.125 0  0.375 0.125 0  0.4 0.125 0  0.425 0.125 0  0.45 0.125 0  0.475 0.125 0  0.5 0.125 0  0.525 0.125 0  0.55 0.125 0  0.575 0.125 0  0.6 0.125 0  0.625 0.125 0  0.65 0.125 0  0.675 0.125 0  0.7 0.125 0  0.725 0.125 0  0.75 0.125 0  0.775 0.125 0  0.8 0.125 0  0.825 0.125 0  0.85 0.125 0  0.875 0.125 0  0.9 0.125 0  0.925 0.125 0  0.95 0.125 0  0.975 0.125 0  1 0.125 0  0 0.15 0  0.025 0.15 0  0.05 0.15 0  0.075 0.15 0  0.1 0.15 0  0.125 0.15 0  0.15 0.15 0  0.175 0.15 0  0.2 0.15 0  0.225 0.15 0  0.25 0.15 0  0.275 0.15 0  0.3 0.15 0  0.325 0.15 0  0.35 0.15 0  0.375 0.15 0  0.4 0.15 0  0.425 0.15 0  0.45 0.15 0  0.475 0.15 0  0.5 0.15 0  0.525 0.15 0  0.55 0.15 0  0.575 0.15 0  0.6 0.15 0  0.625 0.15 0  0.65 0.15 0  0.675 0.15 0  0.7 0.15 0  0.725 0.15 0  0.75 0.15 0  0.775 0.15 0  0.8 0.15 0  0.825 0.15 0  0.85 0.15 0  0.875 0.15 0  0.9 0.15 0  0.925 0.15 0  0.95 0.15 0  0.975 0.15 0  1 0.15 0  0 0.175 0  0.025 0.175 0  0.05 0.175 0  0.075 0.175 0  0.1 0.175 0  0.125 0.175 0  0.15 0.175 0  0.175 0.175 0  0.2 0.175 0  0.225 0.175 0  0.25 0.175 0  0.275 0.175 0  0.3 0.175 0  0.325 0.175 0  0.35 0.175 0  0.375 0.175 0  0.4 0.175 0  0.425 0.175 0  0.45 0.175 0  0.475 0.175 0  0.5 0.175 0  0.525 0.175 0  0.55 0.175 0  0.575 0.175 0  0.6 0.175 0  0.625 0.175 0  0.65 0.175 0  0.675 0.175 0  0.7 0.175 0  0.725 0.175 0  0.75 0.175 0  0.775 0.175 0  0.8 0.175 0  0.825 0.175 0  0.85 0.175 0  0.875 0.175 0  0.9 0.175 0  0.925 0.175 0  0.95 0.175 0  0.975 0.175 0  1 0.175 0  0 0.2 0  0.025 0.2 0  0.05 0.2 0  0.075 0.2 0  0.1 0.2 0  0.125 0.2 0  0.15 0.2 0  0.175 0.2 0  0.2 0.2 0  0.225 0.2 0  0.25 0.2 0  0.275 0.2 0  0.3 0.2 0  0.325 0.2 0  0.35 0.2 0  0.375 0.2 0  0.4 0.2 0  0.425 0.2 0  0.45 0.2 0  0.475 0.2 0  0.5 0.2 0  0.525 0.2 0  0.55 0.2 0  0.575 0.2 0  0.6 0.2 0  0.625 0.2 0  0.65 0.2 0  0.675 0.2 0  0.7 0.2 0  0.725 0.2 0  0.75 0.2 0  0.775 0.2 0  0.8 0.2 0  0.825 0.2 0  0.85 0.2 0  0.875 0.2 0  0.9 0.2 0  0.925 0.2 0  0.95 0.2 0  0.975 0.2 0  1 0.2 0  0 0.225 0  0.025 0.225 0  0.05 0.225 0  0.075 0.225 0  0.1 0.225 0  0.125 0.225 0  0.15 0.225 0  0.175 0.225 0  0.2 0.225 0  0.225 0.225 0  0.25 0.225 0  0.275 0.225 0  0.3 0.225 0  0.325 0.225 0  0.35 0.225 0  0.375 0.225 0  0.4 0.225 0  0.425 0.225 0  0.45 0.225 0  0.475 0.225 0  0.5 0.225 0  0.525 0.225 0  0.55 0.225 0  0.575 0.225 0  0.6 0.225 0  0.625 0.225 0  0.65 0.225 0  0.675 0.225 0  0.7 0.225 0  0.725 0.225 0  0.75 0.225 0  0.775 0.225 0  0.8 0.225 0  0.825 0.225 0  0.85 0.225 0  0.875 0.225 0  0.9 0.225 0  0.925 0.225 0  0.95 0.225 0  0.975 0.225 0  1 0.225 0  0 0.25 0  0.025 0.25 0  0.05 0.25 0  0.075 0.25 0  0.1 0.25 0  0.125 0.25 0  0.15 0.25 0  0.175 0.25 0  0.2 0.25 0  0.225 0.25 0  0.25 0.25 0  0.275 0.25 0  0.3 0.25 0  0.325 0.25 0  0.35 0.25 0  0.375 0.25 0  0.4 0.25 0  0.425 0.25 0  0.45 0.25 0  0.475 0.25 0  0.5 0.25 0  0.525 0.25 0  0.55 0.25 0  0.575 0.25 0  0.6 0.25 0  0.625 0.25 0  0.65 0.25 0  0.675 0.25 0  0.7 0.25 0  0.725 0.25 0  0.75 0.25 0  0.775 0.25 0  0.8 0.25 0  0.825 0.25 0  0.85 0.25 0  0.875 0.25 0  0.9 0.25 0  0.925 0.25 0  0.95 0.25 0  0.975 0.25 0  1 0.25 0  0 0.275 0  0.025 0.275 0  0.05 0.275 0  0.075 0.275 0  0.1 0.275 0  0.125 0.275 0  0.15 0.275 0  0.175 0.275 0  0.2 0.275 0  0.225 0.275 0  0.25 0.275 0  0.275 0.275 0  0.3 0.275 0  0.325 0.275 0  0.35 0.275 0  0.375 0.275 0  0.4 0.275 0  0.425 0.275 0  0.45 0.275 0  0.475 0.275 0  0.5 0.275 0  0.525 0.275 0  0.55 0.275 0  0.575 0.275 0  0.6 0.275 0  0.625 0.275 0  0.65 0.275 0  0.675 0.275 0  0.7 0.275 0  0.725 0.275 0  0.75 0.275 0  0.775 0.275 0  0.8 0.275 0  0.825 0.275 0  0.85 0.275 0  0.875 0.275 0  0.9 0.275 0  0.925 0.275 0  0.95 0.275 0  0.975 0.275 0  1 0.275 0  0 0.3 0  0.025 0.3 0  0.05 0.3 0  0.075 0.3 0  0.1 0.3 0  0.125 0.3 0  0.15 0.3 0  0.175 0.3 0  0.2 0.3 0  0.225 0.3 0  0.25 0.3 0  0.275 0.3 0  0.3 0.3 0  0.325 0.3 0  0.35 0.3 0  0.375 0.3 0  0.4 0.3 0  0.425 0.3 0  0.45 0.3 0  0.475 0.3 0  0.5 0.3 0  0.525 0.3 0  0.55 0.3 0  0.575 0.3 0  0.6 0.3 0  0.625 0.3 0  0.65 0.3 0  0.675 0.3 0  0.7 0.3 0  0.725 0.3 0  0.75 0.3 0  0.775 0.3 0  0.8 0.3 0  0.825 0.3 0  0.85 0.3 0  0.875 0.3 0  0.9 0.3 0  0.925 0.3 0  0.95 0.3 0  0.975 0.3 0  1 0.3 0  0 0.325 0  0.025 0.325 0  0.05 0.325 0  0.075 0.325 0  0.1 0.325 0  0.125 0.325 0  0.15 0.325 0  0.175 0.325 0  0.2 0.325 0  0.225 0.325 0  0.25 0.325 0  0.275 0.325 0  0.3 0.325 0  0.325 0.325 0  0.35 0.325 0  0.375 0.325 0  0.4 0.325 0  0.425 0.325 0  0.45 0.325 0  0.475 0.325 0  0.5 0.325 0  0.525 0.325 0  0.55 0.325 0  0.575 0.325 0  0.6 0.325 0  0.625 0.325 0  0.65 0.325 0  0.675 0.325 0  0.7 0.325 0  0.725 0.325 0  0.75 0.325 0  0.775 0.325 0  0.8 0.325 0  0.825 0.325 0  0.85 0.325 0  0.875 0.325 0  0.9 0.325 0  0.925 0.325 0  0.95 0.325 0  0.975 0.325 0  1 0.325 0  0 0.35 0  0.025 0.35 0  0.05 0.35 0  0.075 0.35 0  0.1 0.35 0  0.125 0.35 0  0.15 0.35 0  0.175 0.35 0  0.2 0.35 0  0.225 0.35 0  0.25 0.35 0  0.275 0.35 0  0.3 0.35 0  0.325 0.35 0  0.35 0.35 0  0.375 0.35 0  0.4 0.35 0  0.425 0.35 0  0.45 0.35 0  0.475 0.35 0  0.5 0.35 0  0.525 0.35 0  0.55 0.35 0  0.575 0.35 0  0.6 0.35 0  0.625 0.35 0  0.65 0.35 0  0.675 0.35 0  0.7 0.35 0  0.725 0.35 0  0.75 0.35 0  0.775 0.35 0  0.8 0.35 0  0.825 0.35 0  0.85 0.35 0  0.875 0.35 0  0.9 0.35 0  0.925 0.35 0  0.95 0.35 0  0.975 0.35 0  1 0.35 0  0 0.375 0  0.025 0.375 0  0.05 0.375 0  0.075 0.375 0  0.1 0.375 0  0.125 0.375 0  0.15 0.375 0  0.175 0.375 0  0.2 0.375 0  0.225 0.375 0  0.25 0.375 0  0.275 0.375 0  0.3 0.375 0  0.325 0.375 0  0.35 0.375 0  0.375 0.375 0  0.4 0.375 0  0.425 0.375 0  0.45 0.375 0  0.475 0.375 0  0.5 0.375 0  0.525 0.375 0  0.55 0.375 0  0.575 0.375 0  0.6 0.375 0  0.625 0.375 0  0.65 0.375 0  0.675 0.375 0  0.7 0.375 0  0.725 0.375 0  0.75 0.375 0  0.775 0.375 0  0.8 0.375 0  0.825 0.375 0  0.85 0.375 0  0.875 0.375 0  0.9 0.375 0  0.925 0.375 0  0.95 0.375 0  0.975 0.375 0  1 0.375 0  0 0.4 0  0.025 0.4 0  0.05 0.4 0  0.075 0.4 0  0.1 0.4 0  0.125 0.4 0  0.15 0.4 0  0.175 0.4 0  0.2 0.4 0  0.225 0.4 0  0.25 0.4 0  0.275 0.4 0  0.3 0.4 0  0.325 0.4 0  0.35 0.4 0  0.375 0.4 0  0.4 0.4 0  0.425 0.4 0  0.45 0.4 0  0.475 0.4 0  0.5 0.4 0  0.525 0.4 0  0.55 0.4 0  0.575 0.4 0  0.6 0.4 0  0.625 0.4 0  0.65 0.4 0  0.675 0.4 0  0.7 0.4 0  0.725 0.4 0  0.75 0.4 0  0.775 0.4 0  0.8 0.4 0  0.825 0.4 0  0.85 0.4 0  0.875 0.4 0  0.9 0.4 0  0.925 0.4 0  0.95 0.4 0  0.975 0.4 0  1 0.4 0  0 0.425 0  0.025 0.425 0  0.05 0.425 0  0.075 0.425 0  0.1 0.425 0  0.125 0.425 0  0.15 0.425 0  0.175 0.425 0  0.2 0.425 0  0.225 0.425 0  0.25 0.425 0  0.275 0.425 0  0.3 0.425 0  0.325 0.425 0  0.35 0.425 0  0.375 0.425 0  0.4 0.425 0  0.425 0.425 0  0.45 0.425 0  0.475 0.425 0  0.5 0.425 0  0.525 0.425 0  0.55 0.425 0  0.575 0.425 0  0.6 0.425 0  0.625 0.425 0  0.65 0.425 0  0.675 0.425 0  0.7 0.425 0  0.725 0.425 0  0.75 0.425 0  0.775 0.425 0  0.8 0.425 0  0.825 0.425 0  0.85 0.425 0  0.875 0.425 0  0.9 0.425 0  0.925 0.425 0  0.95 0.425 0  0.975 0.425 0  1 0.425 0  0 0.45 0  0.02
[...]
<PointData  Scalars="ControlVisualisation"> 
<DataArray  type="Float64"  Name="ControlVisualisation"  format="ascii">-9.2725639472269817e-09  -9.5150527590848756e-09  -9.5150396806023522e-09  -9.5150177984929499e-09  -9.5149877536663901e-09  -9.5149503091446787e-09  -9.5149064381786050e-09  -9.5148572787876798e-09  -9.5148041033362013e-09  -9.5147482848203725e-09  -9.5146912594871887e-09  -9.5146344883009700e-09  -9.5145794183240220e-09  -9.5145274452426629e-09  -9.5144798781800350e-09  -9.5144379077013913e-09  -9.5144025776998039e-09  -9.5143747616039638e-09  -9.5143551431680638e-09  -9.5143442019085494e-09  -9.5143422031982673e-09  -9.5143491929568388e-09  -9.5143649968915485e-09  -9.5143892242711269e-09  -9.5144212762557924e-09  -9.5144603588138414e-09  -9.5145055002384190e-09  -9.5145555731975781e-09  -9.5146093211331998e-09  -9.5146653886183922e-09  -9.5147223550844852e-09  -9.5147787710748639e-09  -9.5148331960036250e-09  -9.5148842362573783e-09  -9.5149305822337955e-09  -9.5149710435116641e-09  -9.5150045801684980e-09  -9.5150303363341723e-09  -9.5150475852037950e-09  -9.5150561719918043e-09  -8.5448830659230677e-09  -9.5150527300697521e-09  -9.7575260414950984e-09  -9.7575132428313963e-09  -9.7574907064905854e-09  -9.7574587722015913e-09  -9.7574182615693048e-09  -9.7573702277467941e-09  -9.7573159118265891e-09  -9.7572567165078715e-09  -9.7571941678987615e-09  -9.7571298743312879e-09  -9.7570654833347611e-09  -9.7570026379748363e-09  -9.7569429340362531e-09  -9.7568878793717301e-09  -9.7568388565329005e-09  -9.7567970895474571e-09  -9.7567636154541757e-09  -9.7567392609631538e-09  -9.7567246244188027e-09  -9.7567200630999835e-09  -9.7567256858562202e-09  -9.7567413510218265e-09  -9.7567666695914884e-09  -9.7568010136683030e-09  -9.7568435302014402e-09  -9.7568931600077282e-09  -9.7569486619908948e-09  -9.7570086423421335e-09  -9.7570715882920564e-09  -9.7571359057610164e-09  -9.7571999599820626e-09  -9.7572621179551696e-09  -9.7573207914194394e-09  -9.7573744788112421e-09  -9.7574218053995651e-09  -9.7574615585688285e-09  -9.7574927199786940e-09  -9.7575145150872577e-09  -9.7575270555801664e-09  -9.5150561676200208e-09  -9.5150393402202962e-09  -9.7575129937019352e-09  -9.7574969936477547e-09  -9.7574713250346467e-09  -9.7574348844042480e-09  -9.7573885572150613e-09  -9.7573335415534691e-09  -9.7572712592293377e-09  -9.7572033193275444e-09  -9.7571314737733071e-09  -9.7570575705139885e-09  -9.7569835039238857e-09  -9.7569111644506632e-09  -9.7568423892168639e-09  -9.7567789151342354e-09  -9.7567223358335321e-09  -9.7566740634035160e-09  -9.7566352956493580e-09  -9.7566069892515288e-09  -9.7565898390229461e-09  -9.7565842632712013e-09  -9.7565903952406421e-09  -9.7566080805626867e-09  -9.7566368806847712e-09  -9.7566760823008167e-09  -9.7567247128148682e-09  -9.7567815618655601e-09  -9.7568452088409225e-09  -9.7569140561701925e-09  -9.7569863679307287e-09  -9.7570603130328347e-09  -9.7571340119390376e-09  -9.7572055855710389e-09  -9.7572732048686465e-09  -9.7573351392528371e-09  -9.7573898027379822e-09  -9.7574357937395605e-09  -9.7574719485917118e-09  -9.7574974825081351e-09  -9.7575143045822359e-09  -9.5150474759278942e-09  -9.5150161707578167e-09  -9.7574893106585462e-09  -9.7574700548203762e-09  -9.7574440759807316e-09  -9.7574073836002908e-09  -9.7573607402565710e-09  -9.7573053422009291e-09  -9.7572426237699685e-09  -9.7571742075971165e-09  -9.7571018606015863e-09  -9.7570274462055014e-09  -9.7569528738401344e-09  -9.7568800478587354e-09  -9.7568108175628081e-09  -9.7567469299550204e-09  -9.7566899865745093e-09  -9.7566414053727423e-09  -9.7566023882742863e-09  -9.7565738947487340e-09  -9.7565566214833035e-09  -9.7565509881070586e-09  -9.7565571288461028e-09  -9.7565748900318080e-09  -9.7566038334014642e-09  -9.7566432452339199e-09  -9.7566921514074044e-09  -9.7567493384614422e-09  -9.7568133806906393e-09  -9.7568826731261377e-09  -9.7569554700326344e-09  -9.7570299282246322e-09  -9.7571041541742646e-09  -9.7571762535343459e-09  -9.7572443814675522e-09  -9.7573067919326277e-09  -9.7573618846331139e-09  -9.7574082468345067e-09  -9.7574447176028175e-09  -9.7574707067675108e-09  -9.7574914696291444e-09  -9.5150295729492127e-09  -9.5149826846272443e-09  -9.7574541217699132e-09  -9.7574299663505349e-09  -9.7574037197705999e-09  -9.7573669924121586e-09  -9.7573203223399469e-09  -9.7572648965659921e-09  -9.7572021533943109e-09  -9.7571337198274024e-09  -9.7570613676146952e-09  -9.7569869643322401e-09  -9.7569124221563101e-09  -9.7568396461424121e-09  -9.7567704838971002e-09  -9.7567066783409325e-09  -9.7566498249025355e-09  -9.7566013340752500e-09  -9.7565623998653106e-09  -9.7565339743292169e-09  -9.7565167481621816e-09  -9.7565111371579894e-09  -9.7565172743374520e-09  -9.7565350075863099e-09  -9.7565639027561336e-09  -9.7566032522695067e-09  -9.7566520893959425e-09  -9.7567092083883353e-09  -9.7567731906182248e-09  -9.7568424367132405e-09  -9.7569152044433202e-09  -9.7569896517518098e-09  -9.7570638839427747e-09  -9.7571360036264521e-09  -9.7572041617247895e-09  -9.7572666075654103e-09  -9.7573217367542726e-09  -9.7573681341947970e-09  -9.7574046525942734e-09  -9.7574309887060260e-09  -9.7574572940027647e-09  -9.5150017057903487e-09  -9.5149379817174734e-09  -9.7574064886555966e-09  -9.7573756059594723e-09  -9.7573490003340764e-09  -9.7573122411818018e-09  -9.7572655534413795e-09  -9.7572101141406857e-09  -9.7571473663742974e-09  -9.7570789431610614e-09  -9.7570066223854593e-09  -9.7569322766177887e-09  -9.7568578208341090e-09  -9.7567851598302635e-09  -9.7567161374567083e-09  -9.7566524894644563e-09  -9.7565958013029876e-09  -9.7565474717038162e-09  -9.7565086824340188e-09  -9.7564803742336588e-09  -9.7564632287142550e-09  -9.7564576558573099e-09  -9.7564637868035613e-09  -9.7564814716949360e-09  -9.7565102824746918e-09  -9.7565495207664119e-09  -9.7565982310415508e-09  -9.7566552194269010e-09  -9.7567190784561710e-09  -9.7567882179563536e-09  -9.7568609019908712e-09  -9.7569352914060866e-09  -9.7570094910507320e-09  -9.7570816002642979e-09  -9.7571497648112114e-09  -9.7572122280992401e-09  -9.7572673801913340e-09  -9.7573138022634441e-09  -9.7573503641385459e-09  -9.7573771431143711e-09  -9.7574108564805088e-09  -9.5149632118173233e-09  -9.5148808852406391e-09  -9.7573451517756368e-09  -9.7573055261278933e-09  -9.7572784472407103e-09  -9.7572416448026416e-09  -9.7571949336410089e-09  -9.7571394777189959e-09  -9.7570767272408035e-09  -9.7570083241409538e-09  -9.7569360549365572e-09  -9.7568617989722627e-09  -9.7567874746580508e-09  -9.7567149857575292e-09  -9.7566461701271090e-09  -9.7565827527918697e-09  -9.7565263046759003e-09  -9.7564782076777763e-09  -9.7564396262574963e-09  -9.7564114852909075e-09  -9.7563944537295033e-09  -9.7563889335049719e-09  -9.7563950531835642e-09  -9.7564126660728735e-09  -9.7564413526436567e-09  -9.7564804274194747e-09  -9.7565289506750510e-09  -9.7565857454341421e-09  -9.7566494203122653e-09  -9.7567183986364346e-09  -9.7567909540034595e-09  -9.7568652520418393e-09  -9.7569393975634798e-09  -9.7570114857003497e-09  -9.7570796550662305e-09  -9.7571421405039872e-09  -9.7571973236775662e-09  -9.7572437795929969e-09  -9.7572803985818627e-09  -9.7573077423849329e-09  -9.7573509411692459e-09  -9.5149130843424387e-09  -9.5148098923749136e-09  -9.7572684807410637e-09  -9.7572178577359338e-09  -9.7571901749892549e-09  -9.7571533115052222e-09  -9.7571065651705646e-09  -9.7570510849066015e-09  -9.7569883318870290e-09  -9.7569199610258339e-09  -9.7568477709357837e-09  -9.7567736499599702e-09  -9.7566995204119334e-09  -9.7566272834851137e-09  -9.7565587675181998e-09  -9.7564956815984200e-09  -9.7564395757439767e-09  -9.7563918081084005e-09  -9.7563535190873862e-09  -9.7563256117403988e-09  -9.7563087377539002e-09  -9.7563032881501370e-09  -9.7563093880706154e-09  -9.7563268952024383e-09  -9.7563554017163574e-09  -9.7563942398963186e-09  -9.7564424919197228e-09  -9.7564990044809367e-09  -9.7565624090621296e-09  -9.7566311485980546e-09  -9.7567035110306229e-09  -9.7567776698042064e-09  -9.7568517307103326e-09  -9.7569237837064294e-09  -9.7569919576246010e-09  -9.7570544749839375e-09  -9.7571097048409996e-09  -9.7571562122876301e-09  -9.7571929111228756e-09  -9.7572209632971164e-09  -9.7572759789457086e-09  -9.5148500207088964e-09  -9.5147231383522049e-09  -9.7571744394517394e-09  -9.7571102614446134e-09  -9.7570818184903824e-09  -9.7570448632397879e-09  -9.7569980580774000e-09  -9.7569425367252236e-09  -9.7568797775062169e-09  -9.7568114544022780e-09  -9.7567393829331089e-09  -9.7566654630781632e-09  -9.7565916209462445e-09  -9.7565197521228838e-09  -9.7564516696871557e-09  -9.7563890589141290e-09  -9.7563334397046895e-09  -9.7562861368360964e-09  -9.7562482574665710e-09  -9.7562206749189366e-09  -9.7562040175877908e-09  -9.7561986619038464e-09  -9.7562047285061996e-09  -9.7562220810732087e-09  -9.7562503276559618e-09  -9.7562888247389845e-09  -9.7563366846049111e-09  -9.7563927869083342e-09  -9.7564557955534537e-09  -9.7565241819941969e-09  -9.7565962558886761e-09  -9.7566702035698386e-09  -9.7567441340749051e-09  -9.7568161315128188e-09  -9.7568843115928739e-09  -9.7569468791574695e-09  -9.7570021842294592e-09  -9.7570487757625393e-09  -9.7570855922672461e-09  -9.7571145252617231e-09  -9.7571840094836489e-09  -9.5147723867779296e-09  -9.5146183560133411e-09  -9.7570605364004406e-09  -9.7569798662827661e-09  -9.7569504674966741e-09  -9.7569133648612731e-09  -9.7568664533294770e-09  -9.7568108551191224e-09  -9.7567480761493191e-09  -9.7566798188813452e-09  -9.7566079224252999e-09  -9.7565343012424449e-09  -9.7564608837113177e-09  -9.7563895539963386e-09  -9.7563221004531046e-09  -9.7562601724707940e-09  -9.7562052463900447e-09  -9.7561586000587124e-09  -9.7561212948799526e-09  -9.7560941638822025e-09  -9.7560778042789869e-09  -9.7560725731628279e-09  -9.7560785853202805e-09  -9.7560957125429091e-09  -9.7561235842451304e-09  -9.7561615896445623e-09  -9.7562088821811865e-09  -9.7562643872825743e-09  -9.7563268148515198e-09  -9.7563946780202245e-09  -9.7564663196278738e-09  -9.7565399474546270e-09  -9.7566136784708083e-09  -9.7566855912363423e-09  -9.7567537843121129e-09  -9.7568164371941187e-09  -9.7568718707849583e-09  -9.7569186072011960e-09  -9.7569556071442117e-09  -9.7569856364728529e-09  -9.7570726371094176e-09  -9.5146781808850880e-09  -9.5144928325055626e-09  -9.7569237704378899e-09  -9.7568232010931945e-09  -9.7567925882127980e-09  -9.7567552345060451e-09  -9.7567081224468087e-09  -9.7566523740011452e-09  -9.7565895405150044e-09  -9.7565213675747538e-09  -9.7564497269718262e-09  -9.7563765499642028e-09  -9.7563037625323701e-09  -9.7562332265135736e-09  -9.7561666898476732e-09  -9.7561057473818754e-09  -9.7560518121740470e-09  -9.7560060960571263e-09  -9.7559695976310788e-09  -9.7559430956519829e-09  -9.7559271459206667e-09  -9.7559220801325492e-09  -9.7559280055477383e-09  -9.7559448048319875e-09  -9.7559721358680908e-09  -9.7560094318015173e-09  -9.7560559020338116e-09  -9.7561105353985676e-09  -9.7561721071296137e-09  -9.7562391915774815e-09  -9.7563101827317025e-09  -9.7563833243159514e-09  -9.7564567505065743e-09  -9.7565285370738375e-09  -9.7565967611593437e-09  -9.7566595660609300e-09  -9.7567152275877484e-09  -9.7567622224998400e-09  -9.7567995236416821e-09  -9.7568309315349440e-09  -9.7569389819060905e-09  -9.5145649948948942e-09  -9.5143433715775566e-09  -9.7567605775738125e-09  -9.7566361207281195e-09  -9.7566039316315028e-09  -9.7565661318258005e-09  -9.7565186365353878e-09  -9.7564625931950482e-09  -9.7563996290931397e-09  -9.7563315555788738e-09  -9.7562602887821323e-09  -9.7561877765067141e-09  -9.7561159310435759e-09  -9.7560465717598419e-09  -9.7559813801212738e-09  -9.7559218675542406e-09  -9.7558693549207241e-09  -9.7558249613239366e-09  -9.7557895995942155e-09  -9.7557639759771007e-09  -9.7557485918641814e-09  -9.7557437460001450e-09  -9.7557495360878695e-09  -9.7557658591643444e-09  -9.7557924105857527e-09  -9.7558286818407615e-09  -9.7558739578367192e-09  -9.7559273148543058e-09  -9.7559876208610988e-09  -9.7560535404338791e-09  -9.7561235469338370e-09  -9.7561959445733149e-09  -9.7562689025460598e-09  -9.7563405021648202e-09  -9.7564087961504713e-09  -9.7564718768379466e-09  -9.7565279497742229e-09  -9.7565754143364227e-09  -9.7566132308243860e-09  -9.7566464071261088e-09  -9.7567796334748134e-09  -9.5144299777256902e-09  -9.5141662759436705e-09  -9.7565667909854520e-09  -9.7564137363052873e-09  -9.7563794304744091e-09  -9.7563408173898686e-09  -9.7562925908165668e-09  -9.7562359767174339e-09  -9.7561727302952851e-09  -9.7561047628470985e-09  -9.7560340477595432e-09  -9.7559625416844925e-09  -9.7558921184367095e-09  -9.7558245181805581e-09  -9.7557613127692002e-09  -9.7557038856728427e-09  -9.7556534235174001e-09  -9.7556109157713480e-09  -9.7555771591935416e-09  -9.7555527643713222e-09  -9.7555381623128306e-09  -9.7555336097644718e-09  -9.7555391925124440e-09  -9.7555548262213261e-09  -9.7555802547188346e-09  -9.7556150458241081e-09  -9.7556585851162565e-09  -9.7557100685106833e-09  -9.7557684951001746e-09  -9.7558326624786368e-09  -9.7559011675633611e-09  -9.7559724164381311e-09  -9.7560446467878922e-09  -9.7561159656745461e-09  -9.7561844036890310e-09  -9.7562479837945436e-09  -9.7563048023457479e-09  -9.7563531262425248e-09  -9.7563918506071156e-09  -9.7564273656802487e-09  -9.7565906192765735e-09  -9.5142698113429176e-09  -9.5139573793208450e-09  -9.7563376398245178e-09  -9.7561503683707969e-09  -9.7561130887579714e-09  -9.7560729717831073e-09  -9.7560233606281656e-09  -9.7559656638482438e-09  -9.7559018520165348e-09  -9.7558339854854567e-09  -9.7557641036594742e-09  -9.7556941458714464e-09  -9.7556258959291097e-09  -9.7555609486959362e-09  -9.7555006955640664e-09  -9.7554463240533653e-09  -9.7553988264045151e-09  -9.7553590126933981e-09  -9.7553275249511824e-09  -9.7553048500329324e-09  -9.7552913300015337e-09  -9.7552871694469617e-09  -9.7552924397002581e-09  -9.7553070799186742e-09  -9.7553308950503795e-09  -9.7553635505660724e-09  -9.7554045638296734e-09  -9.7554532922218446e-09  -9.7555089186463968e-09  -9.7555704359936065e-09  -9.7556366333169836e-09  -9.7557060877633621e-09  -9.7557771672396176e-09  -9.7558480490375822e-09  -9.7559167587577488e-09  -9.7559812315105277e-09  -9.7560393964730846e-09  -9.7560892943058691e-09  -9.7561296496884215e-09  -9.7561683879054074e-09  -9.7563674127514436e-09  -9.5140807199715423e-09  -9.5137121872828087e-09  -9.7560678382513841e-09  -9.7558395603664234e-09  -9.7557978716144154e-09  -9.7557549519169004e-09  -9.7557027436332439e-09  -9.7556430359589360e-09  -9.7555781586914714e-09  -9.7555103848109945e-09  -9.7554418084242544e-09  -9.7553742831549835e-09  -9.7553093995958310e-09  -9.7552484902091910e-09  -9.7551926511828299e-09  -9.7551427722051709e-09  -9.7550995673562723e-09  -9.7550636028337611e-09  -9.7550353193036311e-09  -9.7550150483409116e-09  -9.7550030235281959e-09  -9.7549993871927941e-09  -9.7550041938647915e-09  -9.7550174111556432e-09  -9.7550389182082863e-09  -9.7550685012895967e-09  -9.7551058455193994e-09  -9.7551505215261482e-09  -9.7552019659547732e-09  -9.7552594556144151e-09  -9.7553220765032155e-09  -9.7553886909995571e-09  -9.7554579089232331e-09  -9.7555280702992264e-09  -9.7555972489739532e-09  -9.7556632861220286e-09  -9.7557238635576543e-09  -9.7557766393199706e-09  -9.7558199644155904e-09  -9.7558633748932859e-09  -9.7561050310740739e-09  -9.5138585530725314e-09  -9.5134262455668561e-09  -9.7557518676871358e-09  -9.7554742244394310e-09  -9.7554256054131381e-09  -9.7553774355806032e-09  -9.7553203987870272e-09  -9.7552570331785746e-09  -9.7551902545669673e-09  -9.7551226112640738e-09  -9.7550561799271456e-09  -9.7549925684846466e-09  -9.7549329738849821e-09  -9.7548782629208378e-09  -9.7548290548505321e-09  -9.7547857934183405e-09  -9.7547488028786808e-09  -9.7547183272617602e-09  -9.7546945548750813e-09  -9.7546776313822879e-09  -9.7546676652527500e-09  -9.7546647290084012e-09  -9.7546688589690166e-09  -9.7546800551186301e-09  -9.7546982814850229e-09  -9.7547234661495739e-09  -9.7547554987287344e-09  -9.7547942221249697e-09  -9.7548394146525537e-09  -9.7548907587509962e-09  -9.7549477935618037e-09  -9.7550098513755990e-09  -9.7550759818517878e-09  -9.7551448723952775e-09  -9.7552147791865072e-09  -9.7552834899709824e-09  -9.7553483455419909e-09  -9.7554063701198747e-09  -9.7554551581569941e-09  -9.7555057380028853e-09  -9.7557983214346022e-09  -9.5135990222242763e-09  -9.5130959776197001e-09  -9.7553846588730387e-09  -9.7550470548388143e-09  -9.7549868909287646e-09  -9.7549288403387918e-09  -9.7548628983667431e-09  -9.7547930195895929e-09  -9.7547230344769406e-09  -9.7546557685719970e-09  -9.7545930512288832e-09  -9.7545358943302026e-09  -9.7544847237177644e-09  -9.7544395974545125e-09  -9.7544003798738134e-09  -9.7543668636697431e-09  -9.7543388449433180e-09  -9.7543161611724207e-09  -9.7542987030367075e-09  -9.7542864102797072e-09  -9.7542792601763925e-09  -9.7542772551682351e-09  -9.7542804142121120e-09  -9.7542887703998532e-09  -9.7543023755022120e-09  -9.7543213101388544e-09  -9.7543456962209032e-09  -9.7543757060677237e-09  -9.7544115603044144e-09  -9.7544535046395881e-09  -9.7545017552917981e-09  -9.7545564053289369e-09  -9.7546172861090806e-09  -9.7546837871085693e-09  -9.7547546523128573e-09  -9.7548277876014577e-09  -9.7549001321993056e-09  -9.7549677013272824e-09  -9.7550266314293615e-09  -9.7550888842707228e-09  -9.7554426338485541e-09  -9.5132982518014262e-09  -9.5127204834168460e-09  -9.7549630908652742e-09  -9.7545514494637178e-09  -9.7544709785561669e-09  -9.7543942364927130e-09  -9.7543120018956889e-09  -9.7542308067359253e-09  -9.7541557853015325e-09  -9.7540898029211847e-09  -9.7540338363986320e-09  -9.7539875717570994e-09  -9.7539499780367812e-09  -9.7539197487559213e-09  -9.7538955907263432e-09  -9.7538763836964996e-09  -9.7538612461912837e-09  -9.7538495401980256e-09  -9.7538408408826091e-09  -9.7538348911005271e-09  -9.7538315549176674e-09  -9.7538307796302984e-09  -9.7538325721093098e-09  -9.7538369924660143e-09  -9.7538441658163335e-09  -9.7538543108507988e-09  -9.7538677813118361e-09  -9.7538851128617790e-09  -9.7539070629125824e-09  -9.7539346250629901e-09  -9.7539689962684188e-09  -9.7540114692121304e-09  -9.7540632235822785e-09  -9.7541250098124095e-09  -9.7541967168324131e-09  -9.7542768556221007e-09  -9.7543620803474282e-09  -9.7544469340097586e-09  -9.7545248728632327e-09  -9.7546072724555003e-09  -9.7550352804292856e-09  -9.5129539656570764e-09  -9.5123054003953303e-09  -9.7544891912745395e-09  -9.7539833442821782e-09  -9.7538653597300496e-09  -9.7537530681081870e-09  -9.7536413222272966e-09  -9.7535410896306873e-09  -9.7534589952237885e-09  -9.7533969973144727e-09  -9.7533537747781299e-09  -9.7533262376338106e-09  -9.7533107112073009e-09  -9.7533036793419258e-09  -9.7533021595080450e-09  -9.7533038317542202e-09  -9.7533070223444479e-09  -9.7533106110156596e-09  -9.7533139075526293e-09  -9.7533165275461117e-09  -9.7533182856584470e-09  -9.7533191164880858e-09  -9.7533190278428966e-09  -9.7533180883650299e-09  -9.7533164500947822e-09  -9.7533144055975170e-09  -9.7533124771260176e-09  -9.7533115313146341e-09  -9.7533129051737486e-09  -9.7533185157560589e-09  -9.7533309095902453e-09  -9.7533531893310061e-09  -9.7533887937447059e-09  -9.7534410307802588e-09  -9.7535122441054928e-09  -9.7536027067462848e-09  -9.7537095061187320e-09  -9.7538254602906784e-09  -9.7539393725181034e-09  -9.7540584972551381e-09  -9.7545785960127413e-09  -9.5125679907701981e-09  -9.5118713178565346e-09  -9.7539765665527617e-09  -9.7533442962504419e-09  -9.7531539082922581e-09  -9.7529737742876925e-09  -9.7528094260836386e-09  -9.7526787241476138e-09  -9.7525888449450300e-09  -9.7525380390069009e-09  -9.7525194662605390e-09  -9.7525245317763553e-09  -9.7525450081494598e-09  -9.7525740182835581e-09  -9.7526063029175752e-09  -9.7526381328038326e-09  -9.7526670637368597e-09  -9.75269