<?xml version="1.0"?>
<VTKFile type="UnstructuredGrid"  version="0.1"  >
<UnstructuredGrid>
<Piece  NumberOfPoints="1681" NumberOfCells="3200">
<Points>
<DataArray  type="Float64"  NumberOfComponents="3"  format="ascii">0 0 0  0.025 0 0  0.05 0 0  0.075 0 0  0.1 0 0  0.125 0 0  0.15 0 0  0.175 0 0  0.2 0 0  0.225 0 0  0.25 0 0  0.275 0 0  0.3 0 0  0.325 0 0  0.35 0 0  0.375 0 0  0.4 0 0  0.425 0 0  0.45 0 0  0.475 0 0  0.5 0 0  0.525 0 0  0.55 0 0  0.575 0 0  0.6 0 0  0.625 0 0  0.65 0 0  0.675 0 0  0.7 0 0  0.725 0 0  0.75 0 0  0.775 0 0  0.8 0 0  0.825 0 0  0.85 0 0  0.875 0 0  0.9 0 0  0.925 0 0  0.95 0 0  0.975 0 0  1 0 0  0 0.025 0  0.025 0.025 0  0.05 0.025 0  0.075 0.025 0  0.1 0.025 0  0.125 0.025 0  0.15 0.025 0  0.175 0.025 0  0.2 0.025 0  0.225 0.025 0  0.25 0.025 0  0.275 0.025 0  0.3 0.025 0  0.325 0.025 0  0.35 0.025 0  0.375 0.025 0  0.4 0.025 0  0.425 0.025 0  0.45 0.025 0  0.475 0.025 0  0.5 0.025 0  0.525 0.025 0  0.55 0.025 0  0.575 0.025 0  0.6 0.025 0  0.625 0.025 0  0.65 0.025 0  0.675 0.025 0  0.7 0.025 0  0.725 0.025 0  0.75 0.025 0  0.775 0.025 0  0.8 0.025 0  0.825 0.025 0  0.85 0.025 0  0.875 0.025 0  0.9 0.025 0  0.925 0.025 0  0.95 0.025 0  0.975 0.025 0  1 0.025 0  0 0.05 0  0.025 0.05 0  0.05 0.05 0  0.075 0.05 0  0.1 0.05 0  0.125 0.05 0  0.15 0.05 0  0.175 0.05 0  0.2 0.05 0  0.225 0.05 0  0.25 0.05 0  0.275 0.05 0  0.3 0.05 0  0.325 0.05 0  0.35 0.05 0  0.375 0.05 0  0.4 0.05 0  0.425 0.05 0  0.45 0.05 0  0.475 0.05 0  0.5 0.05 0  0.525 0.05 0  0.55 0.05 0  0.575 0.05 0  0.6 0.05 0  0.625 0.05 0  0.65 0.05 0  0.675 0.05 0  0.7 0.05 0  0.725 0.05 0  0.75 0.05 0  0.775 0.05 0  0.8 0.05 0  0.825 0.05 0  0.85 0.05 0  0.875 0.05 0  0.9 0.05 0  0.925 0.05 0  0.95 0.05 0  0.975 0.05 0  1 0.05 0  0 0.075 0  0.025 0.075 0  0.05 0.075 0  0.075 0.075 0  0.1 0.075 0  0.125 0.075 0  0.15 0.075 0  0.175 0.075 0  0.2 0.075 0  0.225 0.075 0  0.25 0.075 0  0.275 0.075 0  0.3 0.075 0  0.325 0.075 0  0.35 0.075 0  0.375 0.075 0  0.4 0.075 0  0.425 0.075 0  0.45 0.075 0  0.475 0.075 0  0.5 0.075 0  0.525 0.075 0  0.55 0.075 0  0.575 0.075 0  0.6 0.075 0  0.625 0.075 0  0.65 0.075 0  0.675 0.075 0  0.7 0.075 0  0.725 0.075 0  0.75 0.075 0  0.775 0.075 0  0.8 0.075 0  0.825 0.075 0  0.85 0.075 0  0.875 0.075 0  0.9 0.075 0  0.925 0.075 0  0.95 0.075 0  0.975 0.075 0  1 0.075 0  0 0.1 0  0.025 0.1 0  0.05 0.1 0  0.075 0.1 0  0.1 0.1 0  0.125 0.1 0  0.15 0.1 0  0.175 0.1 0  0.2 0.1 0  0.225 0.1 0  0.25 0.1 0  0.275 0.1 0  0.3 0.1 0  0.325 0.1 0  0.35 0.1 0  0.375 0.1 0  0.4 0.1 0  0.425 0.1 0  0.45 0.1 0  0.475 0.1 0  0.5 0.1 0  0.525 0.1 0  0.55 0.1 0  0.575 0.1 0  0.6 0.1 0  0.625 0.1 0  0.65 0.1 0  0.675 0.1 0  0.7 0.1 0  0.725 0.1 0  0.75 0.1 0  0.775 0.1 0  0.8 0.1 0  0.825 0.1 0  0.85 0.1 0  0.875 0.1 0  0.9 0.1 0  0.925 0.1 0  0.95 0.1 0  0.975 0.1 0  1 0.1 0  0 0.125 0  0.025 0.125 0  0.05 0.125 0  0.075 0.125 0  0.1 0.125 0  0.125 0.125 0  0.15 0.125 0  0.175 0.125 0  0.2 0.125 0  0.225 0.125 0  0.25 0.125 0  0.275 0.125 0  0.3 0.125 0  0.325 0.125 0  0.35 0.125 0  0.375 0.125 0  0.4 0.125 0  0.425 0.125 0  0.45 0.125 0  0.475 0.125 0  0.5 0.125 0  0.525 0.125 0  0.55 0.125 0  0.575 0.125 0  0.6 0.125 0  0.625 0.125 0  0.65 0.125 0  0.675 0.125 0  0.7 0.125 0  0.725 0.125 0  0.75 0.125 0  0.775 0.125 0  0.8 0.125 0  0.825 0.125 0  0.85 0.125 0  0.875 0.125 0  0.9 0.125 0  0.925 0.125 0  0.95 0.125 0  0.975 0.125 0  1 0.125 0  0 0.15 0  0.025 0.15 0  0.05 0.15 0  0.075 0.15 0  0.1 0.15 0  0.125 0.15 0  0.15 0.15 0  0.175 0.15 0  0.2 0.15 0  0.225 0.15 0  0.25 0.15 0  0.275 0.15 0  0.3 0.15 0  0.325 0.15 0  0.35 0.15 0  0.375 0.15 0  0.4 0.15 0  0.425 0.15 0  0.45 0.15 0  0.475 0.15 0  0.5 0.15 0  0.525 0.15 0  0.55 0.15 0  0.575 0.15 0  0.6 0.15 0  0.625 0.15 0  0.65 0.15 0  0.675 0.15 0  0.7 0.15 0  0.725 0.15 0  0.75 0.15 0  0.775 0.15 0  0.8 0.15 0  0.825 0.15 0  0.85 0.15 0  0.875 0.15 0  0.9 0.15 0  0.925 0.15 0  0.95 0.15 0  0.975 0.15 0  1 0.15 0  0 0.175 0  0.025 0.175 0  0.05 0.175 0  0.075 0.175 0  0.1 0.175 0  0.125 0.175 0  0.15 0.175 0  0.175 0.175 0  0.2 0.175 0  0.225 0.175 0  0.25 0.175 0  0.275 0.175 0  0.3 0.175 0  0.325 0.175 0  0.35 0.175 0  0.375 0.175 0  0.4 0.175 0  0.425 0.175 0  0.45 0.175 0  0.475 0.175 0  0.5 0.175 0  0.525 0.175 0  0.55 0.175 0  0.575 0.175 0  0.6 0.175 0  0.625 0.175 0  0.65 0.175 0  0.675 0.175 0  0.7 0.175 0  0.725 0.175 0  0.75 0.175 0  0.775 0.175 0  0.8 0.175 0  0.825 0.175 0  0.85 0.175 0  0.875 0.175 0  0.9 0.175 0  0.925 0.175 0  0.95 0.175 0  0.975 0.175 0  1 0.175 0  0 0.2 0  0.025 0.2 0  0.05 0.2 0  0.075 0.2 0  0.1 0.2 0  0.125 0.2 0  0.15 0.2 0  0.175 0.2 0  0.2 0.2 0  0.225 0.2 0  0.25 0.2 0  0.275 0.2 0  0.3 0.2 0  0.325 0.2 0  0.35 0.2 0  0.375 0.2 0  0.4 0.2 0  0.425 0.2 0  0.45 0.2 0  0.475 0.2 0  0.5 0.2 0  0.525 0.2 0  0.55 0.2 0  0.575 0.2 0  0.6 0.2 0  0.625 0.2 0  0.65 0.2 0  0.675 0.2 0  0.7 0.2 0  0.725 0.2 0  0.75 0.2 0  0.775 0.2 0  0.8 0.2 0  0.825 0.2 0  0.85 0.2 0  0.875 0.2 0  0.9 0.2 0  0.925 0.2 0  0.95 0.2 0  0.975 0.2 0  1 0.2 0  0 0.225 0  0.025 0.225 0  0.05 0.225 0  0.075 0.225 0  0.1 0.225 0  0.125 0.225 0  0.15 0.225 0  0.175 0.225 0  0.2 0.225 0  0.225 0.225 0  0.25 0.225 0  0.275 0.225 0  0.3 0.225 0  0.325 0.225 0  0.35 0.225 0  0.375 0.225 0  0.4 0.225 0  0.425 0.225 0  0.45 0.225 0  0.475 0.225 0  0.5 0.225 0  0.525 0.225 0  0.55 0.225 0  0.575 0.225 0  0.6 0.225 0  0.625 0.225 0  0.65 0.225 0  0.675 0.225 0  0.7 0.225 0  0.725 0.225 0  0.75 0.225 0  0.775 0.225 0  0.8 0.225 0  0.825 0.225 0  0.85 0.225 0  0.875 0.225 0  0.9 0.225 0  0.925 0.225 0  0.95 0.225 0  0.975 0.225 0  1 0.225 0  0 0.25 0  0.025 0.25 0  0.05 0.25 0  0.075 0.25 0  0.1 0.25 0  0.125 0.25 0  0.15 0.25 0  0.175 0.25 0  0.2 0.25 0  0.225 0.25 0  0.25 0.25 0  0.275 0.25 0  0.3 0.25 0  0.325 0.25 0  0.35 0.25 0  0.375 0.25 0  0.4 0.25 0  0.425 0.25 0  0.45 0.25 0  0.475 0.25 0  0.5 0.25 0  0.525 0.25 0  0.55 0.25 0  0.575 0.25 0  0.6 0.25 0  0.625 0.25 0  0.65 0.25 0  0.675 0.25 0  0.7 0.25 0  0.725 0.25 0  0.75 0.25 0  0.775 0.25 0  0.8 0.25 0  0.825 0.25 0  0.85 0.25 0  0.875 0.25 0  0.9 0.25 0  0.925 0.25 0  0.95 0.25 0  0.975 0.25 0  1 0.25 0  0 0.275 0  0.025 0.275 0  0.05 0.275 0  0.075 0.275 0  0.1 0.275 0  0.125 0.275 0  0.15 0.275 0  0.175 0.275 0  0.2 0.275 0  0.225 0.275 0  0.25 0.275 0  0.275 0.275 0  0.3 0.275 0  0.325 0.275 0  0.35 0.275 0  0.375 0.275 0  0.4 0.275 0  0.425 0.275 0  0.45 0.275 0  0.475 0.275 0  0.5 0.275 0  0.525 0.275 0  0.55 0.275 0  0.575 0.275 0  0.6 0.275 0  0.625 0.275 0  0.65 0.275 0  0.675 0.275 0  0.7 0.275 0  0.725 0.275 0  0.75 0.275 0  0.775 0.275 0  0.8 0.275 0  0.825 0.275 0  0.85 0.275 0  0.875 0.275 0  0.9 0.275 0  0.925 0.275 0  0.95 0.275 0  0.975 0.275 0  1 0.275 0  0 0.3 0  0.025 0.3 0  0.05 0.3 0  0.075 0.3 0  0.1 0.3 0  0.125 0.3 0  0.15 0.3 0  0.175 0.3 0  0.2 0.3 0  0.225 0.3 0  0.25 0.3 0  0.275 0.3 0  0.3 0.3 0  0.325 0.3 0  0.35 0.3 0  0.375 0.3 0  0.4 0.3 0  0.425 0.3 0  0.45 0.3 0  0.475 0.3 0  0.5 0.3 0  0.525 0.3 0  0.55 0.3 0  0.575 0.3 0  0.6 0.3 0  0.625 0.3 0  0.65 0.3 0  0.675 0.3 0  0.7 0.3 0  0.725 0.3 0  0.75 0.3 0  0.775 0.3 0  0.8 0.3 0  0.825 0.3 0  0.85 0.3 0  0.875 0.3 0  0.9 0.3 0  0.925 0.3 0  0.95 0.3 0  0.975 0.3 0  1 0.3 0  0 0.325 0  0.025 0.325 0  0.05 0.325 0  0.075 0.325 0  0.1 0.325 0  0.125 0.325 0  0.15 0.325 0  0.175 0.325 0  0.2 0.325 0  0.225 0.325 0  0.25 0.325 0  0.275 0.325 0  0.3 0.325 0  0.325 0.325 0  0.35 0.325 0  0.375 0.325 0  0.4 0.325 0  0.425 0.325 0  0.45 0.325 0  0.475 0.325 0  0.5 0.325 0  0.525 0.325 0  0.55 0.325 0  0.575 0.325 0  0.6 0.325 0  0.625 0.325 0  0.65 0.325 0  0.675 0.325 0  0.7 0.325 0  0.725 0.325 0  0.75 0.325 0  0.775 0.325 0  0.8 0.325 0  0.825 0.325 0  0.85 0.325 0  0.875 0.325 0  0.9 0.325 0  0.925 0.325 0  0.95 0.325 0  0.975 0.325 0  1 0.325 0  0 0.35 0  0.025 0.35 0  0.05 0.35 0  0.075 0.35 0  0.1 0.35 0  0.125 0.35 0  0.15 0.35 0  0.175 0.35 0  0.2 0.35 0  0.225 0.35 0  0.25 0.35 0  0.275 0.35 0  0.3 0.35 0  0.325 0.35 0  0.35 0.35 0  0.375 0.35 0  0.4 0.35 0  0.425 0.35 0  0.45 0.35 0  0.475 0.35 0  0.5 0.35 0  0.525 0.35 0  0.55 0.35 0  0.575 0.35 0  0.6 0.35 0  0.625 0.35 0  0.65 0.35 0  0.675 0.35 0  0.7 0.35 0  0.725 0.35 0  0.75 0.35 0  0.775 0.35 0  0.8 0.35 0  0.825 0.35 0  0.85 0.35 0  0.875 0.35 0  0.9 0.35 0  0.925 0.35 0  0.95 0.35 0  0.975 0.35 0  1 0.35 0  0 0.375 0  0.025 0.375 0  0.05 0.375 0  0.075 0.375 0  0.1 0.375 0  0.125 0.375 0  0.15 0.375 0  0.175 0.375 0  0.2 0.375 0  0.225 0.375 0  0.25 0.375 0  0.275 0.375 0  0.3 0.375 0  0.325 0.375 0  0.35 0.375 0  0.375 0.375 0  0.4 0.375 0  0.425 0.375 0  0.45 0.375 0  0.475 0.375 0  0.5 0.375 0  0.525 0.375 0  0.55 0.375 0  0.575 0.375 0  0.6 0.375 0  0.625 0.375 0  0.65 0.375 0  0.675 0.375 0  0.7 0.375 0  0.725 0.375 0  0.75 0.375 0  0.775 0.375 0  0.8 0.375 0  0.825 0.375 0  0.85 0.375 0  0.875 0.375 0  0.9 0.375 0  0.925 0.375 0  0.95 0.375 0  0.975 0.375 0  1 0.375 0  0 0.4 0  0.025 0.4 0  0.05 0.4 0  0.075 0.4 0  0.1 0.4 0  0.125 0.4 0  0.15 0.4 0  0.175 0.4 0  0.2 0.4 0  0.225 0.4 0  0.25 0.4 0  0.275 0.4 0  0.3 0.4 0  0.325 0.4 0  0.35 0.4 0  0.375 0.4 0  0.4 0.4 0  0.425 0.4 0  0.45 0.4 0  0.475 0.4 0  0.5 0.4 0  0.525 0.4 0  0.55 0.4 0  0.575 0.4 0  0.6 0.4 0  0.625 0.4 0  0.65 0.4 0  0.675 0.4 0  0.7 0.4 0  0.725 0.4 0  0.75 0.4 0  0.775 0.4 0  0.8 0.4 0  0.825 0.4 0  0.85 0.4 0  0.875 0.4 0  0.9 0.4 0  0.925 0.4 0  0.95 0.4 0  0.975 0.4 0  1 0.4 0  0 0.425 0  0.025 0.425 0  0.05 0.425 0  0.075 0.425 0  0.1 0.425 0  0.125 0.425 0  0.15 0.425 0  0.175 0.425 0  0.2 0.425 0  0.225 0.425 0  0.25 0.425 0  0.275 0.425 0  0.3 0.425 0  0.325 0.425 0  0.35 0.425 0  0.375 0.425 0  0.4 0.425 0  0.425 0.425 0  0.45 0.425 0  0.475 0.425 0  0.5 0.425 0  0.525 0.425 0  0.55 0.425 0  0.575 0.425 0  0.6 0.425 0  0.625 0.425 0  0.65 0.425 0  0.675 0.425 0  0.7 0.425 0  0.725 0.425 0  0.75 0.425 0  0.775 0.425 0  0.8 0.425 0  0.825 0.425 0  0.85 0.425 0  0.875 0.425 0  0.9 0.425 0  0.925 0.425 0  0.95 0.425 0  0.975 0.425 0  1 0.425 0  0 0.45 0  0.02
[...]
<PointData  Scalars="ControlVisualisation"> 
<DataArray  type="Float64"  Name="ControlVisualisation"  format="ascii">9.6716774294984473e-02  7.0945668373921147e-02  7.1424060232398043e-02  7.2233145563440307e-02  7.3227464735871814e-02  7.4268806905309542e-02  7.5253871140886719e-02  7.6124152900715503e-02  7.6857752232933826e-02  7.7456080204177505e-02  7.7932619636234990e-02  7.8305450822418618e-02  7.8593023126213551e-02  7.8812085918854607e-02  7.8976879535127748e-02  7.9098990078407594e-02  7.9187513031470674e-02  7.9249328421939977e-02  7.9289383962403440e-02  7.9310934949190601e-02  7.9315717392543852e-02  7.9304044624956910e-02  7.9274823938897926e-02  7.9225492651757115e-02  7.9151875230728211e-02  7.9047967336824579e-02  7.8905662052928274e-02  7.8714453607492657e-02  7.8461191767373623e-02  7.8130033374659957e-02  7.7702861695024453e-02  7.7160645428114016e-02  7.6486574612445790e-02  7.5671936153872715e-02  7.4726171648713591e-02  7.3690495928757607e-02  7.2650716844620905e-02  7.1736077435726159e-02  7.1096760620753208e-02  7.0828039640013912e-02  1.2650027281302187e-01  7.0948887711774211e-02  1.9238204728934546e-02  2.0964406158738860e-02  2.3942228550653324e-02  2.7930731640675922e-02  3.2480840089263226e-02  3.7131475567261520e-02  4.1522159454341200e-02  4.5431667061067611e-02  4.8765035568007924e-02  5.1516594819454253e-02  5.3732543861380461e-02  5.5482724270284348e-02  5.6842587792738070e-02  5.7883135091878264e-02  5.8666129873468476e-02  5.9242425614236566e-02  5.9651929084520772e-02  5.9924281493887822e-02  6.0079721035832069e-02  6.0129830943452318e-02  6.0078020034852922e-02  5.9919665643383094e-02  5.9641900672041129e-02  5.9223069636067910e-02  5.8631933520098975e-02  5.7826792488452308e-02  5.6754849518126774e-02  5.5352389760719864e-02  5.3546760629367265e-02  5.1261682539572660e-02  4.8428166093507100e-02  4.5003798314235482e-02  4.1002267854752458e-02  3.6533131915759742e-02  3.1837891544285714e-02  2.7302745776662460e-02  2.3407545688498982e-02  2.0598213178012012e-02  1.8960942051107432e-02  7.0828022171140148e-02  7.1478597079810663e-02  2.1133623413140207e-02  2.4302108685041408e-02  2.8921714659486723e-02  3.5161696099539258e-02  4.2351605764274929e-02  4.9751879077759992e-02  5.6770499757395385e-02  6.3038852623741579e-02  6.8394202875937171e-02  7.2820405842229319e-02  7.6387436757851937e-02  7.9205368602757245e-02  8.1394713359614346e-02  8.3069682660269262e-02  8.4330084763756932e-02  8.5258378135691648e-02  8.5919476223934615e-02  8.6361787171917948e-02  8.6618594097894797e-02  8.6709277146048133e-02  8.6640116388301894e-02  8.6404553695534500e-02  8.5982878205652452e-02  8.5341370447144696e-02  8.4431027897853811e-02  8.3186135264218142e-02  8.1523184648451930e-02  7.9341043647255027e-02  7.6523912457351392e-02  7.2949431632854028e-02  6.8505594214604892e-02  6.3120405708320781e-02  5.6808516470321077e-02  4.9733761267859486e-02  4.2266629688500139e-02  3.5019251055933009e-02  2.8749558163455612e-02  2.4129415705760437e-02  2.0706222595236218e-02  7.1108234061726727e-02  7.2550348278172513e-02  2.5062436035127790e-02  3.0454575982092648e-02  3.6154402809710703e-02  4.3224641325220144e-02  5.0857649237274732e-02  5.8306808352284981e-02  6.5092852838755350e-02  7.0981902018880480e-02  7.5914194367345714e-02  7.9935298110016539e-02  8.3144823073137433e-02  8.5662512455301293e-02  8.7607975903870414e-02  8.9089861490865466e-02  9.0201041994334652e-02  9.1017322164266432e-02  9.1597982840182529e-02  9.1987093161344319e-02  9.2214950281031299e-02  9.2299283660804310e-02  9.2246031083713362e-02  9.2049594865927176e-02  9.1692549116674640e-02  9.1144819246951711e-02  9.0362416583310359e-02  8.9285909471956595e-02  8.7838980844429149e-02  8.5927690796865117e-02  8.3441518618479427e-02  8.0257776489719865e-02  7.6252211335378892e-02  7.1318335834291438e-02  6.5402810194258781e-02  5.8554819617652562e-02  5.1000626406238259e-02  4.3233544753853236e-02  3.5992593035996424e-02  3.0158257937416021e-02  2.4234114118122652e-02  7.1858695723010541e-02  7.4288524852126656e-02  3.2092534101468596e-02  4.2422620710163436e-02  4.9720580293482947e-02  5.7184223702275827e-02  6.4211893082783286e-02  7.0398655586726228e-02  7.5620871901776077e-02  7.9912759679892600e-02  8.3372868209563314e-02  8.6119321194940368e-02  8.8269846342571692e-02  8.9932832814756447e-02  9.1203460418754448e-02  9.2162409424201494e-02  9.2876027590775900e-02  9.3397297418625597e-02  9.3767158485484933e-02  9.4015876792730060e-02  9.4164258018651609e-02  9.4224580647185655e-02  9.4201178730685370e-02  9.4090638903964727e-02  9.3881597523273672e-02  9.3554140549691051e-02  9.3078827842634285e-02  9.2415392774592070e-02  9.1511215743574167e-02  9.0299736130356301e-02  8.8699094046054403e-02  8.6611302228617182e-02  8.3922994642271528e-02  8.0507312639235509e-02  7.6234729255436090e-02  7.0981708696949475e-02  6.4700466193823733e-02  5.7471900493857558e-02  4.9707947973293212e-02  4.2208889228046047e-02  3.0932454663431988e-02  7.3225562724678728e-02  7.6565585109175077e-02  4.5512333624893410e-02  6.5839565949369669e-02  7.4474965139848998e-02  8.0243481063948172e-02  8.4377266616931956e-02  8.7335475999802223e-02  8.9460779237834243e-02  9.1009653095551854e-02  9.2153964117783205e-02  9.3006190975083239e-02  9.3641608700955684e-02  9.4113136054259000e-02  9.4459952629160002e-02  9.4712175680559604e-02  9.4893375560429982e-02  9.5021997408225548e-02  9.5112250094653808e-02  9.5174723436692268e-02  9.5216840642465564e-02  9.5243181964346280e-02  9.5255687285540264e-02  9.5253736079215293e-02  9.5234101117016370e-02  9.5190771208804717e-02  9.5114633651270472e-02  9.4992992164236234e-02  9.4808858360902262e-02  9.4539869665428808e-02  9.4156526625518655e-02  9.3619009888852925e-02  9.2871829270809447e-02  9.1832290017158896e-02  9.0377635066221040e-02  8.8301294379866446e-02  8.5333309090274811e-02  8.0963068174679451e-02  7.4767374986515256e-02  6.5622950862676124e-02  4.2774685906336311e-02  7.5150046117150954e-02  8.4502856466156351e-02  7.5902208333461285e-02  1.1201913888029572e-01  1.1600818646181339e-01  1.1458506103278097e-01  1.1181503317094604e-01  1.0884897457651178e-01  1.0613954267237292e-01  1.0384541839795658e-01  1.0198111058010036e-01  1.0050075072887708e-01  9.9340537469196188e-02  9.8438272044898065e-02  9.7740704153963284e-02  9.7205162432182704e-02  9.6798797531043312e-02  9.6497057619129703e-02  9.6282123641196510e-02  9.6141588378847342e-02  9.6067460540397734e-02  9.6055492400816914e-02  9.6104805889248898e-02  9.6217794866363102e-02  9.6400294909620390e-02  9.6662027753504395e-02  9.7017339031811214e-02  9.7486245616882114e-02  9.8095773253719099e-02  9.8881461319729705e-02  9.9888656161187583e-02  1.0117264434049433e-01  1.0279592072144858e-01  1.0481667160621211e-01  1.0726980620869550e-01  1.1009176092705523e-01  1.1310287245199049e-01  1.1559023378694669e-01  1.1681332190525237e-01  1.1216231611933830e-01  7.4547108549894492e-02  7.9750151019502613e-02  1.3872531377063485e-01  1.5479619257176902e-01  1.8507042314713124e-01  1.7191442913978777e-01  1.5716365279941469e-01  1.4379030948195187e-01  1.3270856261634126e-01  1.2390867008952633e-01  1.1708417526745818e-01  1.1185624141231895e-01  1.0787460864678412e-01  1.0485006497831975e-01  1.0255605878816042e-01  1.0081977175544622e-01  9.9511326404340891e-02  9.8534130323317287e-02  9.7817136495937582e-02  9.7308973931817394e-02  9.6973665703227435e-02  9.6787633285665989e-02  9.6737741177491177e-02  9.6820208882285388e-02  9.7040290157961395e-02  9.7412688452747517e-02  9.7962744445246830e-02  9.8728498996356634e-02  9.9763802573988383e-02  1.0114270030064720e-01  1.0296533958249733e-01  1.0536552331718636e-01  1.0851959515933067e-01  1.1265499568562114e-01  1.1805276347543847e-01  1.2503875872301945e-01  1.3390436443215892e-01  1.4488779169462887e-01  1.5763549055173570e-01  1.7272338980919033e-01  1.8246978609292644e-01  1.6853439140353804e-01  1.1639005154104765e-01  2.6174534707400721e-01  2.7559567139824348e-01  2.5816809884703157e-01  2.2625510030810397e-01  1.9794696088940220e-01  1.7397282682066928e-01  1.5479625190317653e-01  1.3999536522128603e-01  1.2881178711675753e-01  1.2043393060458576e-01  1.1416981468895017e-01  1.0948196139101637e-01  1.0596909752718915e-01  1.0333637666944731e-01  1.0136837529673728e-01  9.9908120088482211e-02  9.8841772232473091e-02  9.8087761173208318e-02  9.7589229123921969e-02  9.7308918694915481e-02  9.7225904386437301e-02  9.7333786962338187e-02  9.7640142858950160e-02  9.8167164915594726e-02  9.8953565455689785e-02  1.0005795593913193e-01  1.0156408518251105e-01  1.0358851990938468e-01  1.0629157033965513e-01  1.0989239753230257e-01  1.1468898916608859e-01  1.2108186977853586e-01  1.2959554089090444e-01  1.4087892040728683e-01  1.5562289976659976e-01  1.7448048938887550e-01  1.9746218652834771e-01  2.2687878196294198e-01  2.5454809884269319e-01  2.8337354005850129e-01  2.4372072716955417e-01  3.2632405714507473e-01  3.5545383497389882e-01  3.0601167037698429e-01  2.6372643316391176e-01  2.2621771222720860e-01  1.9529650559847161e-01  1.7049819664686566e-01  1.5137218290384347e-01  1.3701390327413787e-01  1.2634994413384251e-01  1.1844561482165607e-01  1.1257617574741603e-01  1.0820684116302617e-01  1.0495011126855330e-01  1.0252650196244414e-01  1.0073452196544189e-01  9.9429226117264263e-02  9.8507335583416678e-02  9.7897093474785535e-02  9.7551507263759912e-02  9.7444073185438448e-02  9.7566422334393582e-02  9.7927586067773298e-02  9.8554787382080011e-02  9.9495856814975830e-02  1.0082357925277650e-01  1.0264253340403739e-01  1.0509931631451813e-01  1.0839745115004268e-01  1.1281865249702228e-01  1.1875201546338601e-01  1.2673055414578707e-01  1.3746720918752026e-01  1.5185748282403011e-01  1.7088167630995499e-01  1.9537490901772697e-01  2.2554420418076704e-01  2.6450067645161729e-01  3.0777974906718691e-01  3.5539270574671755e-01  3.1977710557101169e-01  3.4149207503298606e-01  3.8395463228538590e-01  3.2577224574260333e-01  2.7799521008702655e-01  2.3631474605547048e-01  2.0323545690564185e-01  1.7649224567385496e-01  1.5575804397390114e-01  1.4015785036901351e-01  1.2857477471333542e-01  1.2000280692615740e-01  1.1365009197633950e-01  1.0893023877450669e-01  1.0541855050401490e-01  1.0280930086990982e-01  1.0088252718514681e-01  9.9480242084733925e-02  9.8489967730506667e-02  9.7833553130920417e-02  9.7459751444270423e-02  9.7339533283497787e-02  9.7463502335403115e-02  9.7841071302392460e-02  9.8501290625430268e-02  9.9495437203347595e-02  1.0090170403940088e-01  1.0283262400305011e-01  1.0544624820780031e-01  1.0896259506846952e-01  1.1368739180767885e-01  1.2004516189413768e-01  1.2862165946550724e-01  1.4020700227979721e-01  1.5580312818028622e-01  1.7651910592632591e-01  2.0322114513693418e-01  2.3624221445675384e-01  2.7791194237864913e-01  3.2586853009025396e-01  3.8403277840649519e-01  3.4149791641998378e-01  3.1955763422900374e-01  3.5637599760234862e-01  3.0972694316243160e-01  2.6644577639875500e-01  2.2711494317812442e-01  1.9653296153684882e-01  1.7165262752680865e-01  1.5229480582995725e-01  1.3763614556845302e-01  1.2669214997956024e-01  1.1855723195720155e-01  1.1250805554453011e-01  1.0800273106860787e-01  1.0464497208134826e-01  1.0214728596236329e-01  1.0030150151996327e-01  9.8957299095179418e-02  9.8007171709612692e-02  9.7376119533640906e-02  9.7014760659088609e-02  9.6894954715084053e-02  9.7007372490465330e-02  9.7360702849029285e-02  9.7982397490342904e-02  9.8921046745814700e-02  1.0025068916288633e-01  1.0207761864488508e-01  1.0455059922357886e-01  1.0787584336412312e-01  1.1233858175074979e-01  1.1833317641210812e-01  1.2640221835518001e-01  1.3727808241475684e-01  1.5189928219288404e-01  1.7133118941276082e-01  1.9645002765475733e-01  2.2767702057069480e-01  2.6549511610465698e-01  3.0795770316945176e-01  3.5649948033149198e-01  3.2633747742395403e-01  2.4349893356911984e-01  2.8548227637401014e-01  2.5871846086732248e-01  2.3073208305539436e-01  2.0048254383338582e-01  1.7668185558009139e-01  1.5708574372372724e-01  1.4171229452332709e-01  1.2991913081752315e-01  1.2100688751432311e-01  1.1430985729432126e-01  1.0928585384165949e-01  1.0551861093086254e-01  1.0269685176111090e-01  1.0059037949123660e-01  9.9029796332194053e-02  9.7891149639096148e-02  9.7084833082067751e-02  9.6547786290044457e-02  9.6238173104895797e-02  9.6131945517272110e-02  9.6220908353589138e-02  9.6512070084739596e-02  9.7028208152141956e-02  9.7809711105578054e-02  9.8917903955161021e-02  1.0044023775374016e-01  1.0249794801069614e-01  1.0525706110543108e-01  1.0894389828407261e-01  1.1386625475789407e-01  1.2044044084555910e-01  1.2922028465481561e-01  1.4091221432894940e-01  1.5633207849156536e-01  1.7621921243626584e-01  2.0095401878457508e-01  2.2999946884829883e-01  2.6215550589949621e-01  2.7790734382994187e-01  2.6168533667229593e-01  1.1718993719792947e-01  1.7318930455558693e-01  1.8877189581261616e-01  1.7821998363367339e-01  1.6181826731076623e-01  1.4785952568606123e-01  1.3583267653901840e-01  1.2609682007900253e-01  1.1840687864142493e-01  1.1245451224400739e-01  1.0789227728327527e-01  1.0441729860643570e-01  1.0178201523281107e-01  9.9792263699906028e-02  9.8298814368245183e-02  9.7188431837390482e-02  9.6376234224534424e-02  9.5799689252282522e-02  9.5414130361714242e-02  9.5189554071130694e-02  9.5108480128399453e-02  9.5164714059457797e-02  9.5362915806252835e-02  9.5718940278925066e-02  9.6260976451484154e-02  9.7031575047674332e-02  9.8090723687118325e-02  9.9520201608450903e-02  1.0142950580405213e-01  1.0396363057886050e-01  1.0731274382484604e-01  1.1172292834574794e-01  1.1750474878488458e-01  1.2503032329297065e-01  1.3469746279534534e-01  1.4682289213248195e-01  1.6141029131636486e-01  1.7744513406446311e-01  1.9139009030952772e-01  1.5942829917852408e-01  1.3923829658976755e-01  8.0664948895507238e-02  7.9521379238145729e-02  1.1920099027848097e-01  1.2288177251915457e-01  1.2020632958317778e-01  1.1634829443408010e-01  1.1214433506322809e-01  1.0831456716459129e-01  1.0503232822868863e-01  1.0234798416130136e-01  1.0020856622925392e-01  9.8535177782039671e-02  9.7243918753576838e-02  9.6258818934347443e-02  9.5515546057950484e-02  9.4961870727614389e-02  9.4556680848606300e-02  9.4268575848803063e-02  9.4074498110459065e-02  9.3958592576478234e-02  9.3911366817866840e-02  9.3929171999679428e-02  9.4014007201477554e-02  9.4173645823394547e-02  9.4422083669243942e-02  9.4780306320644672e-02  9.5277359641821616e-02  9.5951667970508692e-02  9.6852450396904904e-02  9.8040881839691160e-02  9.9590223684618673e-02  1.0158329823737769e-01  1.0410404467644661e-01  1.0721681289180963e-01  1.1092288228771462e-01  1.1507580663958721e-01  1.1922306006348417e-01  1.2210792722055902e-01  1.1904376405660808e-01  8.0639302637995278e-02  8.5345838298051174e-02  7.5945284514058617e-02  4.6373969300587028e-02  7.1348715244200583e-02  8.0012511617399154e-02  8.5122375140513171e-02  8.8290789468541062e-02  9.0110439689479557e-02  9.1156905753646517e-02  9.1730544416550847e-02  9.2048432827706472e-02  9.2228972057371794e-02  9.2340234411098232e-02  9.2417292704574161e-02  9.2477371072374151e-02  9.2527802667088141e-02  9.2570842746278970e-02  9.2606297402041127e-02  9.2632945460696531e-02  9.2649274154814734e-02  9.2653839723118581e-02  9.2645428983047284e-02  9.2623118178394068e-02  9.2586277189327618e-02  9.2534535218236652e-02  9.2467697812759264e-02  9.2385574755523447e-02  9.2287634505091379e-02  9.2172329365251326e-02  9.2035816914874377e-02  9.1869608687141058e-02  9.1656374831210793e-02  9.1362697328063361e-02  9.0927071328266038e-02  9.0241199671654407e-02  8.9124080504500838e-02  8.7292686823278842e-02  8.4347737159359781e-02  7.9673021695609775e-02  7.1506798720105125e-02  4.9168697524800076e-02  7.7363280559622938e-02  7.3902750260587263e-02  3.3565706553055623e-02  4.6226689741697372e-02  5.3561605117957448e-02  6.0672041897610170e-02  6.6997098065072022e-02  7.2286638290809196e-02  7.6574306372176187e-02  7.9984080305947253e-02  8.2680783052202042e-02  8.4806429262141519e-02  8.6480096349008773e-02  8.7795505163866583e-02  8.8825799902753119e-02  8.9627389776205768e-02  9.0243498065662522e-02  9.0706867843636019e-02  9.1041814485709138e-02  9.1265729183244396e-02  9.1390146459122440e-02  9.1421454648808020e-02  9.1361302613821110e-02  9.1206734141896881e-02  9.0950064021669025e-02  9.0578493858094619e-02  9.0073449674315534e-02  8.9409604874060661e-02  8.8553530025259286e-02  8.7461888023758372e-02  8.6079083882457122e-02  8.4334332797112430e-02  8.2138363595093092e-02  7.9380778680295763e-02  7.5931087809166672e-02  7.1651230933017632e-02  6.6435268929058294e-02  6.0301926889331725e-02  5.3509560710714464e-02  4.6408802233624043e-02  3.4791708946072752e-02  7.5020147668863280e-02  7.2374892035116184e-02  2.6043742013793350e-02  3.2772934323073127e-02  3.8564230001375030e-02  4.5437539223365402e-02  5.2581656755972948e-02  5.9370171296787587e-02  6.5431895311072782e-02  7.0637202853904943e-02  7.4992931838327836e-02  7.8571143707174385e-02  8.1470808547072823e-02  8.3794005918884126e-02  8.5635521229260395e-02  8.7077964482965148e-02  8.8190415780077525e-02  8.9028641069232126e-02  8.9636035536072661e-02  9.0044761742073653e-02  9.0276808303622849e-02  9.0344818976482916e-02  9.0252617681376504e-02  8.9995397471821156e-02  8.9559569137898504e-02  8.8922288162770063e-02  8.8050707176766441e-02  8.6901045154945372e-02  8.5417638937442086e-02  8.3532270608995457e-02  8.1164287217578207e-02  7.8222427235936018e-02  7.4609984689878922e-02  7.0236204384709913e-02  6.5038753391958803e-02  5.9024641757066960e-02  5.2335890814039485e-02  4.5337506441075925e-02  3.8673367308376207e-02  3.3076633551536526e-02  2.6971806155792546e-02  7.3152417895164662e-02  7.1433639065759821e-02  2.1824583616992937e-02  2.5719261541986380e-02  3.0401266895562502e-02  3.6607268149814264e-02  4.3679232948677336e-02  5.0920281859892086e-02  5.7796198204246023e-02  6.3994123703274286e-02  6.9373961027496822e-02  7.3916271082835938e-02  7.7671382195271643e-02  8.0723244237292588e-02  8.3166621743453253e-02  8.5093620414084886e-02  8.6586684418890156e-02  8.7715447101179747e-02  8.8535805071742968e-02  8.9090109840614343e-02  8.9407803770510330e-02  8.9506094874075764e-02  8.9390443386324681e-02  8.9054748262991368e-02  8.8481203815990617e-02  8.7639868671657739e-02  8.6488071504911571e-02  8.4969893085240986e-02  8.3016138233254502e-02  8.0545476859524678e-02  7.7467825906493051e-02  7.3691610479221320e-02  6.9137262542911221e-02  6.3760055636834317e-02  5.7585430190333645e-02  5.0757591261610974e-02  4.3592445815982581e-02  3.6609840189020575e-02  3.0486487173317887e-02  2.5876613580605425e-02  2.2339819544715422e-02  7.1913454832289864e-02  7.0948630461273171e-02  1.9634192236414931e-02  2.2180794065616960e-02  2.6307415654126719e-02  3.2062764289477422e-02  3.8909176116298620e-02  4.6208024923760277e-02  5.3390406573018953e-02  6.0053067958611081e-02  6.5967335409245653e-02  7.1046705279323275e-02  7.5299409135145601e-02  7.8788069201993188e-02  8.1600111940910186e-02  8.3828685281928911e-02  8.5561515745876782e-02  8.6875080178094963e-02  8.7832064965332107e-02  8.8480656269510835e-02  8.8854710443416210e-02  8.8974209955703792e-02  8.8845658716724493e-02  8.8462240426715757e-02  8.7803688084681059e-02  8.6835923518786301e-02  8.5510650474318425e-02  8.3765253528918684e-02  8.1523600347107150e-02  7.8698697459888806e-02  7.5198628277759569e-02  7.0937789449930608e-02  6.5855917843308520e-02  5.9947388784496354e-02  5.3301258976104757e-02  4.6146679163509355e-02  3.8885376048867736e-02  3.2079666283374914e-02  2.6355767027535615e-02  2.2250267922241253e-02  1.9867682553986320e-02  7.1178242421989418e-02  7.0866311670349708e-02  1.9021040403219565e-02  2.1121567001216403e-02  2.5077976819198759e-02  3.0671247421790615e-02  3.7408304134879521e-02  4.4685394866649450e-02  5.1932194446793707e-02  5.872169709