<?xml version="1.0"?>
<VTKFile type="UnstructuredGrid"  version="0.1"  >
<UnstructuredGrid>
<Piece  NumberOfPoints="1681" NumberOfCells="3200">
<Points>
<DataArray  type="Float64"  NumberOfComponents="3"  format="ascii">0 0 0  0.025 0 0  0.05 0 0  0.075 0 0  0.1 0 0  0.125 0 0  0.15 0 0  0.175 0 0  0.2 0 0  0.225 0 0  0.25 0 0  0.275 0 0  0.3 0 0  0.325 0 0  0.35 0 0  0.375 0 0  0.4 0 0  0.425 0 0  0.45 0 0  0.475 0 0  0.5 0 0  0.525 0 0  0.55 0 0  0.575 0 0  0.6 0 0  0.625 0 0  0.65 0 0  0.675 0 0  0.7 0 0  0.725 0 0  0.75 0 0  0.775 0 0  0.8 0 0  0.825 0 0  0.85 0 0  0.875 0 0  0.9 0 0  0.925 0 0  0.95 0 0  0.975 0 0  1 0 0  0 0.025 0  0.025 0.025 0  0.05 0.025 0  0.075 0.025 0  0.1 0.025 0  0.125 0.025 0  0.15 0.025 0  0.175 0.025 0  0.2 0.025 0  0.225 0.025 0  0.25 0.025 0  0.275 0.025 0  0.3 0.025 0  0.325 0.025 0  0.35 0.025 0  0.375 0.025 0  0.4 0.025 0  0.425 0.025 0  0.45 0.025 0  0.475 0.025 0  0.5 0.025 0  0.525 0.025 0  0.55 0.025 0  0.575 0.025 0  0.6 0.025 0  0.625 0.025 0  0.65 0.025 0  0.675 0.025 0  0.7 0.025 0  0.725 0.025 0  0.75 0.025 0  0.775 0.025 0  0.8 0.025 0  0.825 0.025 0  0.85 0.025 0  0.875 0.025 0  0.9 0.025 0  0.925 0.025 0  0.95 0.025 0  0.975 0.025 0  1 0.025 0  0 0.05 0  0.025 0.05 0  0.05 0.05 0  0.075 0.05 0  0.1 0.05 0  0.125 0.05 0  0.15 0.05 0  0.175 0.05 0  0.2 0.05 0  0.225 0.05 0  0.25 0.05 0  0.275 0.05 0  0.3 0.05 0  0.325 0.05 0  0.35 0.05 0  0.375 0.05 0  0.4 0.05 0  0.425 0.05 0  0.45 0.05 0  0.475 0.05 0  0.5 0.05 0  0.525 0.05 0  0.55 0.05 0  0.575 0.05 0  0.6 0.05 0  0.625 0.05 0  0.65 0.05 0  0.675 0.05 0  0.7 0.05 0  0.725 0.05 0  0.75 0.05 0  0.775 0.05 0  0.8 0.05 0  0.825 0.05 0  0.85 0.05 0  0.875 0.05 0  0.9 0.05 0  0.925 0.05 0  0.95 0.05 0  0.975 0.05 0  1 0.05 0  0 0.075 0  0.025 0.075 0  0.05 0.075 0  0.075 0.075 0  0.1 0.075 0  0.125 0.075 0  0.15 0.075 0  0.175 0.075 0  0.2 0.075 0  0.225 0.075 0  0.25 0.075 0  0.275 0.075 0  0.3 0.075 0  0.325 0.075 0  0.35 0.075 0  0.375 0.075 0  0.4 0.075 0  0.425 0.075 0  0.45 0.075 0  0.475 0.075 0  0.5 0.075 0  0.525 0.075 0  0.55 0.075 0  0.575 0.075 0  0.6 0.075 0  0.625 0.075 0  0.65 0.075 0  0.675 0.075 0  0.7 0.075 0  0.725 0.075 0  0.75 0.075 0  0.775 0.075 0  0.8 0.075 0  0.825 0.075 0  0.85 0.075 0  0.875 0.075 0  0.9 0.075 0  0.925 0.075 0  0.95 0.075 0  0.975 0.075 0  1 0.075 0  0 0.1 0  0.025 0.1 0  0.05 0.1 0  0.075 0.1 0  0.1 0.1 0  0.125 0.1 0  0.15 0.1 0  0.175 0.1 0  0.2 0.1 0  0.225 0.1 0  0.25 0.1 0  0.275 0.1 0  0.3 0.1 0  0.325 0.1 0  0.35 0.1 0  0.375 0.1 0  0.4 0.1 0  0.425 0.1 0  0.45 0.1 0  0.475 0.1 0  0.5 0.1 0  0.525 0.1 0  0.55 0.1 0  0.575 0.1 0  0.6 0.1 0  0.625 0.1 0  0.65 0.1 0  0.675 0.1 0  0.7 0.1 0  0.725 0.1 0  0.75 0.1 0  0.775 0.1 0  0.8 0.1 0  0.825 0.1 0  0.85 0.1 0  0.875 0.1 0  0.9 0.1 0  0.925 0.1 0  0.95 0.1 0  0.975 0.1 0  1 0.1 0  0 0.125 0  0.025 0.125 0  0.05 0.125 0  0.075 0.125 0  0.1 0.125 0  0.125 0.125 0  0.15 0.125 0  0.175 0.125 0  0.2 0.125 0  0.225 0.125 0  0.25 0.125 0  0.275 0.125 0  0.3 0.125 0  0.325 0.125 0  0.35 0.125 0  0.375 0.125 0  0.4 0.125 0  0.425 0.125 0  0.45 0.125 0  0.475 0.125 0  0.5 0.125 0  0.525 0.125 0  0.55 0.125 0  0.575 0.125 0  0.6 0.125 0  0.625 0.125 0  0.65 0.125 0  0.675 0.125 0  0.7 0.125 0  0.725 0.125 0  0.75 0.125 0  0.775 0.125 0  0.8 0.125 0  0.825 0.125 0  0.85 0.125 0  0.875 0.125 0  0.9 0.125 0  0.925 0.125 0  0.95 0.125 0  0.975 0.125 0  1 0.125 0  0 0.15 0  0.025 0.15 0  0.05 0.15 0  0.075 0.15 0  0.1 0.15 0  0.125 0.15 0  0.15 0.15 0  0.175 0.15 0  0.2 0.15 0  0.225 0.15 0  0.25 0.15 0  0.275 0.15 0  0.3 0.15 0  0.325 0.15 0  0.35 0.15 0  0.375 0.15 0  0.4 0.15 0  0.425 0.15 0  0.45 0.15 0  0.475 0.15 0  0.5 0.15 0  0.525 0.15 0  0.55 0.15 0  0.575 0.15 0  0.6 0.15 0  0.625 0.15 0  0.65 0.15 0  0.675 0.15 0  0.7 0.15 0  0.725 0.15 0  0.75 0.15 0  0.775 0.15 0  0.8 0.15 0  0.825 0.15 0  0.85 0.15 0  0.875 0.15 0  0.9 0.15 0  0.925 0.15 0  0.95 0.15 0  0.975 0.15 0  1 0.15 0  0 0.175 0  0.025 0.175 0  0.05 0.175 0  0.075 0.175 0  0.1 0.175 0  0.125 0.175 0  0.15 0.175 0  0.175 0.175 0  0.2 0.175 0  0.225 0.175 0  0.25 0.175 0  0.275 0.175 0  0.3 0.175 0  0.325 0.175 0  0.35 0.175 0  0.375 0.175 0  0.4 0.175 0  0.425 0.175 0  0.45 0.175 0  0.475 0.175 0  0.5 0.175 0  0.525 0.175 0  0.55 0.175 0  0.575 0.175 0  0.6 0.175 0  0.625 0.175 0  0.65 0.175 0  0.675 0.175 0  0.7 0.175 0  0.725 0.175 0  0.75 0.175 0  0.775 0.175 0  0.8 0.175 0  0.825 0.175 0  0.85 0.175 0  0.875 0.175 0  0.9 0.175 0  0.925 0.175 0  0.95 0.175 0  0.975 0.175 0  1 0.175 0  0 0.2 0  0.025 0.2 0  0.05 0.2 0  0.075 0.2 0  0.1 0.2 0  0.125 0.2 0  0.15 0.2 0  0.175 0.2 0  0.2 0.2 0  0.225 0.2 0  0.25 0.2 0  0.275 0.2 0  0.3 0.2 0  0.325 0.2 0  0.35 0.2 0  0.375 0.2 0  0.4 0.2 0  0.425 0.2 0  0.45 0.2 0  0.475 0.2 0  0.5 0.2 0  0.525 0.2 0  0.55 0.2 0  0.575 0.2 0  0.6 0.2 0  0.625 0.2 0  0.65 0.2 0  0.675 0.2 0  0.7 0.2 0  0.725 0.2 0  0.75 0.2 0  0.775 0.2 0  0.8 0.2 0  0.825 0.2 0  0.85 0.2 0  0.875 0.2 0  0.9 0.2 0  0.925 0.2 0  0.95 0.2 0  0.975 0.2 0  1 0.2 0  0 0.225 0  0.025 0.225 0  0.05 0.225 0  0.075 0.225 0  0.1 0.225 0  0.125 0.225 0  0.15 0.225 0  0.175 0.225 0  0.2 0.225 0  0.225 0.225 0  0.25 0.225 0  0.275 0.225 0  0.3 0.225 0  0.325 0.225 0  0.35 0.225 0  0.375 0.225 0  0.4 0.225 0  0.425 0.225 0  0.45 0.225 0  0.475 0.225 0  0.5 0.225 0  0.525 0.225 0  0.55 0.225 0  0.575 0.225 0  0.6 0.225 0  0.625 0.225 0  0.65 0.225 0  0.675 0.225 0  0.7 0.225 0  0.725 0.225 0  0.75 0.225 0  0.775 0.225 0  0.8 0.225 0  0.825 0.225 0  0.85 0.225 0  0.875 0.225 0  0.9 0.225 0  0.925 0.225 0  0.95 0.225 0  0.975 0.225 0  1 0.225 0  0 0.25 0  0.025 0.25 0  0.05 0.25 0  0.075 0.25 0  0.1 0.25 0  0.125 0.25 0  0.15 0.25 0  0.175 0.25 0  0.2 0.25 0  0.225 0.25 0  0.25 0.25 0  0.275 0.25 0  0.3 0.25 0  0.325 0.25 0  0.35 0.25 0  0.375 0.25 0  0.4 0.25 0  0.425 0.25 0  0.45 0.25 0  0.475 0.25 0  0.5 0.25 0  0.525 0.25 0  0.55 0.25 0  0.575 0.25 0  0.6 0.25 0  0.625 0.25 0  0.65 0.25 0  0.675 0.25 0  0.7 0.25 0  0.725 0.25 0  0.75 0.25 0  0.775 0.25 0  0.8 0.25 0  0.825 0.25 0  0.85 0.25 0  0.875 0.25 0  0.9 0.25 0  0.925 0.25 0  0.95 0.25 0  0.975 0.25 0  1 0.25 0  0 0.275 0  0.025 0.275 0  0.05 0.275 0  0.075 0.275 0  0.1 0.275 0  0.125 0.275 0  0.15 0.275 0  0.175 0.275 0  0.2 0.275 0  0.225 0.275 0  0.25 0.275 0  0.275 0.275 0  0.3 0.275 0  0.325 0.275 0  0.35 0.275 0  0.375 0.275 0  0.4 0.275 0  0.425 0.275 0  0.45 0.275 0  0.475 0.275 0  0.5 0.275 0  0.525 0.275 0  0.55 0.275 0  0.575 0.275 0  0.6 0.275 0  0.625 0.275 0  0.65 0.275 0  0.675 0.275 0  0.7 0.275 0  0.725 0.275 0  0.75 0.275 0  0.775 0.275 0  0.8 0.275 0  0.825 0.275 0  0.85 0.275 0  0.875 0.275 0  0.9 0.275 0  0.925 0.275 0  0.95 0.275 0  0.975 0.275 0  1 0.275 0  0 0.3 0  0.025 0.3 0  0.05 0.3 0  0.075 0.3 0  0.1 0.3 0  0.125 0.3 0  0.15 0.3 0  0.175 0.3 0  0.2 0.3 0  0.225 0.3 0  0.25 0.3 0  0.275 0.3 0  0.3 0.3 0  0.325 0.3 0  0.35 0.3 0  0.375 0.3 0  0.4 0.3 0  0.425 0.3 0  0.45 0.3 0  0.475 0.3 0  0.5 0.3 0  0.525 0.3 0  0.55 0.3 0  0.575 0.3 0  0.6 0.3 0  0.625 0.3 0  0.65 0.3 0  0.675 0.3 0  0.7 0.3 0  0.725 0.3 0  0.75 0.3 0  0.775 0.3 0  0.8 0.3 0  0.825 0.3 0  0.85 0.3 0  0.875 0.3 0  0.9 0.3 0  0.925 0.3 0  0.95 0.3 0  0.975 0.3 0  1 0.3 0  0 0.325 0  0.025 0.325 0  0.05 0.325 0  0.075 0.325 0  0.1 0.325 0  0.125 0.325 0  0.15 0.325 0  0.175 0.325 0  0.2 0.325 0  0.225 0.325 0  0.25 0.325 0  0.275 0.325 0  0.3 0.325 0  0.325 0.325 0  0.35 0.325 0  0.375 0.325 0  0.4 0.325 0  0.425 0.325 0  0.45 0.325 0  0.475 0.325 0  0.5 0.325 0  0.525 0.325 0  0.55 0.325 0  0.575 0.325 0  0.6 0.325 0  0.625 0.325 0  0.65 0.325 0  0.675 0.325 0  0.7 0.325 0  0.725 0.325 0  0.75 0.325 0  0.775 0.325 0  0.8 0.325 0  0.825 0.325 0  0.85 0.325 0  0.875 0.325 0  0.9 0.325 0  0.925 0.325 0  0.95 0.325 0  0.975 0.325 0  1 0.325 0  0 0.35 0  0.025 0.35 0  0.05 0.35 0  0.075 0.35 0  0.1 0.35 0  0.125 0.35 0  0.15 0.35 0  0.175 0.35 0  0.2 0.35 0  0.225 0.35 0  0.25 0.35 0  0.275 0.35 0  0.3 0.35 0  0.325 0.35 0  0.35 0.35 0  0.375 0.35 0  0.4 0.35 0  0.425 0.35 0  0.45 0.35 0  0.475 0.35 0  0.5 0.35 0  0.525 0.35 0  0.55 0.35 0  0.575 0.35 0  0.6 0.35 0  0.625 0.35 0  0.65 0.35 0  0.675 0.35 0  0.7 0.35 0  0.725 0.35 0  0.75 0.35 0  0.775 0.35 0  0.8 0.35 0  0.825 0.35 0  0.85 0.35 0  0.875 0.35 0  0.9 0.35 0  0.925 0.35 0  0.95 0.35 0  0.975 0.35 0  1 0.35 0  0 0.375 0  0.025 0.375 0  0.05 0.375 0  0.075 0.375 0  0.1 0.375 0  0.125 0.375 0  0.15 0.375 0  0.175 0.375 0  0.2 0.375 0  0.225 0.375 0  0.25 0.375 0  0.275 0.375 0  0.3 0.375 0  0.325 0.375 0  0.35 0.375 0  0.375 0.375 0  0.4 0.375 0  0.425 0.375 0  0.45 0.375 0  0.475 0.375 0  0.5 0.375 0  0.525 0.375 0  0.55 0.375 0  0.575 0.375 0  0.6 0.375 0  0.625 0.375 0  0.65 0.375 0  0.675 0.375 0  0.7 0.375 0  0.725 0.375 0  0.75 0.375 0  0.775 0.375 0  0.8 0.375 0  0.825 0.375 0  0.85 0.375 0  0.875 0.375 0  0.9 0.375 0  0.925 0.375 0  0.95 0.375 0  0.975 0.375 0  1 0.375 0  0 0.4 0  0.025 0.4 0  0.05 0.4 0  0.075 0.4 0  0.1 0.4 0  0.125 0.4 0  0.15 0.4 0  0.175 0.4 0  0.2 0.4 0  0.225 0.4 0  0.25 0.4 0  0.275 0.4 0  0.3 0.4 0  0.325 0.4 0  0.35 0.4 0  0.375 0.4 0  0.4 0.4 0  0.425 0.4 0  0.45 0.4 0  0.475 0.4 0  0.5 0.4 0  0.525 0.4 0  0.55 0.4 0  0.575 0.4 0  0.6 0.4 0  0.625 0.4 0  0.65 0.4 0  0.675 0.4 0  0.7 0.4 0  0.725 0.4 0  0.75 0.4 0  0.775 0.4 0  0.8 0.4 0  0.825 0.4 0  0.85 0.4 0  0.875 0.4 0  0.9 0.4 0  0.925 0.4 0  0.95 0.4 0  0.975 0.4 0  1 0.4 0  0 0.425 0  0.025 0.425 0  0.05 0.425 0  0.075 0.425 0  0.1 0.425 0  0.125 0.425 0  0.15 0.425 0  0.175 0.425 0  0.2 0.425 0  0.225 0.425 0  0.25 0.425 0  0.275 0.425 0  0.3 0.425 0  0.325 0.425 0  0.35 0.425 0  0.375 0.425 0  0.4 0.425 0  0.425 0.425 0  0.45 0.425 0  0.475 0.425 0  0.5 0.425 0  0.525 0.425 0  0.55 0.425 0  0.575 0.425 0  0.6 0.425 0  0.625 0.425 0  0.65 0.425 0  0.675 0.425 0  0.7 0.425 0  0.725 0.425 0  0.75 0.425 0  0.775 0.425 0  0.8 0.425 0  0.825 0.425 0  0.85 0.425 0  0.875 0.425 0  0.9 0.425 0  0.925 0.425 0  0.95 0.425 0  0.975 0.425 0  1 0.425 0  0 0.45 0  0.02
[...]
<PointData  Scalars="ControlVisualisation"> 
<DataArray  type="Float64"  Name="ControlVisualisation"  format="ascii">3.8964475917545127e-01  3.4188482195310749e-01  3.4188663225564592e-01  3.4189737235404816e-01  3.4191860628583887e-01  3.4194966981994512e-01  3.4198941556423873e-01  3.4203652572995080e-01  3.4208953835800859e-01  3.4214684852688687e-01  3.4220673969730853e-01  3.4226743129790305e-01  3.4232713291561617e-01  3.4238409882132598e-01  3.4243667919510384e-01  3.4248336610433971e-01  3.4252283320489207e-01  3.4255396873278304e-01  3.4257590173590108e-01  3.4258802171379088e-01  3.4258999192957751e-01  3.4258175662926177e-01  3.4256354232264336e-01  3.4253585313768381e-01  3.4249946011710330e-01  3.4245538422279515e-01  3.4240487275795523e-01  3.4234936898034779e-01  3.4229047484592529e-01  3.4222990715890389e-01  3.4216944792192217e-01  3.4211089044400494e-01  3.4205598410434063e-01  3.4200638280723450e-01  3.4196360520514829e-01  3.4192901841248396e-01  3.4190383482879905e-01  3.4188897506881244e-01  3.4188413654633071e-01  3.4188541726606192e-01  4.4054828607113894e-01  3.4188480795394227e-01  2.2718590517106779e-01  2.2723278550210838e-01  2.2734339766921507e-01  2.2753105467518142e-01  2.2779429523217490e-01  2.2812550128418280e-01  2.2851481689107001e-01  2.2895094360730794e-01  2.2942139833497693e-01  2.2991279385218810e-01  2.3041118852537640e-01  2.3090248384222273e-01  2.3137283400989139e-01  2.3180904318442855e-01  2.3219893396791783e-01  2.3253167644250500e-01  2.3279807099520372e-01  2.3299078103620438e-01  2.3310451359336032e-01  2.3313614702750890e-01  2.3308480568127810e-01  2.3295188146755985e-01  2.3274100234175965e-01  2.3245794738803022e-01  2.3211050828520724e-01  2.3170829718972430e-01  2.3126250190328840e-01  2.3078559063683621e-01  2.3029097093066425e-01  2.2979261047136215e-01  2.2930463183796984e-01  2.2884089956956430e-01  2.2841462470834756e-01  2.2803801889596886e-01  2.2772201067840817e-01  2.2747586601181077e-01  2.2730597983700843e-01  2.2721151980766985e-01  2.2717737107154018e-01  3.4188541479400775e-01  3.4188653656631529e-01  2.2723308360251793e-01  2.2739375443443485e-01  2.2767130101670796e-01  2.2809967599217532e-01  2.2868702246589678e-01  2.2942255867334094e-01  2.3028727205517396e-01  2.3125760405233503e-01  2.3230688528160665e-01  2.3340611905957426e-01  2.3452475015578048e-01  2.3563151133578314e-01  2.3669532376437080e-01  2.3768621043578711e-01  2.3857618221520338e-01  2.3934006269002941e-01  2.3995622450827137e-01  2.4040721586569727e-01  2.4068026117365493e-01  2.4076762460919970e-01  2.4066682919272234e-01  2.4038072721817294e-01  2.3991742069015357e-01  2.3929003301692758e-01  2.3851633603086142e-01  2.3761823980836339e-01  2.3662115680584128e-01  2.3555325667618918e-01  2.3444463368850921e-01  2.3332641471187587e-01  2.3222984184972634e-01  2.3118536927538030e-01  2.3022181073574649e-01  2.2936554577929319e-01  2.2863963464316089e-01  2.2806220448491077e-01  2.2764211904526921e-01  2.2736870071904847e-01  2.2721153894501406e-01  3.4188408854760777e-01  3.4189725732736320e-01  2.2734644359967038e-01  2.2767836598127023e-01  2.2809789046281201e-01  2.2866976164918348e-01  2.2942740835395933e-01  2.3036857929151489e-01  2.3147400060324563e-01  2.3271584957051950e-01  2.3406118980147722e-01  2.3547353421058420e-01  2.3691400396078785e-01  2.3834244961232581e-01  2.3971862714501427e-01  2.4100341136944861e-01  2.4216000180578778e-01  2.4315507232335382e-01  2.4395981928691424e-01  2.4455086941778076e-01  2.4491101607343146e-01  2.4502976038984822e-01  2.4490364103642759e-01  2.4453634308767919e-01  2.4393858288941228e-01  2.4312777193979562e-01  2.4212746918684142e-01  2.4096663806230023e-01  2.3967873211013152e-01  2.3830064077396229e-01  2.3687153459467486e-01  2.3543165522860704e-01  2.3402109836884225e-01  2.3267863162919414e-01  2.3144055480911052e-01  2.3033949875968743e-01  2.2940269239954086e-01  2.2864825427486962e-01  2.2807583315622462e-01  2.2764806705950735e-01  2.2730749380567916e-01  3.4188879272552025e-01  3.4191916914624948e-01  2.2754501272741609e-01  2.2813362645379343e-01  2.2870426353376133e-01  2.2937325856395196e-01  2.3021712618121432e-01  2.3125119299563751e-01  2.3246153214424892e-01  2.3382065868265720e-01  2.3529378191125006e-01  2.3684150592962508e-01  2.3842146174610962e-01  2.3998966650190817e-01  2.4150186756441838e-01  2.4291490704754143e-01  2.4418807853241881e-01  2.4528442688607521e-01  2.4617194001214296e-01  2.4682458653790257e-01  2.4722316128946212e-01  2.4735590939606050e-01  2.4721890863128987e-01  2.4681619792743237e-01  2.4615964791761985e-01  2.4526857710600652e-01  2.4416912524860124e-01  2.4289340406531429e-01  2.4147845454684899e-01  2.3996504914790426e-01  2.3839638532930268e-01  2.3681672177183594e-01  2.3527000540847609e-01  2.3379851510005212e-01  2.3244147029616197e-01  2.3123333373081545e-01  2.3020089025105689e-01  2.2935650552548364e-01  2.2868125225657193e-01  2.2809260483216293e-01  2.2748509611349255e-01  3.4190373058725160e-01  3.4195283362796297e-01  2.2783748461826198e-01  2.2879065006489463e-01  2.2955289093661482e-01  2.3031581436468213e-01  2.3121973503472942e-01  2.3230625942384292e-01  2.3357053086236315e-01  2.3498750578328370e-01  2.3652224307139441e-01  2.3813415796899673e-01  2.3977926253834247e-01  2.4141180029526960e-01  2.4298573420725819e-01  2.4445620019141318e-01  2.4578092555485889e-01  2.4692157287684449e-01  2.4784496258765815e-01  2.4852413114304939e-01  2.4893918942429594e-01  2.4907795471769589e-01  2.4893633800802939e-01  2.4851847583686207e-01  2.4783660284228762e-01  2.4691066772549936e-01  2.4576770239514528e-01  2.4444096192429787e-01  2.4296886173168519e-01  2.4139374756836229e-01  2.3976054196354121e-01  2.3811531441721442e-01  2.3650381374607460e-01  2.3496996057255021e-01  2.3355416885845881e-01  2.3229100346444875e-01  2.3120463612718839e-01  2.3029781958207451e-01  2.2952407898149857e-01  2.2873505581763937e-01  2.2775421630212575e-01  3.4193006552346117e-01  3.4199890164893942e-01  2.2823084221406886e-01  2.2967219054442300e-01  2.3068539380830050e-01  2.3156041290673415e-01  2.3252394026676626e-01  2.3365382171016580e-01  2.3495799398225414e-01  2.3641523176723428e-01  2.3799110797401329e-01  2.3964436217025592e-01  2.4132994858569545e-01  2.4300101339103591e-01  2.4461053902317167e-01  2.4611286936937099e-01  2.4746515001881031e-01  2.4862866005953560e-01  2.4956999980886016e-01  2.5026210164923807e-01  2.5068503889203286e-01  2.5082661541843365e-01  2.5068272533870434e-01  2.5025747669144660e-01  2.4956307677632605e-01  2.4861947981551316e-01  2.4745380145006424e-01  2.4609950979681366e-01  2.4459540983703676e-01  2.4298444645824813e-01  2.4131235960612990e-01  2.3962622811408313e-01  2.3797292466108727e-01  2.3639744289903275e-01  2.3494086143872459e-01  2.3363714952439069e-01  2.3250641391806798e-01  2.3153798032104081e-01  2.3064776609621679e-01  2.2959913149017977e-01  2.2812196514983418e-01  3.4196832625964113e-01  3.4205839899226187e-01  2.2873413388868732e-01  2.3080338254817520e-01  2.3214142892484196e-01  2.3315902463559365e-01  2.3419371807222850e-01  2.3537110933177935e-01  2.3671630041122838e-01  2.3821330737613639e-01  2.3982859725600286e-01  2.4152030459598200e-01  2.4324236362943499e-01  2.4494692669867152e-01  2.4658619833483553e-01  2.4811403388819037e-01  2.4948738320824121e-01  2.5066757777712911e-01  2.5162144186868768e-01  2.5232221099827573e-01  2.5275024866556073e-01  2.5289355888600978e-01  2.5274809549556115e-01  2.5231786970907710e-01  2.5161485596947530e-01  2.5065869385810879e-01  2.4947618262814183e-01  2.4810056594298974e-01  2.4657060859131372e-01  2.4492947425901745e-01  2.4322342181847570e-01  2.4150034057145320e-01  2.3980812497419352e-01  2.3819280077592875e-01  2.3669602668074155e-01  2.3535076489436013e-01  2.3417156304106362e-01  2.3312984408566842e-01  2.3209234778868487e-01  2.3070985550275350e-01  2.2859691447645297e-01  3.4201930918676077e-01  3.4213272371109593e-01  2.2935912969351308e-01  2.3221564266138137e-01  2.3396781241989079e-01  2.3516880884275143e-01  2.3629398607068597e-01  2.3753011500666327e-01  2.3892478235426390e-01  2.4046898932107386e-01  2.4213046451477033e-01  2.4386664908026037e-01  2.4563027477593477e-01  2.4737236118480202e-01  2.4904429028165501e-01  2.5059948900770262e-01  2.5199486451265940e-01  2.5319202033628085e-01  2.5415825616804510e-01  2.5486735618039441e-01  2.5530017821306772e-01  2.5544506052975380e-01  2.5529806223701784e-01  2.5486304844362134e-01  2.5415162331979796e-01  2.5318290526564574e-01  2.5198313073162565e-01  2.5058506865561087e-01  2.4902722768261129e-01  2.4735284363305160e-01  2.4560864281940728e-01  2.4384337939407041e-01  2.4210611698581536e-01  2.4044409956673779e-01  2.3889964550943890e-01  2.3750431058709584e-01  2.3626526799194469e-01  2.3513060146874076e-01  2.3390438659557661e-01  2.3209807876705535e-01  2.2919016609932352e-01  3.4208419081742913e-01  3.4222361122266859e-01  2.3012043996003423e-01  2.3394858520733858e-01  2.3622328621060740e-01  2.3766009509629388e-01  2.3890242632858910e-01  2.4021416164232259e-01  2.4167192535578080e-01  2.4327590053588849e-01  2.4499552801460717e-01  2.4678739940556949e-01  2.4860274432477358e-01  2.5039119064965404e-01  2.5210314813766543e-01  2.5369159020787224e-01  2.5511346755868458e-01  2.5633082350665520e-01  2.5731164397037798e-01  2.5803047544761964e-01  2.5846885004511566e-01  2.5861555762945776e-01  2.5846679915396664e-01  2.5802624352522063e-01  2.5730499482441749e-01  2.5632146005561685e-01  2.5510109225869249e-01  2.5367597243352824e-01  2.5208418838632946e-01  2.5036897060100183e-01  2.4857755186708183e-01  2.4675971814987779e-01  2.4496597836552908e-01  2.4324510586132819e-01  2.4164023124008499e-01  2.4018101818556969e-01  2.3886498098456727e-01  2.3761016416784447e-01  2.3614195344936970e-01  2.3380252939687751e-01  2.2991558832560391e-01  3.4216449922410797e-01  3.4233312187076259e-01  2.3103566795148234e-01  2.3605161559571936e-01  2.3898220118892891e-01  2.4072205692656087e-01  2.4211707029819812e-01  2.4352752997838234e-01  2.4506729361352331e-01  2.4674852787908175e-01  2.4854296786488983e-01  2.5040615137800515e-01  2.5228741382376474e-01  2.5413465323630252e-01  2.5589711173887031e-01  2.5752727383763874e-01  2.5898223807986392e-01  2.6022469100587414e-01  2.6122355809999726e-01  2.6195440207067694e-01  2.6239964047190156e-01  2.6254865024696727e-01  2.6239781364645876e-01  2.6195054041556798e-01  2.6121727713889853e-01  2.6021548959450080e-01  2.5896958002954384e-01  2.5751068167969693e-01  2.5587626021293897e-01  2.5410944804484592e-01  2.5225804031419230e-01  2.5037307715571816e-01  2.4850687945457661e-01  2.4671016400933643e-01  2.4502708043569205e-01  2.4348477988028849e-01  2.4206820799739182e-01  2.4065698896147381e-01  2.3887841936022261e-01  2.3587145218038361e-01  2.3078995758558341e-01  3.4226209092927529e-01  3.4246363776434208e-01  2.3212568395177771e-01  2.3858603128388181e-01  2.4233890410315165e-01  2.4446889609845562e-01  2.4606386746658054e-01  2.4760423842674256e-01  2.4925149755669546e-01  2.5103340956116627e-01  2.5292476558314003e-01  2.5487979517242199e-01  2.5684545180231921e-01  2.5876750037502011e-01  2.6059380951577016e-01  2.6227638230657213e-01  2.6377265192509569e-01  2.6504625540551152e-01  2.6606741844837839e-01  2.6681306972649710e-01  2.6726679694082145e-01  2.6741874367849050e-01  2.6726552382386226e-01  2.6681020159634727e-01  2.6606235248408838e-01  2.6503818655787686e-01  2.6376068264870745e-01  2.6225965257116979e-01  2.6057163219330814e-01  2.5873948316424394e-01  2.5681158395826975e-01  2.5484047471559523e-01  2.5288073642309583e-01  2.5098555512263898e-01  2.4920036680002897e-01  2.4754900786554901e-01  2.4600011118542731e-01  2.4438425613222670e-01  2.4220680870534372e-01  2.3836465356225350e-01  2.3183319648161949e-01  3.4237914330569341e-01  3.4261785984938126e-01  2.3341507578880810e-01  2.4162807498847000e-01  2.4641380683626335e-01  2.4904810209911776e-01  2.5090646882668122e-01  2.5261897306699516e-01  2.5440806839076546e-01  2.5632183237325767e-01  2.5833912655187674e-01  2.6041256608622909e-01  2.6248613238137314e-01  2.6450300444410341e-01  2.6640950479956688e-01  2.6815727178310567e-01  2.6970442172786990e-01  2.7101603534133956e-01  2.7206418267671473e-01  2.7282766789187129e-01  2.7329165440883574e-01  2.7344730445996285e-01  2.7329153284507024e-01  2.7282693577949635e-01  2.7206191461333706e-01  2.7101097203419139e-01  2.6969511639348365e-01  2.6814226946851916e-01  2.6638753750265809e-01  2.6447317785774538e-01  2.6244807361227046e-01  2.6036649545353652e-01  2.5828580602280388e-01  2.5626231382466380e-01  2.5434307952016033e-01  2.5254757556542673e-01  2.5082326134626043e-01  2.4893806881789038e-01  2.4624577955935695e-01  2.4135643187627931e-01  2.3306875737157029e-01  3.4251815132475344e-01  3.4279879857933410e-01  2.3493286828005044e-01  2.4527351215418675e-01  2.5136228115806686e-01  2.5465240195097388e-01  2.5686023754098553e-01  2.5880255062416607e-01  2.6077998687703152e-01  2.6286714600131811e-01  2.6504834429577040e-01  2.6727424352543383e-01  2.6948517246839399e-01  2.7162126532258257e-01  2.7362724067118005e-01  2.7545470872493194e-01  2.7706310419181812e-01  2.7841975478786307e-01  2.7949941426180419e-01  2.8028352278599722e-01  2.8075941222988371e-01  2.8091962704945239e-01  2.8076148213352525e-01  2.8028692952901391e-01  2.7950275770239308e-01  2.7842109875026227e-01  2.7706016897117497e-01  2.7544511595721788e-01  2.7360879247982778e-01  2.7159222782740794e-01  2.6944452087761939e-01  2.6722181227871838e-01  2.6498480857512952e-01  2.6279372374970200e-01  2.6069764908446186e-01  2.5871029420390068e-01  2.5675158975421497e-01  2.5450929246331355e-01  2.5114836424760745e-01  2.4493994655303331e-01  2.3452422388431360e-01  3.4268192032829614e-01  3.4300975275697998e-01  2.3671371168823879e-01  2.4964471407813493e-01  2.5738814794736031e-01  2.6153775038997829e-01  2.6421326863668071e-01  2.6646499790556971e-01  2.6869413385972446e-01  2.7101005057009764e-01  2.7340447819495911e-01  2.7582583042421505e-01  2.7821008129646607e-01  2.8049396710532060e-01  2.8262082245445397e-01  2.8454298458965654e-01  2.8622233910140932e-01  2.8762977458810896e-01  2.8874403710795665e-01  2.8955035274063889e-01  2.9003910020350188e-01  2.9020473896990212e-01  2.9004512988989223e-01  2.8956132650764338e-01  2.8875786329793363e-01  2.8764351722921799e-01  2.8623246436597782e-01  2.8454568895726856e-01  2.8261242718274338e-01  2.8047134452696593e-01  2.7817105367057071e-01  2.7576945538175979e-01  2.7333110669522548e-01  2.7092099167754957e-01  2.6859064862241838e-01  2.6634609596676423e-01  2.6407137405549841e-01  2.6135140131362167e-01  2.5711521510641616e-01  2.4923394482000538e-01  2.3623228217992379e-01  3.4287354761571875e-01  3.4325427169834932e-01  2.3879993366830332e-01  2.5490202602402207e-01  2.6476486454927922e-01  2.7005138786890875e-01  2.7335904894033125e-01  2.7603118655727776e-01  2.7859864596401551e-01  2.8121667586347032e-01  2.8388734505098834e-01  2.8655679256808947e-01  2.8915612130552382e-01  2.9161868285057785e-01  2.9388724757310947e-01  2.9591641042431205e-01  2.9767249265647855e-01  2.9913208944776765e-01  3.0027998460556921e-01  3.0110693467812261e-01  3.0160767183908077e-01  3.0177935521532007e-01  3.0162060967674492e-01  3.0113122629600375e-01  3.0031255069712925e-01  2.9916854259326142e-01  2.9770743770569330e-01  2.9594386952179674e-01  2.9390120568444222e-01  2.9161371926926555e-01  2.8912804838028106e-01  2.8650317412448084e-01  2.8380770839722097e-01  2.8111216409380385e-01  2.7847076499661377e-01  2.7587903934285773e-01  2.7317401638788624e-01  2.6980840331097150e-01  2.6441540143571041e-01  2.5439348893132724e-01  2.3823236025190447e-01  3.4309638512659235e-01  3.4353609714644928e-01  2.4124524010508464e-01  2.6126279572950417e-01  2.7387020007456964e-01  2.8067735049549691e-01  2.8484902134489581e-01  2.8809752447160181e-01  2.9112137657553089e-01  2.9413695343243068e-01  2.9716136789344688e-01  3.0013930179335369e-01  3.0299717992389064e-01  3.0566591583852093e-01  3.0808975307167019e-01  3.1022847550648247e-01  3.1205625487404071e-01  3.1355886086358031e-01  3.1473028227338884e-01  3.1556942563774204e-01  3.1607729804798745e-01  3.1625490127665196e-01  3.1610195023679166e-01  3.1561646686752248e-01  3.1479527045300271e-01  3.1363536490505106e-01  3.1213618783890440e-01  3.1030261162913941e-01  3.0814845299023552e-01  3.0570003883470831e-01  3.0299909049978135e-01  3.0010377793105447e-01  2.9708610409995939e-01  2.9402229163083055e-01  2.9096879128932818e-01  2.8790615114800655e-01  2.8460922228134528e-01  2.8036034136415666e-01  2.7342044273389526e-01  2.6062779138394282e-01  2.4057352786643935e-01  3.4335397279085544e-01  3.4385910583389362e-01  2.4412173876537285e-01  2.6903479415802362e-01  2.8524581711971886e-01  2.9411365557061631e-01  2.9948034397090817e-01  3.0352463455710943e-01  3.0716298584928647e-01  3.1069473530347846e-01  3.1416033000406762e-01  3.1750604651186887e-01  3.2065574460985041e-01  3.2354094480517587e-01  3.2611174598764120e-01  3.2833848107466596e-01  3.3020888219371292e-01  3.3172335281112603e-01  3.3288985338498339e-01  3.3371925062690355e-01  3.3422155609048582e-01  3.3440322170878323e-01  3.3426552843409618e-01  3.3380406304535187e-01  3.3300928954212239e-01  3.3186824895938583e-01  3.3036742672382369e-01  3.2849677062143651e-01  3.2625468149157555e-01  3.2365349403594046e-01  3.2072448376990587e-01  3.1752069664697913e-01  3.1411483148391056e-01  3.1058723674494559e-01  3.0699396504984555e-01  3.0329262946040286e-01  2.9917444794582687e-01  2.9370108448867527e-01  2.8466297877355712e-01  2.6823131719356785e-01  2.4331986352446949e-01  3.4364993234904978e-01  3.4422737721996188e-01  2.4753389786253188e-01  2.7867830899497947e-01  2.9970546293054645e-01  3.1140941466266769e-01  3.1844725864598278e-01  3.2359150164948058e-01  3.2804543214584336e-01  3.3222495643484462e-01  3.3620980267874034e-01  3.3995628286506052e-01  3.4339229028085227e-01  3.4645728231942452e-01  3.4911578840499136e-01  3.5135795157279287e-01  3.5319414149766271e-01  3.5464754567062373e-01  3.5574686208698225e-01  3.5652011182635912e-01  3.5698992556121695e-01  3.5717030924041832e-01  3.5706476573363810e-01  3.5666566089909962e-01  3.5595481096593112e-01  3.5490537989446480e-01  3.5348526050675633e-01  3.5166211260800984e-01  3.4941006701612265e-01  3.4671768980576156e-01  3.4359601317048083e-01  3.4008420067092510e-01  3.3624860784774929e-01  3.3216764433919627e-01  3.2788927113571981e-01  3.2333298919190323e-01  3.1807240444087026e-01  3.1087831588234938e-01  2.9894322378442290e-01  2.7764106243195891e-01  2.4656119392776901e-01  3.4398786927431185e-01  3.4464564656237962e-01  2.5164832642318780e-01  2.9092906337050417e-01  3.1854241374732001e-01  3.3421774748715927e-01  3.4360586704404311e-01  3.5024894871048495e-01  3.5574007642936567e-01  3.6066904958777479e-01  3.6518732150494310e-01  3.6928146799643385e-01  3.7289915878148461e-01  3.7600278292066458e-01  3.7858641424605233e-01  3.8067463253589262e-01  3.8231362865251561e-01  3.8356041612967928e-01  3.8447305772799922e-01  3.8510301609658210e-01  3.8548974691955412e-01  3.8565722007290726e-01  3.8561197105100314e-01  3.8534239823798916e-01  3.8481923169106719e-01  3.8399734081724535e-01  3.8281926466104255e-01  3.8122096291700180e-01  3.7914017587874049e-01  3.7652726148427085e-01  3.7335718490966219e-01  3.6963933646151548e-01  3.6541855781731736e-01  3.6075614218426760e-01  3.5567295259954268e-01  3.5001690227308913e-01  3.4318374354266473e-01  3.3354957503344951e-01  3.1753478741697333e-01  2.8955151747062968e-01  2.5043600973516261e-01  3.4437135889052445e-01  3.4512211794814956e-01  2.5676252344483336e-01  3.0705469998577650e-01  3.4394524306124974e-01  3.6526709020382725e-01  3.7792221541810234e-01  3.8650312703885747e-01  3.9317157947331005e-01  3.987992209