<?xml version="1.0"?>
<VTKFile type="UnstructuredGrid"  version="0.1"  >
<UnstructuredGrid>
<Piece  NumberOfPoints="1681" NumberOfCells="3200">
<Points>
<DataArray  type="Float64"  NumberOfComponents="3"  format="ascii">0 0 0  0.025 0 0  0.05 0 0  0.075 0 0  0.1 0 0  0.125 0 0  0.15 0 0  0.175 0 0  0.2 0 0  0.225 0 0  0.25 0 0  0.275 0 0  0.3 0 0  0.325 0 0  0.35 0 0  0.375 0 0  0.4 0 0  0.425 0 0  0.45 0 0  0.475 0 0  0.5 0 0  0.525 0 0  0.55 0 0  0.575 0 0  0.6 0 0  0.625 0 0  0.65 0 0  0.675 0 0  0.7 0 0  0.725 0 0  0.75 0 0  0.775 0 0  0.8 0 0  0.825 0 0  0.85 0 0  0.875 0 0  0.9 0 0  0.925 0 0  0.95 0 0  0.975 0 0  1 0 0  0 0.025 0  0.025 0.025 0  0.05 0.025 0  0.075 0.025 0  0.1 0.025 0  0.125 0.025 0  0.15 0.025 0  0.175 0.025 0  0.2 0.025 0  0.225 0.025 0  0.25 0.025 0  0.275 0.025 0  0.3 0.025 0  0.325 0.025 0  0.35 0.025 0  0.375 0.025 0  0.4 0.025 0  0.425 0.025 0  0.45 0.025 0  0.475 0.025 0  0.5 0.025 0  0.525 0.025 0  0.55 0.025 0  0.575 0.025 0  0.6 0.025 0  0.625 0.025 0  0.65 0.025 0  0.675 0.025 0  0.7 0.025 0  0.725 0.025 0  0.75 0.025 0  0.775 0.025 0  0.8 0.025 0  0.825 0.025 0  0.85 0.025 0  0.875 0.025 0  0.9 0.025 0  0.925 0.025 0  0.95 0.025 0  0.975 0.025 0  1 0.025 0  0 0.05 0  0.025 0.05 0  0.05 0.05 0  0.075 0.05 0  0.1 0.05 0  0.125 0.05 0  0.15 0.05 0  0.175 0.05 0  0.2 0.05 0  0.225 0.05 0  0.25 0.05 0  0.275 0.05 0  0.3 0.05 0  0.325 0.05 0  0.35 0.05 0  0.375 0.05 0  0.4 0.05 0  0.425 0.05 0  0.45 0.05 0  0.475 0.05 0  0.5 0.05 0  0.525 0.05 0  0.55 0.05 0  0.575 0.05 0  0.6 0.05 0  0.625 0.05 0  0.65 0.05 0  0.675 0.05 0  0.7 0.05 0  0.725 0.05 0  0.75 0.05 0  0.775 0.05 0  0.8 0.05 0  0.825 0.05 0  0.85 0.05 0  0.875 0.05 0  0.9 0.05 0  0.925 0.05 0  0.95 0.05 0  0.975 0.05 0  1 0.05 0  0 0.075 0  0.025 0.075 0  0.05 0.075 0  0.075 0.075 0  0.1 0.075 0  0.125 0.075 0  0.15 0.075 0  0.175 0.075 0  0.2 0.075 0  0.225 0.075 0  0.25 0.075 0  0.275 0.075 0  0.3 0.075 0  0.325 0.075 0  0.35 0.075 0  0.375 0.075 0  0.4 0.075 0  0.425 0.075 0  0.45 0.075 0  0.475 0.075 0  0.5 0.075 0  0.525 0.075 0  0.55 0.075 0  0.575 0.075 0  0.6 0.075 0  0.625 0.075 0  0.65 0.075 0  0.675 0.075 0  0.7 0.075 0  0.725 0.075 0  0.75 0.075 0  0.775 0.075 0  0.8 0.075 0  0.825 0.075 0  0.85 0.075 0  0.875 0.075 0  0.9 0.075 0  0.925 0.075 0  0.95 0.075 0  0.975 0.075 0  1 0.075 0  0 0.1 0  0.025 0.1 0  0.05 0.1 0  0.075 0.1 0  0.1 0.1 0  0.125 0.1 0  0.15 0.1 0  0.175 0.1 0  0.2 0.1 0  0.225 0.1 0  0.25 0.1 0  0.275 0.1 0  0.3 0.1 0  0.325 0.1 0  0.35 0.1 0  0.375 0.1 0  0.4 0.1 0  0.425 0.1 0  0.45 0.1 0  0.475 0.1 0  0.5 0.1 0  0.525 0.1 0  0.55 0.1 0  0.575 0.1 0  0.6 0.1 0  0.625 0.1 0  0.65 0.1 0  0.675 0.1 0  0.7 0.1 0  0.725 0.1 0  0.75 0.1 0  0.775 0.1 0  0.8 0.1 0  0.825 0.1 0  0.85 0.1 0  0.875 0.1 0  0.9 0.1 0  0.925 0.1 0  0.95 0.1 0  0.975 0.1 0  1 0.1 0  0 0.125 0  0.025 0.125 0  0.05 0.125 0  0.075 0.125 0  0.1 0.125 0  0.125 0.125 0  0.15 0.125 0  0.175 0.125 0  0.2 0.125 0  0.225 0.125 0  0.25 0.125 0  0.275 0.125 0  0.3 0.125 0  0.325 0.125 0  0.35 0.125 0  0.375 0.125 0  0.4 0.125 0  0.425 0.125 0  0.45 0.125 0  0.475 0.125 0  0.5 0.125 0  0.525 0.125 0  0.55 0.125 0  0.575 0.125 0  0.6 0.125 0  0.625 0.125 0  0.65 0.125 0  0.675 0.125 0  0.7 0.125 0  0.725 0.125 0  0.75 0.125 0  0.775 0.125 0  0.8 0.125 0  0.825 0.125 0  0.85 0.125 0  0.875 0.125 0  0.9 0.125 0  0.925 0.125 0  0.95 0.125 0  0.975 0.125 0  1 0.125 0  0 0.15 0  0.025 0.15 0  0.05 0.15 0  0.075 0.15 0  0.1 0.15 0  0.125 0.15 0  0.15 0.15 0  0.175 0.15 0  0.2 0.15 0  0.225 0.15 0  0.25 0.15 0  0.275 0.15 0  0.3 0.15 0  0.325 0.15 0  0.35 0.15 0  0.375 0.15 0  0.4 0.15 0  0.425 0.15 0  0.45 0.15 0  0.475 0.15 0  0.5 0.15 0  0.525 0.15 0  0.55 0.15 0  0.575 0.15 0  0.6 0.15 0  0.625 0.15 0  0.65 0.15 0  0.675 0.15 0  0.7 0.15 0  0.725 0.15 0  0.75 0.15 0  0.775 0.15 0  0.8 0.15 0  0.825 0.15 0  0.85 0.15 0  0.875 0.15 0  0.9 0.15 0  0.925 0.15 0  0.95 0.15 0  0.975 0.15 0  1 0.15 0  0 0.175 0  0.025 0.175 0  0.05 0.175 0  0.075 0.175 0  0.1 0.175 0  0.125 0.175 0  0.15 0.175 0  0.175 0.175 0  0.2 0.175 0  0.225 0.175 0  0.25 0.175 0  0.275 0.175 0  0.3 0.175 0  0.325 0.175 0  0.35 0.175 0  0.375 0.175 0  0.4 0.175 0  0.425 0.175 0  0.45 0.175 0  0.475 0.175 0  0.5 0.175 0  0.525 0.175 0  0.55 0.175 0  0.575 0.175 0  0.6 0.175 0  0.625 0.175 0  0.65 0.175 0  0.675 0.175 0  0.7 0.175 0  0.725 0.175 0  0.75 0.175 0  0.775 0.175 0  0.8 0.175 0  0.825 0.175 0  0.85 0.175 0  0.875 0.175 0  0.9 0.175 0  0.925 0.175 0  0.95 0.175 0  0.975 0.175 0  1 0.175 0  0 0.2 0  0.025 0.2 0  0.05 0.2 0  0.075 0.2 0  0.1 0.2 0  0.125 0.2 0  0.15 0.2 0  0.175 0.2 0  0.2 0.2 0  0.225 0.2 0  0.25 0.2 0  0.275 0.2 0  0.3 0.2 0  0.325 0.2 0  0.35 0.2 0  0.375 0.2 0  0.4 0.2 0  0.425 0.2 0  0.45 0.2 0  0.475 0.2 0  0.5 0.2 0  0.525 0.2 0  0.55 0.2 0  0.575 0.2 0  0.6 0.2 0  0.625 0.2 0  0.65 0.2 0  0.675 0.2 0  0.7 0.2 0  0.725 0.2 0  0.75 0.2 0  0.775 0.2 0  0.8 0.2 0  0.825 0.2 0  0.85 0.2 0  0.875 0.2 0  0.9 0.2 0  0.925 0.2 0  0.95 0.2 0  0.975 0.2 0  1 0.2 0  0 0.225 0  0.025 0.225 0  0.05 0.225 0  0.075 0.225 0  0.1 0.225 0  0.125 0.225 0  0.15 0.225 0  0.175 0.225 0  0.2 0.225 0  0.225 0.225 0  0.25 0.225 0  0.275 0.225 0  0.3 0.225 0  0.325 0.225 0  0.35 0.225 0  0.375 0.225 0  0.4 0.225 0  0.425 0.225 0  0.45 0.225 0  0.475 0.225 0  0.5 0.225 0  0.525 0.225 0  0.55 0.225 0  0.575 0.225 0  0.6 0.225 0  0.625 0.225 0  0.65 0.225 0  0.675 0.225 0  0.7 0.225 0  0.725 0.225 0  0.75 0.225 0  0.775 0.225 0  0.8 0.225 0  0.825 0.225 0  0.85 0.225 0  0.875 0.225 0  0.9 0.225 0  0.925 0.225 0  0.95 0.225 0  0.975 0.225 0  1 0.225 0  0 0.25 0  0.025 0.25 0  0.05 0.25 0  0.075 0.25 0  0.1 0.25 0  0.125 0.25 0  0.15 0.25 0  0.175 0.25 0  0.2 0.25 0  0.225 0.25 0  0.25 0.25 0  0.275 0.25 0  0.3 0.25 0  0.325 0.25 0  0.35 0.25 0  0.375 0.25 0  0.4 0.25 0  0.425 0.25 0  0.45 0.25 0  0.475 0.25 0  0.5 0.25 0  0.525 0.25 0  0.55 0.25 0  0.575 0.25 0  0.6 0.25 0  0.625 0.25 0  0.65 0.25 0  0.675 0.25 0  0.7 0.25 0  0.725 0.25 0  0.75 0.25 0  0.775 0.25 0  0.8 0.25 0  0.825 0.25 0  0.85 0.25 0  0.875 0.25 0  0.9 0.25 0  0.925 0.25 0  0.95 0.25 0  0.975 0.25 0  1 0.25 0  0 0.275 0  0.025 0.275 0  0.05 0.275 0  0.075 0.275 0  0.1 0.275 0  0.125 0.275 0  0.15 0.275 0  0.175 0.275 0  0.2 0.275 0  0.225 0.275 0  0.25 0.275 0  0.275 0.275 0  0.3 0.275 0  0.325 0.275 0  0.35 0.275 0  0.375 0.275 0  0.4 0.275 0  0.425 0.275 0  0.45 0.275 0  0.475 0.275 0  0.5 0.275 0  0.525 0.275 0  0.55 0.275 0  0.575 0.275 0  0.6 0.275 0  0.625 0.275 0  0.65 0.275 0  0.675 0.275 0  0.7 0.275 0  0.725 0.275 0  0.75 0.275 0  0.775 0.275 0  0.8 0.275 0  0.825 0.275 0  0.85 0.275 0  0.875 0.275 0  0.9 0.275 0  0.925 0.275 0  0.95 0.275 0  0.975 0.275 0  1 0.275 0  0 0.3 0  0.025 0.3 0  0.05 0.3 0  0.075 0.3 0  0.1 0.3 0  0.125 0.3 0  0.15 0.3 0  0.175 0.3 0  0.2 0.3 0  0.225 0.3 0  0.25 0.3 0  0.275 0.3 0  0.3 0.3 0  0.325 0.3 0  0.35 0.3 0  0.375 0.3 0  0.4 0.3 0  0.425 0.3 0  0.45 0.3 0  0.475 0.3 0  0.5 0.3 0  0.525 0.3 0  0.55 0.3 0  0.575 0.3 0  0.6 0.3 0  0.625 0.3 0  0.65 0.3 0  0.675 0.3 0  0.7 0.3 0  0.725 0.3 0  0.75 0.3 0  0.775 0.3 0  0.8 0.3 0  0.825 0.3 0  0.85 0.3 0  0.875 0.3 0  0.9 0.3 0  0.925 0.3 0  0.95 0.3 0  0.975 0.3 0  1 0.3 0  0 0.325 0  0.025 0.325 0  0.05 0.325 0  0.075 0.325 0  0.1 0.325 0  0.125 0.325 0  0.15 0.325 0  0.175 0.325 0  0.2 0.325 0  0.225 0.325 0  0.25 0.325 0  0.275 0.325 0  0.3 0.325 0  0.325 0.325 0  0.35 0.325 0  0.375 0.325 0  0.4 0.325 0  0.425 0.325 0  0.45 0.325 0  0.475 0.325 0  0.5 0.325 0  0.525 0.325 0  0.55 0.325 0  0.575 0.325 0  0.6 0.325 0  0.625 0.325 0  0.65 0.325 0  0.675 0.325 0  0.7 0.325 0  0.725 0.325 0  0.75 0.325 0  0.775 0.325 0  0.8 0.325 0  0.825 0.325 0  0.85 0.325 0  0.875 0.325 0  0.9 0.325 0  0.925 0.325 0  0.95 0.325 0  0.975 0.325 0  1 0.325 0  0 0.35 0  0.025 0.35 0  0.05 0.35 0  0.075 0.35 0  0.1 0.35 0  0.125 0.35 0  0.15 0.35 0  0.175 0.35 0  0.2 0.35 0  0.225 0.35 0  0.25 0.35 0  0.275 0.35 0  0.3 0.35 0  0.325 0.35 0  0.35 0.35 0  0.375 0.35 0  0.4 0.35 0  0.425 0.35 0  0.45 0.35 0  0.475 0.35 0  0.5 0.35 0  0.525 0.35 0  0.55 0.35 0  0.575 0.35 0  0.6 0.35 0  0.625 0.35 0  0.65 0.35 0  0.675 0.35 0  0.7 0.35 0  0.725 0.35 0  0.75 0.35 0  0.775 0.35 0  0.8 0.35 0  0.825 0.35 0  0.85 0.35 0  0.875 0.35 0  0.9 0.35 0  0.925 0.35 0  0.95 0.35 0  0.975 0.35 0  1 0.35 0  0 0.375 0  0.025 0.375 0  0.05 0.375 0  0.075 0.375 0  0.1 0.375 0  0.125 0.375 0  0.15 0.375 0  0.175 0.375 0  0.2 0.375 0  0.225 0.375 0  0.25 0.375 0  0.275 0.375 0  0.3 0.375 0  0.325 0.375 0  0.35 0.375 0  0.375 0.375 0  0.4 0.375 0  0.425 0.375 0  0.45 0.375 0  0.475 0.375 0  0.5 0.375 0  0.525 0.375 0  0.55 0.375 0  0.575 0.375 0  0.6 0.375 0  0.625 0.375 0  0.65 0.375 0  0.675 0.375 0  0.7 0.375 0  0.725 0.375 0  0.75 0.375 0  0.775 0.375 0  0.8 0.375 0  0.825 0.375 0  0.85 0.375 0  0.875 0.375 0  0.9 0.375 0  0.925 0.375 0  0.95 0.375 0  0.975 0.375 0  1 0.375 0  0 0.4 0  0.025 0.4 0  0.05 0.4 0  0.075 0.4 0  0.1 0.4 0  0.125 0.4 0  0.15 0.4 0  0.175 0.4 0  0.2 0.4 0  0.225 0.4 0  0.25 0.4 0  0.275 0.4 0  0.3 0.4 0  0.325 0.4 0  0.35 0.4 0  0.375 0.4 0  0.4 0.4 0  0.425 0.4 0  0.45 0.4 0  0.475 0.4 0  0.5 0.4 0  0.525 0.4 0  0.55 0.4 0  0.575 0.4 0  0.6 0.4 0  0.625 0.4 0  0.65 0.4 0  0.675 0.4 0  0.7 0.4 0  0.725 0.4 0  0.75 0.4 0  0.775 0.4 0  0.8 0.4 0  0.825 0.4 0  0.85 0.4 0  0.875 0.4 0  0.9 0.4 0  0.925 0.4 0  0.95 0.4 0  0.975 0.4 0  1 0.4 0  0 0.425 0  0.025 0.425 0  0.05 0.425 0  0.075 0.425 0  0.1 0.425 0  0.125 0.425 0  0.15 0.425 0  0.175 0.425 0  0.2 0.425 0  0.225 0.425 0  0.25 0.425 0  0.275 0.425 0  0.3 0.425 0  0.325 0.425 0  0.35 0.425 0  0.375 0.425 0  0.4 0.425 0  0.425 0.425 0  0.45 0.425 0  0.475 0.425 0  0.5 0.425 0  0.525 0.425 0  0.55 0.425 0  0.575 0.425 0  0.6 0.425 0  0.625 0.425 0  0.65 0.425 0  0.675 0.425 0  0.7 0.425 0  0.725 0.425 0  0.75 0.425 0  0.775 0.425 0  0.8 0.425 0  0.825 0.425 0  0.85 0.425 0  0.875 0.425 0  0.9 0.425 0  0.925 0.425 0  0.95 0.425 0  0.975 0.425 0  1 0.425 0  0 0.45 0  0.02
[...]
<PointData  Scalars="ControlVisualisation"> 
<DataArray  type="Float64"  Name="ControlVisualisation"  format="ascii">1.5940528080117245e-02  1.5818563683249725e-02  1.5818549282317417e-02  1.5818542526003215e-02  1.5818595232586337e-02  1.5818747318636358e-02  1.5818993222418483e-02  1.5819290654761963e-02  1.5819587952472864e-02  1.5819846452557511e-02  1.5820048047143136e-02  1.5820190658023581e-02  1.5820280068002207e-02  1.5820324254911262e-02  1.5820331133997154e-02  1.5820307964261704e-02  1.5820261148339100e-02  1.5820196124361734e-02  1.5820117364775104e-02  1.5820028478775700e-02  1.5819932373411772e-02  1.5819831421609608e-02  1.5819727602340430e-02  1.5819622601581419e-02  1.5819517879228393e-02  1.5819414712831409e-02  1.5819314227422766e-02  1.5819217416914774e-02  1.5819125159687069e-02  1.5819038229682440e-02  1.5818957304104125e-02  1.5818882968914257e-02  1.5818815723358023e-02  1.5818755984612003e-02  1.5818704093369339e-02  1.5818660320239829e-02  1.5818624874302849e-02  1.5818597897750735e-02  1.5818579586143921e-02  1.5818569613487533e-02  2.4499102543451903e-02  1.5818566927313239e-02  1.5463081582306547e-02  1.5462972701394269e-02  1.5462753802206861e-02  1.5462517741302752e-02  1.5462409157368299e-02  1.5462499596917029e-02  1.5462757306180172e-02  1.5463096642098394e-02  1.5463434062654284e-02  1.5463719673288098e-02  1.5463937478825129e-02  1.5464089798348277e-02  1.5464185245537471e-02  1.5464233881236827e-02  1.5464245663269019e-02  1.5464229678856724e-02  1.5464193617089551e-02  1.5464143543719189e-02  1.5464083996241563e-02  1.5464018285297481e-02  1.5463948848341427e-02  1.5463877544253605e-02  1.5463805849757442e-02  1.5463734971406816e-02  1.5463665904981624e-02  1.5463599468687431e-02  1.5463536324561173e-02  1.5463476993813169e-02  1.5463421868112550e-02  1.5463371218262243e-02  1.5463325202165897e-02  1.5463283874188011e-02  1.5463247197880885e-02  1.5463215062738178e-02  1.5463187305603096e-02  1.5463163738625134e-02  1.5463144165339861e-02  1.5463128614113116e-02  1.5463117604652171e-02  1.5818569614695563e-02  1.5818610669698946e-02  1.5463147560813744e-02  1.5462996140049107e-02  1.5462725335542049e-02  1.5462421596773844e-02  1.5462219701644093e-02  1.5462193021924782e-02  1.5462322742400215e-02  1.5462527584263440e-02  1.5462728445998422e-02  1.5462895005811604e-02  1.5463024952044808e-02  1.5463120688461807e-02  1.5463185066473520e-02  1.5463222706324473e-02  1.5463239782227193e-02  1.5463242688573022e-02  1.5463236861577027e-02  1.5463226253413273e-02  1.5463213391225326e-02  1.5463199763023046e-02  1.5463186246563261e-02  1.5463173412550848e-02  1.5463161675499940e-02  1.5463151344975057e-02  1.5463142635766113e-02  1.5463135669915170e-02  1.5463130480337128e-02  1.5463127015370687e-02  1.5463125142301278e-02  1.5463124649830217e-02  1.5463125251254234e-02  1.5463126590681444e-02  1.5463128254324297e-02  1.5463129787644405e-02  1.5463130719458471e-02  1.5463130593320166e-02  1.5463129030236510e-02  1.5463126663099066e-02  1.5463128615236547e-02  1.5818579609102591e-02  1.5818985772923361e-02  1.5464011500475459e-02  1.5463763533552303e-02  1.5463297162725095e-02  1.5462898290872221e-02  1.5462620456872998e-02  1.5462558803836086e-02  1.5462749387378766e-02  1.5462905837477942e-02  1.5462975665166277e-02  1.5463027443971706e-02  1.5463080824482256e-02  1.5463126253947610e-02  1.5463155126174213e-02  1.5463166658791888e-02  1.5463165099264336e-02  1.5463155970640774e-02  1.5463143890015305e-02  1.5463131684766325e-02  1.5463120566956689e-02  1.5463110820616537e-02  1.5463102443474529e-02  1.5463095463802810e-02  1.5463089987018648e-02  1.5463086135008731e-02  1.5463083986818124e-02  1.5463083552164416e-02  1.5463084768291904e-02  1.5463087503966421e-02  1.5463091561784277e-02  1.5463096677582819e-02  1.5463102519626806e-02  1.5463108690979652e-02  1.5463114737875471e-02  1.5463120165313008e-02  1.5463124461270033e-02  1.5463127136502596e-02  1.5463127881320168e-02  1.5463128678042566e-02  1.5463144044955518e-02  1.5818598038212985e-02  1.5821819756534301e-02  1.5472695086810661e-02  1.5468439584041678e-02  1.5471839577175236e-02  1.5472422541666642e-02  1.5468817103769123e-02  1.5465221383291835e-02  1.5464328519886293e-02  1.5463663546768005e-02  1.5463316277438452e-02  1.5463249803752575e-02  1.5463267891618906e-02  1.5463280024024091e-02  1.5463272485321412e-02  1.5463250208562545e-02  1.5463220603939704e-02  1.5463190550957814e-02  1.5463164616543686e-02  1.5463144326780668e-02  1.5463128866974497e-02  1.5463116716214816e-02  1.5463106777094407e-02  1.5463098599400173e-02  1.5463092139195294e-02  1.5463087476276161e-02  1.5463084657873617e-02  1.5463083655707800e-02  1.5463084373439785e-02  1.5463086659920262e-02  1.5463090312862257e-02  1.5463095074215179e-02  1.5463100623334744e-02  1.5463106573568837e-02  1.5463112476252731e-02  1.5463117833909842e-02  1.5463122124992340e-02  1.5463124853917971e-02  1.5463125829979031e-02  1.5463128997135480e-02  1.5463163065203900e-02  1.5818625356531914e-02  1.5889472158193026e-02  1.5501457075676952e-02  1.5537986709905147e-02  1.5658178429483756e-02  1.5767128836038403e-02  1.5746630659724838e-02  1.5648716522896077e-02  1.5560062138722675e-02  1.5492187370683924e-02  1.5466559971956735e-02  1.5463371220305716e-02  1.5463317478957289e-02  1.5463402805045483e-02  1.5463402225430224e-02  1.5463353175914882e-02  1.5463290698121713e-02  1.5463233538349318e-02  1.5463190673975263e-02  1.5463162187802233e-02  1.5463143169346778e-02  1.5463129000982328e-02  1.5463117235780479e-02  1.5463107183305460e-02  1.5463098923029019e-02  1.5463092637358945e-02  1.5463088375636432e-02  1.5463086058619025e-02  1.5463085540192014e-02  1.5463086644322535e-02  1.5463089169637593e-02  1.5463092876578047e-02  1.5463097470645623e-02  1.5463102590243302e-02  1.5463107804242428e-02  1.5463112621581301e-02  1.5463116515858721e-02  1.5463118986664580e-02  1.5463119997351421e-02  1.5463126093376307e-02  1.5463185135740284e-02  1.5818661552377138e-02  1.5925776651568430e-02  2.3885485879889708e-02  4.3541883511372825e-01  6.4421830658754620e-01  7.0020254886650768e-01  6.1809277237293403e-01  4.3798530681982800e-01  2.1908802422258100e-01  3.7814310941812000e-02  1.5740661569189067e-02  1.5524604168236169e-02  1.5469751842844402e-02  1.5463552692279533e-02  1.5463374612945458e-02  1.5463405877151674e-02  1.5463346292992600e-02  1.5463263217339703e-02  1.5463205696835028e-02  1.5463174338861099e-02  1.5463156188838555e-02  1.5463142061697242e-02  1.5463128756862773e-02  1.5463116366683195e-02  1.5463105751779059e-02  1.5463097416381457e-02  1.5463091385017320e-02  1.5463087450352594e-02  1.5463085368240370e-02  1.5463084922563469e-02  1.5463085917316509e-02  1.5463088145676630e-02  1.5463091357584407e-02  1.5463095235041049e-02  1.5463099380671001e-02  1.5463103322130049e-02  1.5463106535837273e-02  1.5463108521962081e-02  1.5463109442101924e-02  1.5463119111599331e-02  1.5463209722564861e-02  1.5818706715935511e-02  9.8444862950674061e-01  9.8469592581570053e-01  9.8483158460028564e-01  9.8478701293637105e-01  9.8469548339738899e-01  9.8457285630617664e-01  9.8441910806145405e-01  9.8382603621279252e-01  8.7307474411331609e-01  4.6321033393490635e-01  1.2348035608456087e-01  1.5838731862464192e-02  1.5527174139980941e-02  1.5467721765869379e-02  1.5463360461672447e-02  1.5463239567413807e-02  1.5463207243953196e-02  1.5463182523743527e-02  1.5463173849033396e-02  1.5463168224789022e-02  1.5463157420357011e-02  1.5463142161540374e-02  1.5463126107338878e-02  1.5463112220373242e-02  1.5463101428461492e-02  1.5463093432124824e-02  1.5463087680418743e-02  1.5463083753432914e-02  1.5463081384093164e-02  1.5463080394296003e-02  1.5463080632673275e-02  1.5463081921084506e-02  1.5463084013017520e-02  1.5463086570042063e-02  1.5463089159368615e-02  1.5463091276233168e-02  1.5463092435231833e-02  1.5463093049574323e-02  1.5463106905225781e-02  1.5463236030422475e-02  1.5818760909969774e-02  9.8562625639592305e-01  9.8616138101528961e-01  9.8589352294271038e-01  9.8563706174674004e-01  9.8541756495029142e-01  9.8521918851561263e-01  9.8502313526614882e-01  9.8481205095404389e-01  9.8457690467648096e-01  9.8432808644417003e-01  9.4802503956002759e-01  5.0162328280000668e-01  1.1110075600009088e-01  1.5760763254538398e-02  1.5502945962496342e-02  1.5464532065048810e-02  1.5462809395520289e-02  1.5463004871808374e-02  1.5463136649239368e-02  1.5463179695385793e-02  1.5463179530175114e-02  1.5463159341753196e-02  1.5463136064192000e-02  1.5463117591438579e-02  1.5463104299877264e-02  1.5463094481290090e-02  1.5463086879045771e-02  1.5463080876378496e-02  1.5463076181652720e-02  1.5463072660915109e-02  1.5463070252574620e-02  1.5463068891538683e-02  1.5463068444195663e-02  1.5463068668797828e-02  1.5463069205058085e-02  1.5463069595269713e-02  1.5463069394488880e-02  1.5463069333723130e-02  1.5463087915198400e-02  1.5463262926853232e-02  1.5818824156409284e-02  9.8644133908842313e-01  9.8756902945821290e-01  9.8695495615366502e-01  9.8643263349310040e-01  9.8605035463218849e-01  9.8576420631599093e-01  9.8552996461246045e-01  9.8531525164489153e-01  9.8509808828890633e-01  9.8486222572617865e-01  9.8459446780170012e-01  9.8431465395948292e-01  9.0457540879939013e-01  4.1464947204270913e-01  5.5710116358291289e-02  1.5631380838236196e-02  1.5477957840690636e-02  1.5462952714530562e-02  1.5462886182949491e-02  1.5463146857650378e-02  1.5463208085241665e-02  1.5463178039938720e-02  1.5463142136763832e-02  1.5463119588457742e-02  1.5463105487397351e-02  1.5463094655038118e-02  1.5463085367499569e-02  1.5463077125528246e-02  1.5463069680954501e-02  1.5463062965980651e-02  1.5463057057573972e-02  1.5463052066620023e-02  1.5463048033013300e-02  1.5463044865270456e-02  1.5463042323811946e-02  1.5463040043149467e-02  1.5463037663413700e-02  1.5463036320542892e-02  1.5463060038809545e-02  1.5463288812676177e-02  1.5818896395128741e-02  9.8667527601038030e-01  9.8820110200974665e-01  9.8750236041632944e-01  9.8689055863842057e-01  9.8644560774259249e-01  9.8612694145989810e-01  9.8588314468364302e-01  9.8567609091727548e-01  9.8548080515466152e-01  9.8528079728107620e-01  9.8506375364829990e-01  9.8481785039213299e-01  9.8453423679418206e-01  9.8424473647771293e-01  7.7062758255188790e-01  2.8571934030864771e-01  1.8335732798052638e-02  1.5541523584551041e-02  1.5466889049190836e-02  1.5463046327248094e-02  1.5463150220470831e-02  1.5463145688326177e-02  1.5463121969398185e-02  1.5463113373321681e-02  1.5463105081943304e-02  1.5463094470240775e-02  1.5463083726016477e-02  1.5463073211479571e-02  1.5463062603365826e-02  1.5463051881970427e-02  1.5463041350487823e-02  1.5463031399088825e-02  1.5463022329318562e-02  1.5463014269727349e-02  1.5463007165032329e-02  1.5463000809195210e-02  1.5462995001116033e-02  1.5462991403702107e-02  1.5463020449599499e-02  1.5463311439719107e-02  1.5818977423761548e-02  9.8624488327079673e-01  9.8774138843204884e-01  9.8727140288823878e-01  9.8682868907491206e-01  9.8649189951820715e-01  9.8624358358159869e-01  9.8605107006021919e-01  9.8588721031735571e-01  9.8573263782625864e-01  9.8557412631027286e-01  9.8540242333724481e-01  9.8521009317947106e-01  9.8498949955416737e-01  9.8473084174471537e-01  9.8443571926630002e-01  9.7531265164618786e-01  6.0038519596869555e-01  1.3871707229147651e-01  1.5738937571666636e-02  1.5495019198376604e-02  1.5463919427827263e-02  1.5462759975212990e-02  1.5462972603530032e-02  1.5463084785779286e-02  1.5463101636935093e-02  1.5463093595790614e-02  1.5463082569597428e-02  1.5463070361401179e-02  1.5463056268970108e-02  1.5463040525246307e-02  1.5463023859596234e-02  1.5463007130254671e-02  1.5462991031196060e-02  1.5462975983303559e-02  1.5462962182214501e-02  1.5462949675411999e-02  1.5462938541495866e-02  1.5462931151709139e-02  1.5462965345051410e-02  1.5463327646384504e-02  1.5819066806328944e-02  9.8530183972324548e-01  9.8644883674447814e-01  9.8640041587436245e-01  9.8630340165082331e-01  9.8620044102177407e-01  9.8610696270736742e-01  9.8602198460291091e-01  9.8593877010005138e-01  9.8584969453611093e-01  9.8574817613085552e-01  9.8562905533788825e-01  9.8548829292816442e-01  9.8532230480076122e-01  9.8512692479934083e-01  9.8489607019872016e-01  9.8462065649516439e-01  9.8432019140480342e-01  8.8959294263105915e-01  3.8163650599716953e-01  3.8125444361315174e-02  1.5585758887073602e-02  1.5471106373494740e-02  1.5462791938838965e-02  1.5462910261081313e-02  1.5463044339624603e-02  1.5463078094754076e-02  1.5463080917232050e-02  1.5463070339836993e-02  1.5463052892663857e-02  1.5463030906804098e-02  1.5463005974065851e-02  1.5462979951016398e-02  1.5462954137861600e-02  1.5462929234946592e-02  1.5462905709881127e-02  1.5462883996096093e-02  1.5462864655823956e-02  1.5462851052687873e-02  1.5462889591335171e-02  1.5463332970603122e-02  1.5819163733986681e-02  9.7892191509205140e-01  9.8496550508297886e-01  9.8531998016683531e-01  9.8555891571222665e-01  9.8569852419694426e-01  9.8578014360708188e-01  9.8582490282199076e-01  9.8584219022400998e-01  9.8583509385428236e-01  9.8580371984709825e-01  9.8574702760839605e-01  9.8566374191436990e-01  9.8555266771083350e-01  9.8541259888984356e-01  9.8524184663655556e-01  9.8503719069040452e-01  9.8479223524188242e-01  9.8450233807318888e-01  9.8219978345182801e-01  6.8524779485276921e-01  2.2212394636797367e-01  1.5858392300430041e-02  1.5515484254472424e-02  1.5464793688124805e-02  1.5462689758800930e-02  1.5462950207084734e-02  1.5463056147920012e-02  1.5463069096925174e-02  1.5463055373831431e-02  1.5463026512636115e-02  1.5462989880870498e-02  1.5462951081487358e-02  1.5462912185217054e-02  1.5462873664859983e-02  1.5462836166941708e-02  1.5462800749298381e-02  1.5462768817971703e-02  1.5462745185910504e-02  1.5462786224295625e-02  1.5463321079137300e-02  1.5819266809875308e-02  1.5863811067386494e-02  3.0593921100687677e-01  9.8437635239184107e-01  9.8478945353287917e-01  9.8511884265292227e-01  9.8534757835547948e-01  9.8551076317433284e-01  9.8562656567748919e-01  9.8570411694134075e-01  9.8574767586950984e-01  9.8575895700592397e-01  9.8573850693842857e-01  9.8568645472028760e-01  9.8560285961861027e-01  9.8548774067403300e-01  9.8534074376454972e-01  9.8516035531429147e-01  9.8494261082244750e-01  9.8467956716825489e-01  9.8438159774154488e-01  9.5092872863463185e-01  4.9281050984052738e-01  8.3890514264352581e-02  1.5646836680232451e-02  1.5480091714355229e-02  1.5463102513574826e-02  1.5462799452929821e-02  1.5463003741660084e-02  1.5463060221660068e-02  1.5463030814656642e-02  1.5462977070028819e-02  1.5462921933998144e-02  1.5462866757420125e-02  1.5462809948798291e-02  1.5462752504691681e-02  1.5462696744457716e-02  1.5462645523982878e-02  1.5462605822120402e-02  1.5462645754195580e-02  1.5463282919406820e-02  1.5819373712145837e-02  1.5828031753352810e-02  1.5567782278223837e-02  3.1749132935526381e-01  9.6952938030768365e-01  9.8450897102380841e-01  9.8485231260077477e-01  9.8511797989559369e-01  9.8532117718054080e-01  9.8547688126127397e-01  9.8559247414290252e-01  9.8567141232789601e-01  9.8571525480574795e-01  9.8572469710980259e-01  9.8570014202261536e-01  9.8564198449300833e-01  9.8555064222647792e-01  9.8542632140085418e-01  9.8526846245909383e-01  9.8507479317773472e-01  9.8484024742691323e-01  9.8455807922898264e-01  9.8426188262480907e-01  7.9784189511260117e-01  3.1530904054372039e-01  2.1436348561648250e-02  1.5543353046099551e-02  1.5466742912970578e-02  1.5462760277375833e-02  1.5462985848707578e-02  1.5463012918639800e-02  1.5462954574497013e-02  1.5462892962618284e-02  1.5462822048969279e-02  1.5462741000201088e-02  1.5462655009705249e-02  1.5462569144185053e-02  1.5462488398957766e-02  1.5462423002495323e-02  1.5462455219544842e-02  1.5463205453780169e-02  1.5819480659065469e-02  1.5818129929460169e-02  1.5459669033863034e-02  1.5600253995131557e-02  1.9908790284105934e-01  7.9496637035887363e-01  9.8431416354086887e-01  9.8464496286707226e-01  9.8493610784557029e-01  9.8516668503763982e-01  9.8535003068560256e-01  9.8549311287275521e-01  9.8559919484608038e-01  9.8566960872760856e-01  9.8570483728411573e-01  9.8570512044233449e-01  9.8567073520061166e-01  9.8560205868816730e-01  9.8549945230941072e-01  9.8536297040540122e-01  9.8519183955029133e-01  9.8498338913426031e-01  9.8473139484091032e-01  9.8443761291474319e-01  9.7299170676075031e-01  5.8823888232163934e-01  1.4797750603342780e-01  1.5728653641737707e-02  1.5493502633629896e-02  1.5463779018367008e-02  1.5462677427416079e-02  1.5462825685985643e-02  1.5462857392709051e-02  1.5462785752784801e-02  1.5462672693596668e-02  1.5462546399384528e-02  1.5462416655961316e-02  1.5462290849854647e-02  1.5462184276236033e-02  1.5462196969625927e-02  1.5463069780372924e-02  1.5819581549783086e-02  1.5818257474083244e-02  1.5458127705032468e-02  1.5456471334547098e-02  1.5550549311407673e-02  8.4070077313827402e-02  5.3874634492064244e-01  9.7519385376842138e-01  9.8445832868722349e-01  9.8476707929006502e-01  9.8502297181880327e-01  9.8522988248313847e-01  9.8539604010755266e-01  9.8552523542160897e-01  9.8561888562452460e-01  9.8567736059944655e-01  9.8570066570916504e-01  9.8568882019253801e-01  9.8564203275847084e-01  9.8556071642414722e-01  9.8544532477419511e-01  9.8529585950225429e-01  9.8511090137724444e-01  9.8488634188946866e-01  9.8461454032213136e-01  9.8431683115006496e-01  8.8786466707435674e-01  3.9169852327557703e-01  4.1651442067103667e-02  1.5578658010507548e-02  1.5469960479843869e-02  1.5462572245637546e-02  1.5462710158639056e-02  1.5462735024061520e-02  1.5462603048753737e-02  1.5462432389451641e-02  1.5462242438184412e-02  1.5462048021190413e-02  1.5461875063632948e-02  1.5461847344187093e-02  1.5462848422096130e-02  1.5819666569976208e-02  1.5818856943157593e-02  1.5458906325219858e-02  1.5457951831827389e-02  1.5458774731858204e-02  1.5500006098694619e-02  1.8328536322121412e-02  2.9769913088203920e-01  8.2913896274504961e-01  9.8428528834174100e-01  9.8459308447039195e-01  9.8487596478414818e-01  9.8510682804658745e-01  9.8529493655190703e-01  9.8544548317866010e-01  9.8556060793912437e-01  9.8564080106319329e-01  9.8568594071659899e-01  9.8569586210048876e-01  9.8567061453309068e-01  9.8561053018536326e-01  9.8551610404422429e-01  9.8538765119737937e-01  9.8522468565369259e-01  9.8502480551402105e-01  9.8478220222282797e-01  9.8449303646511921e-01  9.8095324057038602e-01  6.8356298164850116e-01  2.1832044110521387e-01  1.5823847287383817e-02  1.5507931635229573e-02  1.5464102689018233e-02  1.5462373797433437e-02  1.5462444648202352e-02  1.5462314617253937e-02  1.5462057280901340e-02  1.5461760792763025e-02  1.5461480945327847e-02  1.5461376069300004e-02  1.5462501734489128e-02  1.5819719886524062e-02  1.5819352030912247e-02  1.5460136975576470e-02  1.5459010569056514e-02  1.5459691846447366e-02  1.5460214212748962e-02  1.5470928178871890e-02  1.5628512623028237e-02  1.0342961462576304e-01  5.3092887757781237e-01  9.6994360047832728e-01  9.8441726424646103e-01  9.8471814040710992e-01  9.8497496978663335e-01  9.8518562621826933e-01  9.8535726860258321e-01  9.8549308581663508e-01  9.8559409266751430e-01  9.8566035155183584e-01  9.8569163216062650e-01  9.8568779696971254e-01  9.8564896769200305e-01  9.8557550438585428e-01  9.8546780016502311e-01  9.8532582992618589e-01  9.8514838294274498e-01  9.8493187125709658e-01  9.8466881287575758e-01  9.8436931053397103e-01  9.5005196317829566e-01  4.6890131804842528e-01  7.6333001641536877e-02  1.5616305534310433e-02  1.5473585734070903e-02  1.5462232288925619e-02  1.5462051596011855e-02  1.5461853098668953e-02  1.5461435894249835e-02  1.5460993452893349e-02  1.5460749164999583e-02  1.5461974448952477e-02  1.5819715856821768e-02  1.5819613788231886e-02  1.5461200145576996e-02  1.5459945298727643e-02  1.5460420068937213e-02  1.5461011321312751e-02  1.5461292936358095e-02  1.5463336260775644e-02  1.5517305764098084e-02  1.741751824