<?xml version="1.0"?>
<VTKFile type="UnstructuredGrid"  version="0.1"  >
<UnstructuredGrid>
<Piece  NumberOfPoints="1681" NumberOfCells="3200">
<Points>
<DataArray  type="Float64"  NumberOfComponents="3"  format="ascii">0 0 0  0.025 0 0  0.05 0 0  0.075 0 0  0.1 0 0  0.125 0 0  0.15 0 0  0.175 0 0  0.2 0 0  0.225 0 0  0.25 0 0  0.275 0 0  0.3 0 0  0.325 0 0  0.35 0 0  0.375 0 0  0.4 0 0  0.425 0 0  0.45 0 0  0.475 0 0  0.5 0 0  0.525 0 0  0.55 0 0  0.575 0 0  0.6 0 0  0.625 0 0  0.65 0 0  0.675 0 0  0.7 0 0  0.725 0 0  0.75 0 0  0.775 0 0  0.8 0 0  0.825 0 0  0.85 0 0  0.875 0 0  0.9 0 0  0.925 0 0  0.95 0 0  0.975 0 0  1 0 0  0 0.025 0  0.025 0.025 0  0.05 0.025 0  0.075 0.025 0  0.1 0.025 0  0.125 0.025 0  0.15 0.025 0  0.175 0.025 0  0.2 0.025 0  0.225 0.025 0  0.25 0.025 0  0.275 0.025 0  0.3 0.025 0  0.325 0.025 0  0.35 0.025 0  0.375 0.025 0  0.4 0.025 0  0.425 0.025 0  0.45 0.025 0  0.475 0.025 0  0.5 0.025 0  0.525 0.025 0  0.55 0.025 0  0.575 0.025 0  0.6 0.025 0  0.625 0.025 0  0.65 0.025 0  0.675 0.025 0  0.7 0.025 0  0.725 0.025 0  0.75 0.025 0  0.775 0.025 0  0.8 0.025 0  0.825 0.025 0  0.85 0.025 0  0.875 0.025 0  0.9 0.025 0  0.925 0.025 0  0.95 0.025 0  0.975 0.025 0  1 0.025 0  0 0.05 0  0.025 0.05 0  0.05 0.05 0  0.075 0.05 0  0.1 0.05 0  0.125 0.05 0  0.15 0.05 0  0.175 0.05 0  0.2 0.05 0  0.225 0.05 0  0.25 0.05 0  0.275 0.05 0  0.3 0.05 0  0.325 0.05 0  0.35 0.05 0  0.375 0.05 0  0.4 0.05 0  0.425 0.05 0  0.45 0.05 0  0.475 0.05 0  0.5 0.05 0  0.525 0.05 0  0.55 0.05 0  0.575 0.05 0  0.6 0.05 0  0.625 0.05 0  0.65 0.05 0  0.675 0.05 0  0.7 0.05 0  0.725 0.05 0  0.75 0.05 0  0.775 0.05 0  0.8 0.05 0  0.825 0.05 0  0.85 0.05 0  0.875 0.05 0  0.9 0.05 0  0.925 0.05 0  0.95 0.05 0  0.975 0.05 0  1 0.05 0  0 0.075 0  0.025 0.075 0  0.05 0.075 0  0.075 0.075 0  0.1 0.075 0  0.125 0.075 0  0.15 0.075 0  0.175 0.075 0  0.2 0.075 0  0.225 0.075 0  0.25 0.075 0  0.275 0.075 0  0.3 0.075 0  0.325 0.075 0  0.35 0.075 0  0.375 0.075 0  0.4 0.075 0  0.425 0.075 0  0.45 0.075 0  0.475 0.075 0  0.5 0.075 0  0.525 0.075 0  0.55 0.075 0  0.575 0.075 0  0.6 0.075 0  0.625 0.075 0  0.65 0.075 0  0.675 0.075 0  0.7 0.075 0  0.725 0.075 0  0.75 0.075 0  0.775 0.075 0  0.8 0.075 0  0.825 0.075 0  0.85 0.075 0  0.875 0.075 0  0.9 0.075 0  0.925 0.075 0  0.95 0.075 0  0.975 0.075 0  1 0.075 0  0 0.1 0  0.025 0.1 0  0.05 0.1 0  0.075 0.1 0  0.1 0.1 0  0.125 0.1 0  0.15 0.1 0  0.175 0.1 0  0.2 0.1 0  0.225 0.1 0  0.25 0.1 0  0.275 0.1 0  0.3 0.1 0  0.325 0.1 0  0.35 0.1 0  0.375 0.1 0  0.4 0.1 0  0.425 0.1 0  0.45 0.1 0  0.475 0.1 0  0.5 0.1 0  0.525 0.1 0  0.55 0.1 0  0.575 0.1 0  0.6 0.1 0  0.625 0.1 0  0.65 0.1 0  0.675 0.1 0  0.7 0.1 0  0.725 0.1 0  0.75 0.1 0  0.775 0.1 0  0.8 0.1 0  0.825 0.1 0  0.85 0.1 0  0.875 0.1 0  0.9 0.1 0  0.925 0.1 0  0.95 0.1 0  0.975 0.1 0  1 0.1 0  0 0.125 0  0.025 0.125 0  0.05 0.125 0  0.075 0.125 0  0.1 0.125 0  0.125 0.125 0  0.15 0.125 0  0.175 0.125 0  0.2 0.125 0  0.225 0.125 0  0.25 0.125 0  0.275 0.125 0  0.3 0.125 0  0.325 0.125 0  0.35 0.125 0  0.375 0.125 0  0.4 0.125 0  0.425 0.125 0  0.45 0.125 0  0.475 0.125 0  0.5 0.125 0  0.525 0.125 0  0.55 0.125 0  0.575 0.125 0  0.6 0.125 0  0.625 0.125 0  0.65 0.125 0  0.675 0.125 0  0.7 0.125 0  0.725 0.125 0  0.75 0.125 0  0.775 0.125 0  0.8 0.125 0  0.825 0.125 0  0.85 0.125 0  0.875 0.125 0  0.9 0.125 0  0.925 0.125 0  0.95 0.125 0  0.975 0.125 0  1 0.125 0  0 0.15 0  0.025 0.15 0  0.05 0.15 0  0.075 0.15 0  0.1 0.15 0  0.125 0.15 0  0.15 0.15 0  0.175 0.15 0  0.2 0.15 0  0.225 0.15 0  0.25 0.15 0  0.275 0.15 0  0.3 0.15 0  0.325 0.15 0  0.35 0.15 0  0.375 0.15 0  0.4 0.15 0  0.425 0.15 0  0.45 0.15 0  0.475 0.15 0  0.5 0.15 0  0.525 0.15 0  0.55 0.15 0  0.575 0.15 0  0.6 0.15 0  0.625 0.15 0  0.65 0.15 0  0.675 0.15 0  0.7 0.15 0  0.725 0.15 0  0.75 0.15 0  0.775 0.15 0  0.8 0.15 0  0.825 0.15 0  0.85 0.15 0  0.875 0.15 0  0.9 0.15 0  0.925 0.15 0  0.95 0.15 0  0.975 0.15 0  1 0.15 0  0 0.175 0  0.025 0.175 0  0.05 0.175 0  0.075 0.175 0  0.1 0.175 0  0.125 0.175 0  0.15 0.175 0  0.175 0.175 0  0.2 0.175 0  0.225 0.175 0  0.25 0.175 0  0.275 0.175 0  0.3 0.175 0  0.325 0.175 0  0.35 0.175 0  0.375 0.175 0  0.4 0.175 0  0.425 0.175 0  0.45 0.175 0  0.475 0.175 0  0.5 0.175 0  0.525 0.175 0  0.55 0.175 0  0.575 0.175 0  0.6 0.175 0  0.625 0.175 0  0.65 0.175 0  0.675 0.175 0  0.7 0.175 0  0.725 0.175 0  0.75 0.175 0  0.775 0.175 0  0.8 0.175 0  0.825 0.175 0  0.85 0.175 0  0.875 0.175 0  0.9 0.175 0  0.925 0.175 0  0.95 0.175 0  0.975 0.175 0  1 0.175 0  0 0.2 0  0.025 0.2 0  0.05 0.2 0  0.075 0.2 0  0.1 0.2 0  0.125 0.2 0  0.15 0.2 0  0.175 0.2 0  0.2 0.2 0  0.225 0.2 0  0.25 0.2 0  0.275 0.2 0  0.3 0.2 0  0.325 0.2 0  0.35 0.2 0  0.375 0.2 0  0.4 0.2 0  0.425 0.2 0  0.45 0.2 0  0.475 0.2 0  0.5 0.2 0  0.525 0.2 0  0.55 0.2 0  0.575 0.2 0  0.6 0.2 0  0.625 0.2 0  0.65 0.2 0  0.675 0.2 0  0.7 0.2 0  0.725 0.2 0  0.75 0.2 0  0.775 0.2 0  0.8 0.2 0  0.825 0.2 0  0.85 0.2 0  0.875 0.2 0  0.9 0.2 0  0.925 0.2 0  0.95 0.2 0  0.975 0.2 0  1 0.2 0  0 0.225 0  0.025 0.225 0  0.05 0.225 0  0.075 0.225 0  0.1 0.225 0  0.125 0.225 0  0.15 0.225 0  0.175 0.225 0  0.2 0.225 0  0.225 0.225 0  0.25 0.225 0  0.275 0.225 0  0.3 0.225 0  0.325 0.225 0  0.35 0.225 0  0.375 0.225 0  0.4 0.225 0  0.425 0.225 0  0.45 0.225 0  0.475 0.225 0  0.5 0.225 0  0.525 0.225 0  0.55 0.225 0  0.575 0.225 0  0.6 0.225 0  0.625 0.225 0  0.65 0.225 0  0.675 0.225 0  0.7 0.225 0  0.725 0.225 0  0.75 0.225 0  0.775 0.225 0  0.8 0.225 0  0.825 0.225 0  0.85 0.225 0  0.875 0.225 0  0.9 0.225 0  0.925 0.225 0  0.95 0.225 0  0.975 0.225 0  1 0.225 0  0 0.25 0  0.025 0.25 0  0.05 0.25 0  0.075 0.25 0  0.1 0.25 0  0.125 0.25 0  0.15 0.25 0  0.175 0.25 0  0.2 0.25 0  0.225 0.25 0  0.25 0.25 0  0.275 0.25 0  0.3 0.25 0  0.325 0.25 0  0.35 0.25 0  0.375 0.25 0  0.4 0.25 0  0.425 0.25 0  0.45 0.25 0  0.475 0.25 0  0.5 0.25 0  0.525 0.25 0  0.55 0.25 0  0.575 0.25 0  0.6 0.25 0  0.625 0.25 0  0.65 0.25 0  0.675 0.25 0  0.7 0.25 0  0.725 0.25 0  0.75 0.25 0  0.775 0.25 0  0.8 0.25 0  0.825 0.25 0  0.85 0.25 0  0.875 0.25 0  0.9 0.25 0  0.925 0.25 0  0.95 0.25 0  0.975 0.25 0  1 0.25 0  0 0.275 0  0.025 0.275 0  0.05 0.275 0  0.075 0.275 0  0.1 0.275 0  0.125 0.275 0  0.15 0.275 0  0.175 0.275 0  0.2 0.275 0  0.225 0.275 0  0.25 0.275 0  0.275 0.275 0  0.3 0.275 0  0.325 0.275 0  0.35 0.275 0  0.375 0.275 0  0.4 0.275 0  0.425 0.275 0  0.45 0.275 0  0.475 0.275 0  0.5 0.275 0  0.525 0.275 0  0.55 0.275 0  0.575 0.275 0  0.6 0.275 0  0.625 0.275 0  0.65 0.275 0  0.675 0.275 0  0.7 0.275 0  0.725 0.275 0  0.75 0.275 0  0.775 0.275 0  0.8 0.275 0  0.825 0.275 0  0.85 0.275 0  0.875 0.275 0  0.9 0.275 0  0.925 0.275 0  0.95 0.275 0  0.975 0.275 0  1 0.275 0  0 0.3 0  0.025 0.3 0  0.05 0.3 0  0.075 0.3 0  0.1 0.3 0  0.125 0.3 0  0.15 0.3 0  0.175 0.3 0  0.2 0.3 0  0.225 0.3 0  0.25 0.3 0  0.275 0.3 0  0.3 0.3 0  0.325 0.3 0  0.35 0.3 0  0.375 0.3 0  0.4 0.3 0  0.425 0.3 0  0.45 0.3 0  0.475 0.3 0  0.5 0.3 0  0.525 0.3 0  0.55 0.3 0  0.575 0.3 0  0.6 0.3 0  0.625 0.3 0  0.65 0.3 0  0.675 0.3 0  0.7 0.3 0  0.725 0.3 0  0.75 0.3 0  0.775 0.3 0  0.8 0.3 0  0.825 0.3 0  0.85 0.3 0  0.875 0.3 0  0.9 0.3 0  0.925 0.3 0  0.95 0.3 0  0.975 0.3 0  1 0.3 0  0 0.325 0  0.025 0.325 0  0.05 0.325 0  0.075 0.325 0  0.1 0.325 0  0.125 0.325 0  0.15 0.325 0  0.175 0.325 0  0.2 0.325 0  0.225 0.325 0  0.25 0.325 0  0.275 0.325 0  0.3 0.325 0  0.325 0.325 0  0.35 0.325 0  0.375 0.325 0  0.4 0.325 0  0.425 0.325 0  0.45 0.325 0  0.475 0.325 0  0.5 0.325 0  0.525 0.325 0  0.55 0.325 0  0.575 0.325 0  0.6 0.325 0  0.625 0.325 0  0.65 0.325 0  0.675 0.325 0  0.7 0.325 0  0.725 0.325 0  0.75 0.325 0  0.775 0.325 0  0.8 0.325 0  0.825 0.325 0  0.85 0.325 0  0.875 0.325 0  0.9 0.325 0  0.925 0.325 0  0.95 0.325 0  0.975 0.325 0  1 0.325 0  0 0.35 0  0.025 0.35 0  0.05 0.35 0  0.075 0.35 0  0.1 0.35 0  0.125 0.35 0  0.15 0.35 0  0.175 0.35 0  0.2 0.35 0  0.225 0.35 0  0.25 0.35 0  0.275 0.35 0  0.3 0.35 0  0.325 0.35 0  0.35 0.35 0  0.375 0.35 0  0.4 0.35 0  0.425 0.35 0  0.45 0.35 0  0.475 0.35 0  0.5 0.35 0  0.525 0.35 0  0.55 0.35 0  0.575 0.35 0  0.6 0.35 0  0.625 0.35 0  0.65 0.35 0  0.675 0.35 0  0.7 0.35 0  0.725 0.35 0  0.75 0.35 0  0.775 0.35 0  0.8 0.35 0  0.825 0.35 0  0.85 0.35 0  0.875 0.35 0  0.9 0.35 0  0.925 0.35 0  0.95 0.35 0  0.975 0.35 0  1 0.35 0  0 0.375 0  0.025 0.375 0  0.05 0.375 0  0.075 0.375 0  0.1 0.375 0  0.125 0.375 0  0.15 0.375 0  0.175 0.375 0  0.2 0.375 0  0.225 0.375 0  0.25 0.375 0  0.275 0.375 0  0.3 0.375 0  0.325 0.375 0  0.35 0.375 0  0.375 0.375 0  0.4 0.375 0  0.425 0.375 0  0.45 0.375 0  0.475 0.375 0  0.5 0.375 0  0.525 0.375 0  0.55 0.375 0  0.575 0.375 0  0.6 0.375 0  0.625 0.375 0  0.65 0.375 0  0.675 0.375 0  0.7 0.375 0  0.725 0.375 0  0.75 0.375 0  0.775 0.375 0  0.8 0.375 0  0.825 0.375 0  0.85 0.375 0  0.875 0.375 0  0.9 0.375 0  0.925 0.375 0  0.95 0.375 0  0.975 0.375 0  1 0.375 0  0 0.4 0  0.025 0.4 0  0.05 0.4 0  0.075 0.4 0  0.1 0.4 0  0.125 0.4 0  0.15 0.4 0  0.175 0.4 0  0.2 0.4 0  0.225 0.4 0  0.25 0.4 0  0.275 0.4 0  0.3 0.4 0  0.325 0.4 0  0.35 0.4 0  0.375 0.4 0  0.4 0.4 0  0.425 0.4 0  0.45 0.4 0  0.475 0.4 0  0.5 0.4 0  0.525 0.4 0  0.55 0.4 0  0.575 0.4 0  0.6 0.4 0  0.625 0.4 0  0.65 0.4 0  0.675 0.4 0  0.7 0.4 0  0.725 0.4 0  0.75 0.4 0  0.775 0.4 0  0.8 0.4 0  0.825 0.4 0  0.85 0.4 0  0.875 0.4 0  0.9 0.4 0  0.925 0.4 0  0.95 0.4 0  0.975 0.4 0  1 0.4 0  0 0.425 0  0.025 0.425 0  0.05 0.425 0  0.075 0.425 0  0.1 0.425 0  0.125 0.425 0  0.15 0.425 0  0.175 0.425 0  0.2 0.425 0  0.225 0.425 0  0.25 0.425 0  0.275 0.425 0  0.3 0.425 0  0.325 0.425 0  0.35 0.425 0  0.375 0.425 0  0.4 0.425 0  0.425 0.425 0  0.45 0.425 0  0.475 0.425 0  0.5 0.425 0  0.525 0.425 0  0.55 0.425 0  0.575 0.425 0  0.6 0.425 0  0.625 0.425 0  0.65 0.425 0  0.675 0.425 0  0.7 0.425 0  0.725 0.425 0  0.75 0.425 0  0.775 0.425 0  0.8 0.425 0  0.825 0.425 0  0.85 0.425 0  0.875 0.425 0  0.9 0.425 0  0.925 0.425 0  0.95 0.425 0  0.975 0.425 0  1 0.425 0  0 0.45 0  0.02
[...]
<PointData  Scalars="ControlVisualisation"> 
<DataArray  type="Float64"  Name="ControlVisualisation"  format="ascii">9.7673434973165110e-05  6.5170935759541470e-05  6.5331480662299908e-05  6.5575556441259587e-05  6.5863912614993737e-05  6.6158912077857765e-05  6.6431371293180962e-05  6.6663665790670922e-05  6.6848253626600876e-05  6.6984529260870530e-05  6.7075858885276191e-05  6.7127437108854655e-05  6.7144964727971357e-05  6.7133933243453242e-05  6.7099295536762315e-05  6.7045359373150046e-05  6.6975799636561788e-05  6.6893727310170096e-05  6.6801779203195822e-05  6.6702208142006071e-05  6.6596963199347020e-05  6.6487755804563441e-05  6.6376111377664378e-05  6.6263408131025123e-05  6.6150905448036801e-05  6.6039764254523581e-05  6.5931061421943638e-05  6.5825799742249625e-05  6.5724914554132928e-05  6.5629277748287956e-05  6.5539699654780181e-05  6.5456929196351893e-05  6.5381652648793776e-05  6.5314491286209012e-05  6.5255998420107371e-05  6.5206655677921150e-05  6.5166869741835036e-05  6.5136961706607587e-05  6.5117253351100997e-05  6.5107577837729907e-05  1.9531320055637960e-04  6.5173641633845957e-05  3.2644824847825332e-05  3.2808739655388927e-05  3.3073670732977331e-05  3.3401802561810128e-05  3.3748923556304332e-05  3.4078336566853246e-05  3.4365879447130111e-05  3.4599341046578035e-05  3.4775471276639341e-05  3.4896654304374197e-05  3.4968245123209946e-05  3.4996775337856318e-05  3.4988888257885707e-05  3.4950781355356653e-05  3.4887966085661346e-05  3.4805212328041572e-05  3.4706591741597884e-05  3.4595566321942991e-05  3.4475089620858326e-05  3.4347702481426912e-05  3.4215614860879093e-05  3.4080771455225350e-05  3.3944902238281494e-05  3.3809560491204529e-05  3.3676151161806943e-05  3.3545952031759896e-05  3.3420129583205577e-05  3.3299750884019284e-05  3.3185792366644528e-05  3.3079146085450106e-05  3.2980623880390450e-05  3.2890959805285982e-05  3.2810811149363152e-05  3.2740758520816349e-05  3.2681304621014849e-05  3.2632874012021504e-05  3.2595811391772918e-05  3.2570350645092858e-05  3.2555872379237048e-05  6.5107579534422688e-05  6.5362357693041245e-05  3.2834196284966529e-05  3.3046182996680419e-05  3.3350839367733621e-05  3.3723745111824605e-05  3.4113236672512294e-05  3.4478742266891429e-05  3.4794855024800384e-05  3.5049307360690863e-05  3.5239244483455690e-05  3.5367634993670359e-05  3.5440501032545103e-05  3.5465081371017156e-05  3.5448738869154340e-05  3.5398371603496918e-05  3.5320144472813108e-05  3.5219417293865521e-05  3.5100785018410593e-05  3.4968171967708331e-05  3.4824942065966181e-05  3.4674003146691323e-05  3.4517895331876884e-05  3.4358861136575166e-05  3.4198899008096510e-05  3.4039803560192972e-05  3.3883195856852825e-05  3.3730546502780778e-05  3.3583193509342421e-05  3.3442356203727988e-05  3.3309145953154418e-05  3.3184574191713727e-05  3.3069558115125538e-05  3.2964924386325973e-05  3.2871411200180918e-05  3.2789669151427316e-05  3.2720260832820740e-05  3.2663662327060868e-05  3.2620242237767330e-05  3.2590123640924218e-05  3.2570436077993202e-05  6.5117296804475657e-05  6.5736045026101197e-05  3.3221226652628827e-05  3.3490173897829120e-05  3.3793068120844157e-05  3.4139681543924608e-05  3.4487262766869248e-05  3.4804258449143821e-05  3.5072085009119839e-05  3.5282477719057873e-05  3.5434514303064939e-05  3.5531578509977731e-05  3.5579198657806066e-05  3.5583747965883099e-05  3.5551664552205195e-05  3.5488995936329713e-05  3.5401169236770379e-05  3.5292923432203927e-05  3.5168344837903823e-05  3.5030953653582198e-05  3.4883803391382911e-05  3.4729571330661023e-05  3.4570631491548217e-05  3.4409109695213079e-05  3.4246923867416580e-05  3.4085813582533920e-05  3.3927362338873317e-05  3.3773015051660131e-05  3.3624092238302034e-05  3.3481801609058639e-05  3.3347247335945952e-05  3.3221437109460483e-05  3.3105287102938892e-05  3.2999625053775496e-05  3.2905191746581162e-05  3.2822641339874842e-05  3.2752540402899263e-05  3.2695367208804167e-05  3.2651478354110693e-05  3.2620755660237369e-05  3.2596322433258110e-05  6.5137267566331406e-05  6.6319603800588968e-05  3.3854110530625117e-05  3.4331229537324519e-05  3.4591268271354643e-05  3.4832926586432949e-05  3.5069238496287172e-05  3.5284641730413129e-05  3.5463131471368456e-05  3.5598063989047886e-05  3.5688747103738772e-05  3.5737107508162739e-05  3.5746636758250463e-05  3.5721717696223631e-05  3.5667074054824592e-05  3.5587320344221795e-05  3.5486687136571525e-05  3.5368918446828320e-05  3.5237287899894593e-05  3.5094671404274821e-05  3.4943628638372153e-05  3.4786469835225415e-05  3.4625302738913021e-05  3.4462063021364057e-05  3.4298533547440661e-05  3.4136357364542946e-05  3.3977047881823422e-05  3.3821998131383054e-05  3.3672489692285228e-05  3.3529701045303647e-05  3.3394714821974594e-05  3.3268523474382582e-05  3.3152033132152949e-05  3.3046065679088018e-05  3.2951359269688981e-05  3.2868567710512380e-05  3.2798258446248018e-05  3.2740910230422321e-05  3.2696863008774693e-05  3.2665657290605820e-05  3.2634625923139294e-05  6.5168026721428804e-05  6.7086199750010601e-05  3.5517955469950194e-05  3.6269453015611949e-05  3.6062149114572613e-05  3.5922190126914449e-05  3.5915347881670103e-05  3.5950326447204256e-05  3.5984961094671546e-05  3.6009332492143234e-05  3.6015682845316586e-05  3.5999701458401752e-05  3.5959949653138420e-05  3.5897335454321586e-05  3.5814061593394115e-05  3.5712785722964935e-05  3.5596147852821548e-05  3.5466571858222535e-05  3.5326254577309449e-05  3.5177228638989732e-05  3.5021420082110742e-05  3.4860678181482823e-05  3.4696782867599985e-05  3.4531439570902164e-05  3.4366269336106589e-05  3.4202799654223659e-05  3.4042459087439305e-05  3.3886576509053956e-05  3.3736384079222938e-05  3.3593022242178153e-05  3.3457545006433235e-05  3.3330924237026113e-05  3.3214052299358323e-05  3.3107742918995467e-05  3.3012730453655632e-05  3.2929668043335307e-05  3.2859124404512115e-05  3.2801579654406397e-05  3.2757353194542533e-05  3.2725539834081018e-05  3.2685823336430103e-05  6.5209818896636135e-05  7.9317474020422686e-05  4.3539859076414211e-05  4.5705888343998016e-05  4.1277816159838489e-05  3.8206720806230824e-05  3.7271442560199516e-05  3.6849778846230882e-05  3.6637574657378318e-05  3.6506518673940358e-05  3.6406954031973162e-05  3.6313349399084829e-05  3.6214843422757480e-05  3.6107630658277545e-05  3.5990676110192619e-05  3.5864278052533635e-05  3.5729158722124599e-05  3.5586084427336414e-05  3.5435891477734110e-05  3.5279577188479228e-05  3.5118318153807646e-05  3.4953436679528978e-05  3.4786349192954170e-05  3.4618512512834221e-05  3.4451375964839067e-05  3.4286344409512943e-05  3.4124754405427153e-05  3.3967862625485517e-05  3.3816843326276863e-05  3.3672790848936332e-05  3.3536723671739170e-05  3.3409587735341303e-05  3.3292257959320875e-05  3.3185537742242819e-05  3.3090156723974236e-05  3.3006767413968407e-05  3.2935940514638821e-05  3.2878158353490408e-05  3.2833715114089732e-05  3.2801147947829362e-05  3.2750518532746604e-05  6.5263087026492310e-05  1.8153306822636547e-01  1.3034953177811076e-01  8.7070810734591345e-02  3.5108982216088089e-04  7.0692832428417572e-05  4.5828598501035823e-05  3.9341942378974187e-05  3.7624852301528416e-05  3.7111714859616303e-05  3.6858649069887300e-05  3.6670024578210547e-05  3.6504598939653531e-05  3.6347562083654959e-05  3.6192980613549897e-05  3.6038888936587578e-05  3.5883858139522605e-05  3.5726484118391415e-05  3.5565887328274729e-05  3.5401862455151521e-05  3.5234766817900296e-05  3.5065372550559593e-05  3.4894733251002263e-05  3.4724068249125205e-05  3.4554667502240867e-05  3.4387821175676084e-05  3.4224775229489790e-05  3.4066709851762239e-05  3.3914733775582465e-05  3.3769886701891722e-05  3.3633143833587457e-05  3.3505419110384871e-05  3.3387565843177968e-05  3.3280374722013577e-05  3.3184569754143055e-05  3.3100802991756616e-05  3.3029647975273425e-05  3.2971590101139692e-05  3.2926893134957969e-05  3.2893416341063328e-05  3.2829487653741105e-05  6.5328393064576501e-05  9.9971318248608565e-01  9.9917296973471426e-01  8.1300371366256818e-01  5.6957581592837558e-01  3.1410733121630968e-01  6.8066675509247249e-02  9.1991416544123420e-05  4.6511457379312181e-05  3.9081784001270995e-05  3.7561966073020282e-05  3.7091520474983371e-05  3.6828538239276967e-05  3.6612806307832420e-05  3.6415686628563851e-05  3.6232520303493515e-05  3.6057806798777889e-05  3.5886591330862553e-05  3.5715914640075381e-05  3.5544315935857083e-05  3.5371345930821441e-05  3.5197266096588993e-05  3.5022818642414482e-05  3.4849036638231929e-05  3.4677093431073052e-05  3.4508192111135853e-05  3.4343498991171529e-05  3.4184115926179819e-05  3.4031077335184040e-05  3.3885357486401313e-05  3.3747878493153664e-05  3.3619514741745794e-05  3.3501092894583251e-05  3.3393388158891121e-05  3.3297117953630394e-05  3.3212934229158240e-05  3.3141414503211763e-05  3.3083048399594264e-05  3.3038063935385440e-05  3.3003512398444579e-05  3.2923697515271883e-05  6.5406435347879373e-05  9.9993605984782796e-01  9.9995567730990498e-01  9.9992999821741524e-01  9.9984976337852782e-01  9.6849920456340655e-01  6.5722098385602601e-01  3.6006846510216395e-01  6.9281235540437039e-02  8.2663241537758711e-05  4.4597732336948557e-05  3.8441872233453392e-05  3.7337485850301809e-05  3.6921720472580190e-05  3.6653710576007454e-05  3.6440471441466510e-05  3.6248438369293050e-05  3.6065289070922975e-05  3.5885841312266496e-05  3.5707435138264500e-05  3.5528914505430648e-05  3.5350163341205774e-05  3.5171723723079972e-05  3.4994545378588885e-05  3.4819772179835725e-05  3.4648574061098798e-05  3.4482057353980519e-05  3.4321241761315210e-05  3.4167072799553447e-05  3.4020442965689367e-05  3.3882207512263685e-05  3.3753191275983700e-05  3.3634187888605224e-05  3.3525953722668299e-05  3.3429198613004388e-05  3.3344575093811458e-05  3.3272666364045367e-05  3.3213968108465093e-05  3.3168667374213840e-05  3.3132864875660002e-05  3.3034328791611602e-05  6.5498062308902804e-05  9.9995011162710246e-01  9.9997325256986513e-01  9.9996731890528123e-01  9.9995585273290721e-01  9.9992863433965495e-01  9.9983126323274918e-01  9.3761034900129103e-01  6.2331677567765664e-01  3.2037488178725448e-01  3.1976772417422986e-02  6.8266245069702812e-05  4.2390479366711459e-05  3.7836956537033468e-05  3.6999858442394198e-05  3.6677542269814245e-05  3.6456966240755312e-05  3.6262421421785251e-05  3.6076190763978424e-05  3.5892207859386226e-05  3.5708762827282438e-05  3.5525501675371055e-05  3.5342877576172784e-05  3.5161947811995763e-05  3.4983988362879631e-05  3.4810224017362922e-05  3.4641723445577535e-05  3.4479406731584603e-05  3.4324100406697000e-05  3.4176587998535942e-05  3.4037637886493355e-05  3.3908011972081456e-05  3.3788462708034732e-05  3.3679723543496900e-05  3.3582495740972569e-05  3.3497433680801328e-05  3.3425128933406106e-05  3.3366086276610644e-05  3.3320447027044030e-05  3.3283203640665392e-05  3.3162807137530300e-05  6.5604290097463986e-05  9.9992026803560052e-01  9.9996613852266159e-01  9.9996566943701914e-01  9.9996330396227107e-01  9.9995800448871341e-01  9.9994563850903406e-01  9.9991051594702518e-01  9.9974973724582827e-01  8.6579694784465711e-01  5.6515080952704300e-01  2.6185467891248193e-01  8.6512473273743734e-04  5.7888434338326385e-05  4.0427579872587804e-05  3.7389529000460452e-05  3.6761267600196819e-05  3.6493848531764531e-05  3.6291028156484890e-05  3.6100562102111374e-05  3.5912963457992014e-05  3.5725342576203524e-05  3.5538120606962660e-05  3.5352840479796657e-05  3.5171158701681983e-05  3.4994492084969321e-05  3.4823878436793292e-05  3.4660074974163044e-05  3.4503724698924478e-05  3.4355458315903816e-05  3.4215929919079725e-05  3.4085821371724565e-05  3.3965833836785525e-05  3.3856672882258344e-05  3.3759030273272983e-05  3.3673564423665074e-05  3.3600879594889319e-05  3.3541494740465802e-05  3.3495501916550880e-05  3.3456609851525765e-05  3.3310841590787922e-05  6.5726323827217822e-05  9.9945389568344389e-01  9.9987260719702731e-01  9.9991407052676784e-01  9.9993753499967630e-01  9.9994970986954379e-01  9.9995285461839056e-01  9.9994909484300332e-01  9.9993408837209552e-01  9.9988573380115153e-01  9.9954794054784535e-01  7.9234178245723030e-01  5.0342074241032886e-01  2.0127683232845020e-01  1.8579690466476084e-04  5.1446532526665581e-05  3.9248378223542906e-05  3.7091432622945898e-05  3.6587188721176009e-05  3.6345500847287409e-05  3.6146938743688919e-05  3.5952812854566450e-05  3.5759888572157790e-05  3.5569080890561499e-05  3.5382708699074707e-05  3.5202702008164842e-05  3.5029949805343404e-05  3.4864835305420288e-05  3.4707699257203855e-05  3.4558962956098666e-05  3.4419133468893649e-05  3.4288792903984320e-05  3.4168579232698476e-05  3.4059163950579533e-05  3.3961228351120330e-05  3.3875438410680599e-05  3.3802418002473949e-05  3.3742708816276381e-05  3.3696352850017160e-05  3.3655579192597260e-05  3.3480472112184881e-05  6.5865583046834642e-05  8.7594829784825079e-02  4.1341516040053239e-01  7.1733299503210668e-01  9.9677068261002644e-01  9.9984168341445545e-01  9.9991869005910194e-01  9.9994130779613488e-01  9.9994678999160436e-01  9.9994241896022906e-01  9.9992240521962705e-01  9.9985178564555599e-01  9.9820895664586862e-01  7.2701802017735051e-01  4.4145052877570140e-01  1.4126098215096100e-01  1.1350282245638658e-04  4.7082182235467779e-05  3.8361125103985759e-05  3.6864779928937946e-05  3.6452678562821475e-05  3.6217983870082616e-05  3.6013340991432663e-05  3.5812860364632025e-05  3.5619610834267118e-05  3.5435925865275258e-05  3.5261347205371557e-05  3.5095383935022319e-05  3.4937980052705841e-05  3.4789288975882003e-05  3.4649638756088177e-05  3.4519494736021030e-05  3.4399417049207838e-05  3.4290034187285353e-05  3.4192015314783120e-05  3.4106039197440814e-05  3.4032760267004878e-05  3.3972757339801751e-05  3.3926027078372564e-05  3.3883100457375993e-05  3.3674126913113329e-05  6.6023730819146263e-05  7.3370932927366203e-05  7.1117208748905291e-05  9.0013675804757803e-02  3.8978526063105096e-01  6.8570494623298495e-01  9.8605667510202333e-01  9.9982617900991355e-01  9.9991377973436812e-01  9.9993786264425188e-01  9.9994286291323720e-01  9.9993639875853491e-01  9.9990853326689566e-01  9.9980125201533598e-01  9.5662146560139694e-01  6.7079386507535321e-01  3.8191795218101943e-01  8.4810974195377101e-02  8.3896983607422316e-05  4.3970564551873113e-05  3.7718721927996218e-05  3.6686638083977163e-05  3.6333927348204492e-05  3.6088066632278875e-05  3.5881992294660195e-05  3.5695148646663374e-05  3.5519442918245988e-05  3.5353524322687615e-05  3.5196771636035585e-05  3.5048952709380645e-05  3.4910245942862562e-05  3.4780981391576053e-05  3.4661615730437949e-05  3.4552720163112118e-05  3.4454947284831122e-05  3.4368995604822665e-05  3.4295567117578433e-05  3.4235301753716510e-05  3.4188166073883173e-05  3.4142751448490278e-05  3.3894689088444283e-05  6.6202704658489573e-05  6.8517325245720406e-05  3.8887412865039298e-05  5.1324163587913173e-05  1.2777819803794208e-04  1.3663941467402593e-01  4.2776103821414363e-01  7.1293516141038749e-01  9.9639942263946368e-01  9.9983373799318964e-01  9.9991367485333393e-01  9.9993579569823599e-01  9.9993924761548614e-01  9.9992967737691474e-01  9.9989260614417275e-01  9.9972535861102207e-01  8.9523897823930654e-01  6.1496068835029150e-01  3.2203126834227236e-01  3.4450945697418425e-02  6.7954881963057932e-05  4.1833621467647212e-05  3.7322844397654838e-05  3.6491587482584288e-05  3.6191053793255494e-05  3.5984781167897024e-05  3.5805891114422582e-05  3.5641542598003684e-05  3.5486614937410771e-05  3.5340851136587808e-05  3.5204264703376565e-05  3.5076920825376440e-05  3.4959149271588371e-05  3.4851434609295372e-05  3.4754399197406203e-05  3.4668769665519395e-05  3.4595321847702938e-05  3.4534795989986941e-05  3.4487162603613534e-05  3.4438812624168908e-05  3.4145568857110918e-05  6.6404744607191359e-05  6.9351705595185247e-05  3.8212354390454475e-05  4.0534323397012127e-05  4.3152823538566520e-05  5.4994760469147746e-05  1.6878942963768152e-04  1.7475253003758068e-01  4.6614591821871865e-01  7.4611287434247020e-01  9.9881834879422460e-01  9.9984545727048013e-01  9.9991442915585294e-01  9.9993385689475600e-01  9.9993545767721259e-01  9.9992209681629285e-01  9.9987355207109552e-01  9.9958226709997233e-01  8.3406737912013618e-01  5.5910260980700210e-01  2.6420000424837670e-01  1.1164196338431982e-03  5.8210997359825451e-05  4.0155003882392059e-05  3.7022918593861877e-05  3.6384859366921045e-05  3.6140188002720884e-05  3.5965220581075505e-05  3.5810519617717897e-05  3.5668510983434959e-05  3.5535665861924786e-05  3.5411760613722875e-05  3.5296920296575907e-05  3.5191427083118527e-05  3.5095840032444452e-05  3.5010928209673815e-05  3.4937584152780978e-05  3.4876706641375015e-05  3.4828335771558763e-05  3.4776394907032707e-05  3.4430770095850283e-05  6.6632407478895700e-05  6.9063994452364178e-05  3.7652989782410842e-05  3.8931818506966154e-05  3.9359104931516947e-05  4.0035883992391554e-05  4.2720786921299767e-05  5.7378254273127617e-05  2.6437888687060978e-04  2.1423525861510415e-01  5.0728704394019342e-01  7.8324610660508109e-01  9.9932741136273773e-01  9.9985593265815154e-01  9.9991547105317424e-01  9.9993222657373959e-01  9.9993184081745223e-01  9.9991390071922404e-01  9.9984916711732685e-01  9.9917281733610563e-01  7.7611124736178139e-01  5.0501185660160053e-01  2.0859816868005007e-01  2.0853365685843771e-04  5.2282660382986622e-05  3.9209327743822672e-05  3.6893727865412501e-05  3.6386816539211050e-05  3.6184262659569534e-05  3.6038536692126975e-05  3.5909355923552964e-05  3.5791000009920114e-05  3.5681125642335023e-05  3.5579390906288654e-05  3.5486232422205172e-05  3.5402545376284753e-05  3.5329366590079182e-05  3.5267828346140073e-05  3.5218158956290859e-05  3.5161568893821914e-05  3.4754922131134214e-05  6.6888542783306434e-05  6.8661588085211264e-05  3.7105673759989313e-05  3.8084650447449181e-05  3.8294357842127677e-05  3.8434003134841553e-05  3.8571836024153850e-05  3.9180279442467485e-05  4.2449423181653869e-05  6.1128485782567277e-05  9.3898029473127168e-04  2.5623030683555081e-01  5.4889766944667062e-01  8.2353684811507299e-01  9.9953706875068660e-01  9.9986624918632039e-01  9.9991736160754330e-01  9.9993130536821440e-01  9.9992868921673761e-01  9.9990515596979790e-01  9.9981690542627621e-01  9.9393000819885469e-01  7.2571833145080145e-01  4.5197452862237525e-01  1.5561459341136558e-01  1.2760520878573071e-04  4.8327125096069767e-05  3.8575947058227193e-05  3.6887905093412484e-05  3.6500744885213074e-05  3.6338521911759995e-05  3.6223254228498986e-05  3.6120311967209837e-05  3.6023959766548582e-05  3.5934636049907017e-05  3.5852856034818790e-05  3.5779695667636802e-05  3.5716764510358477e-05  3.5664578734299676e-05  3.5601465540856184e-05  3.5123205854449713e-05  6.7176173481627781e-05  6.8248853682635813e-05  3.6539031915826187e-05  3.7335212092812132e-05  3.7460886482855584e-05  3.7547675841463080e-05  3.7634180382781140e-05  3.7724798318620357e-05  3.7869345732449661e-05  3.8598215295105507e-05  4.2791183844481452e-05  6.7288942612660164e-05  2.2448555454704006e-02  3.0188965882324575e-01  5.9277848594736171e-01  8.6689378156963715e-01  9.9965464751268285e-01  9.9987678274208414e-01  9.9992003905036564e-01  9.9993098791216040e-01  9.9992581264382818e-01  9.9989547989944028e-01  9.9977634990644482e-01  9.5595800156926281e-01  6.8250658067741610e-01  4.0165242482857633e-01  1.0645688236820128e-01  9.4804384817412198e-05  4.5529113858287237e-05  3.8220512576413250e-05  3.7025502011488754e-05  3.6757214651247108e-05  3.6629504713897823e-05  3.6536962829118162e-05  3.6454196072205733e-05  3.6374015566912181e-05  3.6300397028674031e-05  3.6234817142891613e-05  3.6177544668393859e-05  3.6104279497523194e-05  3.5540983937124758e-05  6.7498140713609706e-05  6.7856242844762741e-05  3.6012673887370263e-05  3.6678976980822384e-05  3.6769979933325152e-05  3.6837822371759306e-05  3.6908736536176538e-05  3.6980798753006359e-05  3.7066430005229233e-05  3.717302141