<?xml version="1.0"?>
<VTKFile type="UnstructuredGrid"  version="0.1"  >
<UnstructuredGrid>
<Piece  NumberOfPoints="1681" NumberOfCells="3200">
<Points>
<DataArray  type="Float64"  NumberOfComponents="3"  format="ascii">0 0 0  0.025 0 0  0.05 0 0  0.075 0 0  0.1 0 0  0.125 0 0  0.15 0 0  0.175 0 0  0.2 0 0  0.225 0 0  0.25 0 0  0.275 0 0  0.3 0 0  0.325 0 0  0.35 0 0  0.375 0 0  0.4 0 0  0.425 0 0  0.45 0 0  0.475 0 0  0.5 0 0  0.525 0 0  0.55 0 0  0.575 0 0  0.6 0 0  0.625 0 0  0.65 0 0  0.675 0 0  0.7 0 0  0.725 0 0  0.75 0 0  0.775 0 0  0.8 0 0  0.825 0 0  0.85 0 0  0.875 0 0  0.9 0 0  0.925 0 0  0.95 0 0  0.975 0 0  1 0 0  0 0.025 0  0.025 0.025 0  0.05 0.025 0  0.075 0.025 0  0.1 0.025 0  0.125 0.025 0  0.15 0.025 0  0.175 0.025 0  0.2 0.025 0  0.225 0.025 0  0.25 0.025 0  0.275 0.025 0  0.3 0.025 0  0.325 0.025 0  0.35 0.025 0  0.375 0.025 0  0.4 0.025 0  0.425 0.025 0  0.45 0.025 0  0.475 0.025 0  0.5 0.025 0  0.525 0.025 0  0.55 0.025 0  0.575 0.025 0  0.6 0.025 0  0.625 0.025 0  0.65 0.025 0  0.675 0.025 0  0.7 0.025 0  0.725 0.025 0  0.75 0.025 0  0.775 0.025 0  0.8 0.025 0  0.825 0.025 0  0.85 0.025 0  0.875 0.025 0  0.9 0.025 0  0.925 0.025 0  0.95 0.025 0  0.975 0.025 0  1 0.025 0  0 0.05 0  0.025 0.05 0  0.05 0.05 0  0.075 0.05 0  0.1 0.05 0  0.125 0.05 0  0.15 0.05 0  0.175 0.05 0  0.2 0.05 0  0.225 0.05 0  0.25 0.05 0  0.275 0.05 0  0.3 0.05 0  0.325 0.05 0  0.35 0.05 0  0.375 0.05 0  0.4 0.05 0  0.425 0.05 0  0.45 0.05 0  0.475 0.05 0  0.5 0.05 0  0.525 0.05 0  0.55 0.05 0  0.575 0.05 0  0.6 0.05 0  0.625 0.05 0  0.65 0.05 0  0.675 0.05 0  0.7 0.05 0  0.725 0.05 0  0.75 0.05 0  0.775 0.05 0  0.8 0.05 0  0.825 0.05 0  0.85 0.05 0  0.875 0.05 0  0.9 0.05 0  0.925 0.05 0  0.95 0.05 0  0.975 0.05 0  1 0.05 0  0 0.075 0  0.025 0.075 0  0.05 0.075 0  0.075 0.075 0  0.1 0.075 0  0.125 0.075 0  0.15 0.075 0  0.175 0.075 0  0.2 0.075 0  0.225 0.075 0  0.25 0.075 0  0.275 0.075 0  0.3 0.075 0  0.325 0.075 0  0.35 0.075 0  0.375 0.075 0  0.4 0.075 0  0.425 0.075 0  0.45 0.075 0  0.475 0.075 0  0.5 0.075 0  0.525 0.075 0  0.55 0.075 0  0.575 0.075 0  0.6 0.075 0  0.625 0.075 0  0.65 0.075 0  0.675 0.075 0  0.7 0.075 0  0.725 0.075 0  0.75 0.075 0  0.775 0.075 0  0.8 0.075 0  0.825 0.075 0  0.85 0.075 0  0.875 0.075 0  0.9 0.075 0  0.925 0.075 0  0.95 0.075 0  0.975 0.075 0  1 0.075 0  0 0.1 0  0.025 0.1 0  0.05 0.1 0  0.075 0.1 0  0.1 0.1 0  0.125 0.1 0  0.15 0.1 0  0.175 0.1 0  0.2 0.1 0  0.225 0.1 0  0.25 0.1 0  0.275 0.1 0  0.3 0.1 0  0.325 0.1 0  0.35 0.1 0  0.375 0.1 0  0.4 0.1 0  0.425 0.1 0  0.45 0.1 0  0.475 0.1 0  0.5 0.1 0  0.525 0.1 0  0.55 0.1 0  0.575 0.1 0  0.6 0.1 0  0.625 0.1 0  0.65 0.1 0  0.675 0.1 0  0.7 0.1 0  0.725 0.1 0  0.75 0.1 0  0.775 0.1 0  0.8 0.1 0  0.825 0.1 0  0.85 0.1 0  0.875 0.1 0  0.9 0.1 0  0.925 0.1 0  0.95 0.1 0  0.975 0.1 0  1 0.1 0  0 0.125 0  0.025 0.125 0  0.05 0.125 0  0.075 0.125 0  0.1 0.125 0  0.125 0.125 0  0.15 0.125 0  0.175 0.125 0  0.2 0.125 0  0.225 0.125 0  0.25 0.125 0  0.275 0.125 0  0.3 0.125 0  0.325 0.125 0  0.35 0.125 0  0.375 0.125 0  0.4 0.125 0  0.425 0.125 0  0.45 0.125 0  0.475 0.125 0  0.5 0.125 0  0.525 0.125 0  0.55 0.125 0  0.575 0.125 0  0.6 0.125 0  0.625 0.125 0  0.65 0.125 0  0.675 0.125 0  0.7 0.125 0  0.725 0.125 0  0.75 0.125 0  0.775 0.125 0  0.8 0.125 0  0.825 0.125 0  0.85 0.125 0  0.875 0.125 0  0.9 0.125 0  0.925 0.125 0  0.95 0.125 0  0.975 0.125 0  1 0.125 0  0 0.15 0  0.025 0.15 0  0.05 0.15 0  0.075 0.15 0  0.1 0.15 0  0.125 0.15 0  0.15 0.15 0  0.175 0.15 0  0.2 0.15 0  0.225 0.15 0  0.25 0.15 0  0.275 0.15 0  0.3 0.15 0  0.325 0.15 0  0.35 0.15 0  0.375 0.15 0  0.4 0.15 0  0.425 0.15 0  0.45 0.15 0  0.475 0.15 0  0.5 0.15 0  0.525 0.15 0  0.55 0.15 0  0.575 0.15 0  0.6 0.15 0  0.625 0.15 0  0.65 0.15 0  0.675 0.15 0  0.7 0.15 0  0.725 0.15 0  0.75 0.15 0  0.775 0.15 0  0.8 0.15 0  0.825 0.15 0  0.85 0.15 0  0.875 0.15 0  0.9 0.15 0  0.925 0.15 0  0.95 0.15 0  0.975 0.15 0  1 0.15 0  0 0.175 0  0.025 0.175 0  0.05 0.175 0  0.075 0.175 0  0.1 0.175 0  0.125 0.175 0  0.15 0.175 0  0.175 0.175 0  0.2 0.175 0  0.225 0.175 0  0.25 0.175 0  0.275 0.175 0  0.3 0.175 0  0.325 0.175 0  0.35 0.175 0  0.375 0.175 0  0.4 0.175 0  0.425 0.175 0  0.45 0.175 0  0.475 0.175 0  0.5 0.175 0  0.525 0.175 0  0.55 0.175 0  0.575 0.175 0  0.6 0.175 0  0.625 0.175 0  0.65 0.175 0  0.675 0.175 0  0.7 0.175 0  0.725 0.175 0  0.75 0.175 0  0.775 0.175 0  0.8 0.175 0  0.825 0.175 0  0.85 0.175 0  0.875 0.175 0  0.9 0.175 0  0.925 0.175 0  0.95 0.175 0  0.975 0.175 0  1 0.175 0  0 0.2 0  0.025 0.2 0  0.05 0.2 0  0.075 0.2 0  0.1 0.2 0  0.125 0.2 0  0.15 0.2 0  0.175 0.2 0  0.2 0.2 0  0.225 0.2 0  0.25 0.2 0  0.275 0.2 0  0.3 0.2 0  0.325 0.2 0  0.35 0.2 0  0.375 0.2 0  0.4 0.2 0  0.425 0.2 0  0.45 0.2 0  0.475 0.2 0  0.5 0.2 0  0.525 0.2 0  0.55 0.2 0  0.575 0.2 0  0.6 0.2 0  0.625 0.2 0  0.65 0.2 0  0.675 0.2 0  0.7 0.2 0  0.725 0.2 0  0.75 0.2 0  0.775 0.2 0  0.8 0.2 0  0.825 0.2 0  0.85 0.2 0  0.875 0.2 0  0.9 0.2 0  0.925 0.2 0  0.95 0.2 0  0.975 0.2 0  1 0.2 0  0 0.225 0  0.025 0.225 0  0.05 0.225 0  0.075 0.225 0  0.1 0.225 0  0.125 0.225 0  0.15 0.225 0  0.175 0.225 0  0.2 0.225 0  0.225 0.225 0  0.25 0.225 0  0.275 0.225 0  0.3 0.225 0  0.325 0.225 0  0.35 0.225 0  0.375 0.225 0  0.4 0.225 0  0.425 0.225 0  0.45 0.225 0  0.475 0.225 0  0.5 0.225 0  0.525 0.225 0  0.55 0.225 0  0.575 0.225 0  0.6 0.225 0  0.625 0.225 0  0.65 0.225 0  0.675 0.225 0  0.7 0.225 0  0.725 0.225 0  0.75 0.225 0  0.775 0.225 0  0.8 0.225 0  0.825 0.225 0  0.85 0.225 0  0.875 0.225 0  0.9 0.225 0  0.925 0.225 0  0.95 0.225 0  0.975 0.225 0  1 0.225 0  0 0.25 0  0.025 0.25 0  0.05 0.25 0  0.075 0.25 0  0.1 0.25 0  0.125 0.25 0  0.15 0.25 0  0.175 0.25 0  0.2 0.25 0  0.225 0.25 0  0.25 0.25 0  0.275 0.25 0  0.3 0.25 0  0.325 0.25 0  0.35 0.25 0  0.375 0.25 0  0.4 0.25 0  0.425 0.25 0  0.45 0.25 0  0.475 0.25 0  0.5 0.25 0  0.525 0.25 0  0.55 0.25 0  0.575 0.25 0  0.6 0.25 0  0.625 0.25 0  0.65 0.25 0  0.675 0.25 0  0.7 0.25 0  0.725 0.25 0  0.75 0.25 0  0.775 0.25 0  0.8 0.25 0  0.825 0.25 0  0.85 0.25 0  0.875 0.25 0  0.9 0.25 0  0.925 0.25 0  0.95 0.25 0  0.975 0.25 0  1 0.25 0  0 0.275 0  0.025 0.275 0  0.05 0.275 0  0.075 0.275 0  0.1 0.275 0  0.125 0.275 0  0.15 0.275 0  0.175 0.275 0  0.2 0.275 0  0.225 0.275 0  0.25 0.275 0  0.275 0.275 0  0.3 0.275 0  0.325 0.275 0  0.35 0.275 0  0.375 0.275 0  0.4 0.275 0  0.425 0.275 0  0.45 0.275 0  0.475 0.275 0  0.5 0.275 0  0.525 0.275 0  0.55 0.275 0  0.575 0.275 0  0.6 0.275 0  0.625 0.275 0  0.65 0.275 0  0.675 0.275 0  0.7 0.275 0  0.725 0.275 0  0.75 0.275 0  0.775 0.275 0  0.8 0.275 0  0.825 0.275 0  0.85 0.275 0  0.875 0.275 0  0.9 0.275 0  0.925 0.275 0  0.95 0.275 0  0.975 0.275 0  1 0.275 0  0 0.3 0  0.025 0.3 0  0.05 0.3 0  0.075 0.3 0  0.1 0.3 0  0.125 0.3 0  0.15 0.3 0  0.175 0.3 0  0.2 0.3 0  0.225 0.3 0  0.25 0.3 0  0.275 0.3 0  0.3 0.3 0  0.325 0.3 0  0.35 0.3 0  0.375 0.3 0  0.4 0.3 0  0.425 0.3 0  0.45 0.3 0  0.475 0.3 0  0.5 0.3 0  0.525 0.3 0  0.55 0.3 0  0.575 0.3 0  0.6 0.3 0  0.625 0.3 0  0.65 0.3 0  0.675 0.3 0  0.7 0.3 0  0.725 0.3 0  0.75 0.3 0  0.775 0.3 0  0.8 0.3 0  0.825 0.3 0  0.85 0.3 0  0.875 0.3 0  0.9 0.3 0  0.925 0.3 0  0.95 0.3 0  0.975 0.3 0  1 0.3 0  0 0.325 0  0.025 0.325 0  0.05 0.325 0  0.075 0.325 0  0.1 0.325 0  0.125 0.325 0  0.15 0.325 0  0.175 0.325 0  0.2 0.325 0  0.225 0.325 0  0.25 0.325 0  0.275 0.325 0  0.3 0.325 0  0.325 0.325 0  0.35 0.325 0  0.375 0.325 0  0.4 0.325 0  0.425 0.325 0  0.45 0.325 0  0.475 0.325 0  0.5 0.325 0  0.525 0.325 0  0.55 0.325 0  0.575 0.325 0  0.6 0.325 0  0.625 0.325 0  0.65 0.325 0  0.675 0.325 0  0.7 0.325 0  0.725 0.325 0  0.75 0.325 0  0.775 0.325 0  0.8 0.325 0  0.825 0.325 0  0.85 0.325 0  0.875 0.325 0  0.9 0.325 0  0.925 0.325 0  0.95 0.325 0  0.975 0.325 0  1 0.325 0  0 0.35 0  0.025 0.35 0  0.05 0.35 0  0.075 0.35 0  0.1 0.35 0  0.125 0.35 0  0.15 0.35 0  0.175 0.35 0  0.2 0.35 0  0.225 0.35 0  0.25 0.35 0  0.275 0.35 0  0.3 0.35 0  0.325 0.35 0  0.35 0.35 0  0.375 0.35 0  0.4 0.35 0  0.425 0.35 0  0.45 0.35 0  0.475 0.35 0  0.5 0.35 0  0.525 0.35 0  0.55 0.35 0  0.575 0.35 0  0.6 0.35 0  0.625 0.35 0  0.65 0.35 0  0.675 0.35 0  0.7 0.35 0  0.725 0.35 0  0.75 0.35 0  0.775 0.35 0  0.8 0.35 0  0.825 0.35 0  0.85 0.35 0  0.875 0.35 0  0.9 0.35 0  0.925 0.35 0  0.95 0.35 0  0.975 0.35 0  1 0.35 0  0 0.375 0  0.025 0.375 0  0.05 0.375 0  0.075 0.375 0  0.1 0.375 0  0.125 0.375 0  0.15 0.375 0  0.175 0.375 0  0.2 0.375 0  0.225 0.375 0  0.25 0.375 0  0.275 0.375 0  0.3 0.375 0  0.325 0.375 0  0.35 0.375 0  0.375 0.375 0  0.4 0.375 0  0.425 0.375 0  0.45 0.375 0  0.475 0.375 0  0.5 0.375 0  0.525 0.375 0  0.55 0.375 0  0.575 0.375 0  0.6 0.375 0  0.625 0.375 0  0.65 0.375 0  0.675 0.375 0  0.7 0.375 0  0.725 0.375 0  0.75 0.375 0  0.775 0.375 0  0.8 0.375 0  0.825 0.375 0  0.85 0.375 0  0.875 0.375 0  0.9 0.375 0  0.925 0.375 0  0.95 0.375 0  0.975 0.375 0  1 0.375 0  0 0.4 0  0.025 0.4 0  0.05 0.4 0  0.075 0.4 0  0.1 0.4 0  0.125 0.4 0  0.15 0.4 0  0.175 0.4 0  0.2 0.4 0  0.225 0.4 0  0.25 0.4 0  0.275 0.4 0  0.3 0.4 0  0.325 0.4 0  0.35 0.4 0  0.375 0.4 0  0.4 0.4 0  0.425 0.4 0  0.45 0.4 0  0.475 0.4 0  0.5 0.4 0  0.525 0.4 0  0.55 0.4 0  0.575 0.4 0  0.6 0.4 0  0.625 0.4 0  0.65 0.4 0  0.675 0.4 0  0.7 0.4 0  0.725 0.4 0  0.75 0.4 0  0.775 0.4 0  0.8 0.4 0  0.825 0.4 0  0.85 0.4 0  0.875 0.4 0  0.9 0.4 0  0.925 0.4 0  0.95 0.4 0  0.975 0.4 0  1 0.4 0  0 0.425 0  0.025 0.425 0  0.05 0.425 0  0.075 0.425 0  0.1 0.425 0  0.125 0.425 0  0.15 0.425 0  0.175 0.425 0  0.2 0.425 0  0.225 0.425 0  0.25 0.425 0  0.275 0.425 0  0.3 0.425 0  0.325 0.425 0  0.35 0.425 0  0.375 0.425 0  0.4 0.425 0  0.425 0.425 0  0.45 0.425 0  0.475 0.425 0  0.5 0.425 0  0.525 0.425 0  0.55 0.425 0  0.575 0.425 0  0.6 0.425 0  0.625 0.425 0  0.65 0.425 0  0.675 0.425 0  0.7 0.425 0  0.725 0.425 0  0.75 0.425 0  0.775 0.425 0  0.8 0.425 0  0.825 0.425 0  0.85 0.425 0  0.875 0.425 0  0.9 0.425 0  0.925 0.425 0  0.95 0.425 0  0.975 0.425 0  1 0.425 0  0 0.45 0  0.02
[...]
<PointData  Scalars="ControlVisualisation"> 
<DataArray  type="Float64"  Name="ControlVisualisation"  format="ascii">4.0456477690197213e-05  2.6967919180370064e-05  2.6967692509322701e-05  2.6968359744167571e-05  2.6975558157691780e-05  2.6993096909677908e-05  2.7020361828668354e-05  2.7054535853364558e-05  2.7091291177955799e-05  2.7125990392867603e-05  2.7155442152018750e-05  2.7178331259697518e-05  2.7194189512742729e-05  2.7202911491257236e-05  2.7205067679559098e-05  2.7205265617324418e-05  2.7205161285706817e-05  2.7205842053975987e-05  2.7205893172558027e-05  2.7202989241402669e-05  2.7199913004117223e-05  2.7198054527801585e-05  2.7198547565713528e-05  2.7201361096208425e-05  2.7204954157207538e-05  2.7207702607872499e-05  2.7206232038781320e-05  2.7198213362968629e-05  2.7183311933779354e-05  2.7161902155160431e-05  2.7134349291142357e-05  2.7101451352795166e-05  2.7066143855902344e-05  2.7032658661431503e-05  2.7004061108973514e-05  2.6982600898938281e-05  2.6970777651029259e-05  2.6967638215970287e-05  2.6967813167380329e-05  2.6967699185168229e-05  8.0925329168274264e-05  2.6968624691313591e-05  1.3479851608392875e-05  1.3480217350935728e-05  1.3481763271437609e-05  1.3489926765778875e-05  1.3508792008620942e-05  1.3539421687026892e-05  1.3579567144778288e-05  1.3623924474680193e-05  1.3666544271186350e-05  1.3703292748452101e-05  1.3732589124055301e-05  1.3754189015984700e-05  1.3767093464078528e-05  1.3770219566057774e-05  1.3771961874032363e-05  1.3772384682947444e-05  1.3774749614239284e-05  1.3776646998701342e-05  1.3773068431880212e-05  1.3769375798534675e-05  1.3765912139115532e-05  1.3765585473582202e-05  1.3767911235702689e-05  1.3771166081013624e-05  1.3774538903590595e-05  1.3773257422437496e-05  1.3764238372568319e-05  1.3747150692149079e-05  1.3722740641483116e-05  1.3691146824102096e-05  1.3652707572520717e-05  1.3610578611820349e-05  1.3568134560290170e-05  1.3532535409206848e-05  1.3505451342729382e-05  1.3487765425760558e-05  1.3480739042691473e-05  1.3479675728429111e-05  1.3479419505839948e-05  2.6967783220724009e-05  2.6977158172059119e-05  1.3485621451319721e-05  1.3488700928757224e-05  1.3496178325361036e-05  1.3520869800398789e-05  1.3582232909739478e-05  1.3713118076044119e-05  1.3912542515960504e-05  1.4151661492648632e-05  1.4393075398569987e-05  1.4612558840496372e-05  1.4801663293239196e-05  1.4962321512279665e-05  1.5081850159548348e-05  1.5142304183456572e-05  1.5212641317378283e-05  1.5269049507905224e-05  1.5326372955286092e-05  1.5374983851633784e-05  1.5361183668904559e-05  1.5354388134237443e-05  1.5338333295386086e-05  1.5312481506749178e-05  1.5285396298578009e-05  1.5238918041124622e-05  1.5185707428208293e-05  1.5100640031308940e-05  1.4974784623385450e-05  1.4820212021406447e-05  1.4638745613176958e-05  1.4428279892911414e-05  1.4193419857435707e-05  1.3956634194163017e-05  1.3747343778517730e-05  1.3621555641178553e-05  1.3552690566966823e-05  1.3512437462103918e-05  1.3492955294238342e-05  1.3487325537697908e-05  1.3484155078577985e-05  2.6970259089115502e-05  2.7038489166199654e-05  1.3520330966263785e-05  1.3549532872448656e-05  1.3867219816739937e-05  1.4801433469244032e-05  1.5869534401759569e-05  1.7658748340736064e-05  2.0923273882941906e-05  2.6130164537785017e-05  3.4199165971208716e-05  4.6691401452054756e-05  6.6910364023086707e-05  1.0307663228401018e-04  1.2905732903682559e-04  1.2035615324307384e-04  1.3191791707733134e-04  1.6317872713254313e-04  1.1236137920778207e-03  1.6373914387963866e-06  5.8368041865596314e-04  1.4536408177190748e-04  1.6111656210710104e-04  1.6556563987374923e-04  9.0963785435470938e-05  3.0054582454020910e-04  1.6266485938947370e-04  1.8274751043115172e-04  1.1918607611658518e-04  9.5925021505848630e-05  6.3913478463351427e-05  4.5203580380668560e-05  3.3362664708858204e-05  2.5660201877225994e-05  2.0623667743006310e-05  1.7765261010779315e-05  1.5481689108546101e-05  1.3953491806528818e-05  1.3549632174174193e-05  1.3522826506229602e-05  1.3515004110415638e-05  2.6985608435839254e-05  2.7305748929792284e-05  1.3876560355574457e-05  1.4820707563014266e-05  1.7824650439728934e-05  4.4525308546225426e-05  8.7770849172252072e-02  2.6662813828593368e-01  4.1484231266075566e-01  5.4227826497570097e-01  6.4238532191211684e-01  7.1747797139777691e-01  7.7078797253543874e-01  8.0940660723457225e-01  8.3294490946957667e-01  8.4529490255027984e-01  8.6477038939149198e-01  8.6373982859302534e-01  8.5248271978578150e-01  8.7961128227090324e-01  9.1301736612412820e-01  9.1630873454071637e-01  9.0375560126011889e-01  8.7371648125986123e-01  8.5836901216091166e-01  8.7218053371684490e-01  8.6043045519898353e-01  8.4883048823236773e-01  8.2972961885008112e-01  8.0231543409281469e-01  7.6265455744283939e-01  7.0686481145640667e-01  6.3099116196517580e-01  5.2764470097323157e-01  3.9720761041831881e-01  2.4493917932729597e-01  6.3110800456419397e-02  4.3310299459971676e-05  1.8699826674385750e-05  1.4032109390787671e-05  1.3665541303443877e-05  2.7074604451099083e-05  2.9575745298801818e-05  1.5763381104770657e-05  1.0097407752601489e-04  4.2882563307098448e-01  8.7890238403255838e-01  9.9994804142567761e-01  9.9997476091550941e-01  9.9998121973905585e-01  9.9998407222795638e-01  9.9998561130604335e-01  9.9998655136038095e-01  9.9998715460226251e-01  9.9998754944068635e-01  9.9998781124754976e-01  9.9998798087197260e-01  9.9998808967587260e-01  9.9998819160014674e-01  9.9998824104739259e-01  9.9998824010336973e-01  9.9998825361189225e-01  9.9998825345299980e-01  9.9998823804876924e-01  9.9998820100258745e-01  9.9998816069831697e-01  9.9998809617822260e-01  9.9998798702164415e-01  9.9998784267137009e-01  9.9998761458219620e-01  9.9998726847236252e-01  9.9998675936252501e-01  9.9998600555691863e-01  9.9998484091120410e-01  9.9998291102782066e-01  9.9997931980308052e-01  9.9997059544743427e-01  9.9993357185680842e-01  8.5268229440536358e-01  3.6684474142217871e-01  1.3171836496026911e-04  1.5682398662891520e-05  2.9169957695699648e-05  4.5054580128114539e-05  3.3943263796547707e-01  9.9997059121121956e-01  9.9998920651237733e-01  9.9999212187473296e-01  9.9999329124558411e-01  9.9999403329325265e-01  9.9999446244295442e-01  9.9999470900288490e-01  9.9999486650656877e-01  9.9999497477681454e-01  9.9999505154831636e-01  9.9999510603253627e-01  9.9999514371430820e-01  9.9999516878401173e-01  9.9999518515518637e-01  9.9999519605274334e-01  9.9999520310968226e-01  9.9999520679262066e-01  9.9999520738028691e-01  9.9999520545151399e-01  9.9999520222469829e-01  9.9999519828642924e-01  9.9999519321952790e-01  9.9999518586636560e-01  9.9999517446200159e-01  9.9999515655548810e-01  9.9999512904010701e-01  9.9999508918566782e-01  9.9999503402568091e-01  9.9999495895782042e-01  9.9999485542771926e-01  9.9999470580696170e-01  9.9999447027136268e-01  9.9999405442209044e-01  9.9999322883790620e-01  9.9999149665386056e-01  9.9998710832976467e-01  9.9996349588100863e-01  1.9252467322077177e-01  3.1151813525226853e-05  9.9999176801712653e-01  9.9999578962461111e-01  9.9999684742131456e-01  9.9999708742348203e-01  9.9999721979125600e-01  9.9999723931013484e-01  9.9999721201824243e-01  9.9999716723394572e-01  9.9999712104537475e-01  9.9999708187674363e-01  9.9999705218331736e-01  9.9999703109493232e-01  9.9999701649380413e-01  9.9999700622963883e-01  9.9999699872219638e-01  9.9999699306323075e-01  9.9999698877618337e-01  9.9999698548984317e-01  9.9999698287784622e-01  9.9999698079901889e-01  9.9999697937290655e-01  9.9999697890867711e-01  9.9999697965720757e-01  9.9999698167410056e-01  9.9999698489442856e-01  9.9999698927524028e-01  9.9999699492576166e-01  9.9999700236087530e-01  9.9999701284232900e-01  9.9999702845179184e-01  9.9999705186025956e-01  9.9999708572908186e-01  9.9999713154758507e-01  9.9999718765624690e-01  9.9999724687074865e-01  9.9999729444159258e-01  9.9999730228111683e-01  9.9999720553956417e-01  9.9999681928752959e-01  9.9999578003966727e-01  9.9997232507217748e-01  9.9999839476140984e-01  9.9999899277269422e-01  9.9999886991232234e-01  9.9999870370353039e-01  9.9999852774783238e-01  9.9999835885242494e-01  9.9999820787939464e-01  9.9999807973482402e-01  9.9999797550157798e-01  9.9999789411941686e-01  9.9999783287075583e-01  9.9999778812100215e-01  9.9999775606305319e-01  9.9999773330380826e-01  9.9999771715405250e-01  9.9999770566355750e-01  9.9999769748817124e-01  9.9999769170988162e-01  9.9999768772446163e-01  9.9999768520149712e-01  9.9999768404973333e-01  9.9999768434719571e-01  9.9999768625168461e-01  9.9999768995780081e-01  9.9999769574431818e-01  9.9999770408186783e-01  9.9999771578368202e-01  9.9999773220180332e-01  9.9999775542264957e-01  9.9999778836596320e-01  9.9999783470390269e-01  9.9999789855367172e-01  9.9999798390409367e-01  9.9999809380474891e-01  9.9999822952961515e-01  9.9999838965320820e-01  9.9999856830463307e-01  9.9999875279032668e-01  9.9999892173265625e-01  9.9999904561798347e-01  9.9999768577844439e-01  9.9999911562586696e-01  9.9999947937048406e-01  9.9999934563734239e-01  9.9999916514367049e-01  9.9999896663902110e-01  9.9999877215538435e-01  9.9999859696313009e-01  9.9999844823559891e-01  9.9999832756938856e-01  9.9999823324309578e-01  9.9999816178753564e-01  9.9999810904781561e-01  9.9999807088611092e-01  9.9999804363727629e-01  9.9999802432584373e-01  9.9999801069843008e-01  9.9999800113545212e-01  9.9999799451984350e-01  9.9999799012169921e-01  9.9999798751544910e-01  9.9999798651498040e-01  9.9999798711362964e-01  9.9999798943713603e-01  9.9999799373322662e-01  9.9999800041440012e-01  9.9999801015030798e-01  9.9999802399979387e-01  9.9999804356681987e-01  9.9999807114660821e-01  9.9999810980526138e-01  9.9999816333060965e-01  9.9999823600030979e-01  9.9999833211310440e-01  9.9999845522319752e-01  9.9999860699268861e-01  9.9999878536744868e-01  9.9999898229116713e-01  9.9999918187065173e-01  9.9999936050608129e-01  9.9999948897239499e-01  9.9999899254992042e-01  9.9999922088122462e-01  9.9999957078862045e-01  9.9999944978762756e-01  9.9999927846177561e-01  9.9999908218709233e-01  9.9999888525120151e-01  9.9999870515295641e-01  9.9999855094652124e-01  9.9999842525142590e-01  9.9999832662255317e-01  9.9999825159044953e-01  9.9999819594039541e-01  9.9999815548258275e-01  9.9999812649564634e-01  9.9999810593037342e-01  9.9999809144340313e-01  9.9999808132588042e-01  9.9999807438938082e-01  9.9999806985240691e-01  9.9999806724667506e-01  9.9999806634411104e-01  9.9999806710217920e-01  9.9999806963201399e-01  9.9999807419946274e-01  9.9999808126697953e-01  9.9999809157644826e-01  9.9999810626551444e-01  9.9999812700179913e-01  9.9999815610614007e-01  9.9999819662103462e-01  9.9999825226893746e-01  9.9999832724434967e-01  9.9999842577194642e-01  9.9999855134016469e-01  9.9999870542036084e-01  9.9999888541632920e-01  9.9999908228343393e-01  9.9999927851856230e-01  9.9999944982337652e-01  9.9999957080974256e-01  9.9999922089730386e-01  9.9999899244495938e-01  9.9999948873533306e-01  9.9999935972490905e-01  9.9999918015216394e-01  9.9999897925537751e-01  9.9999878071790960e-01  9.9999860050934175e-01  9.9999844671220006e-01  9.9999832139354927e-01  9.9999822294641660e-01  9.9999814792727193e-01  9.9999809217856495e-01  9.9999805156079824e-01  9.9999802239092783e-01  9.9999800164812414e-01  9.9999798700817188e-01  9.9999797677512381e-01  9.9999796977035615e-01  9.9999796521893292e-01  9.9999796265278695e-01  9.9999796183608536e-01  9.9999796271364005e-01  9.9999796538502028e-01  9.9999797010952562e-01  9.9999797734648743e-01  9.9999798783125704e-01  9.9999800268147820e-01  9.9999802351989464e-01  9.9999805258863550e-01  9.9999809281352625e-01  9.9999814776275475e-01  9.9999822144533823e-01  9.9999831789043003e-01  9.9999844049285147e-01  9.9999859097512034e-01  9.9999876778208807e-01  9.9999896373756691e-01  9.9999916348920104e-01  9.9999934490026277e-01  9.9999947917138599e-01  9.9999911557613386e-01  9.9999768515952103e-01  9.9999904457005162e-01  9.9999891861723711e-01  9.9999874673586131e-01  9.9999855864024090e-01  9.9999837594160546e-01  9.9999821144100953e-01  9.9999807094997828e-01  9.9999795583269280e-01  9.9999786491566134e-01  9.9999779541016098e-01  9.9999774365838445e-01  9.9999770586316894e-01  9.9999767860351241e-01  9.9999765908473215e-01  9.9999764518088674e-01  9.9999763536282793e-01  9.9999762858443686e-01  9.9999762416890903e-01  9.9999762171327289e-01  9.9999762101613232e-01  9.9999762202928266e-01  9.9999762483450061e-01  9.9999762964847072e-01  9.9999763685885867e-01  9.9999764709235073e-01  9.9999766131142775e-01  9.9999768092918784e-01  9.9999770792100573e-01  9.9999774488609916e-01  9.9999779499766495e-01  9.9999786174778693e-01  9.9999794843596312e-01  9.9999805754322402e-01  9.9999819008924362e-01  9.9999834514319286e-01  9.9999851789867389e-01  9.9999869739248881e-01  9.9999886657891834e-01  9.9999899159928529e-01  9.9999839444423377e-01  9.9997230976065576e-01  9.9999576776347610e-01  9.9999679794193119e-01  9.9999717692845147e-01  9.9999726600009309e-01  9.9999725017994667e-01  9.9999719410822063e-01  9.9999712531105289e-01  9.9999705832044905e-01  9.9999700070335218e-01  9.9999695480421302e-01  9.9999691983468419e-01  9.9999689375616208e-01  9.9999687441600327e-01  9.9999686003212451e-01  9.9999684930049582e-01  9.9999684134183742e-01  9.9999683560372599e-01  9.9999683176646115e-01  9.9999682966688408e-01  9.9999682924146049e-01  9.9999683048744903e-01  9.9999683344242574e-01  9.9999683818419116e-01  9.9999684485348628e-01  9.9999685370088420e-01  9.9999686515706643e-01  9.9999687992068398e-01  9.9999689904778144e-01  9.9999692398526052e-01  9.9999695646394360e-01  9.9999699795904606e-01  9.9999704858617522e-01  9.9999710514746365e-01  9.9999715884302653e-01  9.9999719398356379e-01  9.9999718191213027e-01  9.9999705675114148e-01  9.9999682687539104e-01  9.9999577657792882e-01  9.9999176153810587e-01  3.1079402606844197e-05  1.9484194293752705e-01  9.9996213320352900e-01  9.9998681964894642e-01  9.9999125044469728e-01  9.9999297883796323e-01  9.9999381450095892e-01  9.9999422134879734e-01  9.9999443741195781e-01  9.9999456253738617e-01  9.9999463987000980e-01  9.9999468892676913e-01  9.9999471960202424e-01  9.9999473777323244e-01  9.9999474745753691e-01  9.9999475161989226e-01  9.9999475250589542e-01  9.9999475181187525e-01  9.9999475078988342e-01  9.9999475031405194e-01  9.9999475091661960e-01  9.9999475279941552e-01  9.9999475582650599e-01  9.9999475950205641e-01  9.9999476293375522e-01  9.9999476477755911e-01  9.9999476315565183e-01  9.9999475553524630e-01  9.9999473854189014e-01  9.9999470760652764e-01  9.9999465622400563e-01  9.9999457372964529e-01  9.9999444040826568e-01  9.9999421265100652e-01  9.9999379122036347e-01  9.9999308066900860e-01  9.9999192830943195e-01  9.9998890282985631e-01  9.9996948235834004e-01  3.4012821780143082e-01  4.5138614506964154e-05  2.8786743999902849e-05  1.5619413673015351e-05  1.2637377189198421e-04  3.6421361120219437e-01  8.4044660704355567e-01  9.9991636718240606e-01  9.9996636583182563e-01  9.9997684729128100e-01  9.9998091504455155e-01  9.9998301798833567e-01  9.9998424544181286e-01  9.9998500256530387e-01  9.9998547908108326e-01  9.9998577898496266e-01  9.9998596502964388e-01  9.9998607744604284e-01  9.9998614294862043e-01  9.9998617960304004e-01  9.9998619964791180e-01  9.9998621115152586e-01  9.9998621896444184e-01  9.9998622521160285e-01  9.9998622945434135e-01  9.9998622858246855e-01  9.9998621643024110e-01  9.9998618302583175e-01  9.9998611326325515e-01  9.9998598466576272e-01  9.9998576356176883e-01  9.9998539780919715e-01  9.9998480242651633e-01  9.9998382330159019e-01  9.9998215248713707e-01  9.9997889860413203e-01  9.9997112809857092e-01  9.9993537564918045e-01  8.6274164989353375e-01  4.2644562390773638e-01  9.6309537987205798e-05  1.5684768837448107e-05  2.9435744387453521e-05  2.6988600615235616e-05  1.3638527912148814e-05  1.4277789540656396e-05  1.9007395203864957e-05  4.0874174388947133e-05  8.4200112933666388e-02  2.3347316066158555e-01  3.7573123740575853e-01  5.0066140466958842e-01  5.9956542316238659e-01  6.7442399532595765e-01  7.2852204395767162e-01  7.6664443925499637e-01  7.9340663738541739e-01  8.1224762534532979e-01  8.2549816924108732e-01  8.3473527879898135e-01  8.4103280630705157e-01  8.4512511875566176e-01  8.4750158187287628e-01  8.4845026438432791e-01  8.4807705581740023e-01  8.4630915715564226e-01  8.4288375639850288e-01  8.3732225763964196e-01  8.2888313955672088e-01  8.1647209076684779e-01  7.9849966244361859e-01  7.7268191534703123e-01  7.3574122756014348e-01  6.8326909552637827e-01  6.1067479563782201e-01  5.1547415886547254e-01  3.9449801628981113e-01  2.5430533710861963e-01  9.4121096273680205e-02  4.1094077778718751e-05  1.8011746012607176e-05  1.4987833086021476e-05  1.3842374031496863e-05  2.7118999126314286e-05  2.6991700469068382e-05  1.3525842597516491e-05  1.3654743477890033e-05  1.3843446949541569e-05  1.4337025060459430e-05  1.5702013791664313e-05  1.7623210258131703e-05  1.9704515227221316e-05  2.3067627647718248e-05  2.7382231001522581e-05  3.2475926228991647e-05  3.7957231177100509e-05  4.3342643864761426e-05  4.8182762079938414e-05  5.2182701899048685e-05  5.5243820167222690e-05  5.7432260326671530e-05  5.8905661108955563e-05  5.9841952951107062e-05  6.0390919565118112e-05  6.0648030501157121e-05  6.0643051995799920e-05  6.0336077133043394e-05  5.9618492435762574e-05  5.8322862020575480e-05  5.6250987160654657e-05  5.3229343215556434e-05  4.9189365511816682e-05  4.4246296274264633e-05  3.8726605270396867e-05  3.3103714589359749e-05  2.7869760373586046e-05  2.3399831275627307e-05  1.9926312803828187e-05  1.7451507685807734e-05  1.6061634163186910e-05  1.5168208550625988e-05  1.4209642963473862e-05  1.3717394547333548e-05  1.3537004880137784e-05  2.6984454418965497e-05  2.7026944419078794e-05  1.3552226733916237e-05  1.3623325777415706e-05  1.3711636210121780e-05  1.3791416811529987e-05  1.3834001022569665e-05  1.3869789884831019e-05  1.3958629665012538e-05  1.4098672292520715e-05  1.4237290982310929e-05  1.4361852471321943e-05  1.4462468933101830e-05  1.4537803411931675e-05  1.4590832330168232e-05  1.4626160362739882e-05  1.4648451598141121e-05  1.4661746160427581e-05  1.4669244512373979e-05  1.4673326645698859e-05  1.4675651898691271e-05  1.4677260935803592e-05  1.4678650739812722e-05  1.4679810264636432e-05  1.4680213164540134e-05  1.4678768983420171e-05  1.4673737491048428e-05  1.4662619298395959e-05  1.4642057455898234e-05  1.4607831533157585e-05  1.4555103165647986e-05  1.4479189554140320e-05  1.4377225601876093e-05  1.4251215221164993e-05  1.4110745343097919e-05  1.3977115437887458e-05  1.3870020791385016e-05  1.3803223901889554e-05  1.3729666379237506e-05  1.3637450635675690e-05  1.3556193729221621e-05  2.7009138014994661e-05  2.7048370995906819e-05  1.3573177527507824e-05  1.3614395993680177e-05  1.3657718013945859e-05  1.3698892275795371e-05  1.3728259024753050e-05  1.3747763130074553e-05  1.3763970143725128e-05  1.3775123898452203e-05  1.3778546588781014e-05  1.3777852215184107e-05  1.3773894222496072e-05  1.3768360547323582e-05  1.3762377094100328e-05  1.3756659102556206e-05  1.3751600037769601e-05  1.3747389821235153e-05  1.3744103183141055e-05  1.3741758000685517e-05  1.3740350215343512e-05  1.3739873327822066e-05  1.3740328322892696e-05  1.3741727199099602e-05  1.3744091404845882e-05  1.3747444860909346e-05  1.3751799334073840e-05  1.3757127405873814e-05  1.3763315146649483e-05  1.3770083965653958e-05  1.3776872358305972e-05  1.3782682258661094e-05  1.3785956454897634e-05  1.3784630580122468e-05  1.3776771553091339e-05  1.3761523256030950e-05  1.3740010893478499e-05  1.3711471952931046e-05  1.3671503041626210e-05  1.3624755550073407e-05  1.3575982024079340e-05  2.7039684000122184e-05  2.7053869847855122e-05  1.3579269506933194e-05  1.3607843388520533e-05  1.3630562324612066e-05  1.3653912535642265e-05  1.3673914453054111e-05  1.3689122617115848e-05  1.3700366281024828e-05  1.370828804