<?xml version="1.0"?>
<VTKFile type="UnstructuredGrid"  version="0.1"  >
<UnstructuredGrid>
<Piece  NumberOfPoints="1681" NumberOfCells="3200">
<Points>
<DataArray  type="Float64"  NumberOfComponents="3"  format="ascii">0 0 0  0.025 0 0  0.05 0 0  0.075 0 0  0.1 0 0  0.125 0 0  0.15 0 0  0.175 0 0  0.2 0 0  0.225 0 0  0.25 0 0  0.275 0 0  0.3 0 0  0.325 0 0  0.35 0 0  0.375 0 0  0.4 0 0  0.425 0 0  0.45 0 0  0.475 0 0  0.5 0 0  0.525 0 0  0.55 0 0  0.575 0 0  0.6 0 0  0.625 0 0  0.65 0 0  0.675 0 0  0.7 0 0  0.725 0 0  0.75 0 0  0.775 0 0  0.8 0 0  0.825 0 0  0.85 0 0  0.875 0 0  0.9 0 0  0.925 0 0  0.95 0 0  0.975 0 0  1 0 0  0 0.025 0  0.025 0.025 0  0.05 0.025 0  0.075 0.025 0  0.1 0.025 0  0.125 0.025 0  0.15 0.025 0  0.175 0.025 0  0.2 0.025 0  0.225 0.025 0  0.25 0.025 0  0.275 0.025 0  0.3 0.025 0  0.325 0.025 0  0.35 0.025 0  0.375 0.025 0  0.4 0.025 0  0.425 0.025 0  0.45 0.025 0  0.475 0.025 0  0.5 0.025 0  0.525 0.025 0  0.55 0.025 0  0.575 0.025 0  0.6 0.025 0  0.625 0.025 0  0.65 0.025 0  0.675 0.025 0  0.7 0.025 0  0.725 0.025 0  0.75 0.025 0  0.775 0.025 0  0.8 0.025 0  0.825 0.025 0  0.85 0.025 0  0.875 0.025 0  0.9 0.025 0  0.925 0.025 0  0.95 0.025 0  0.975 0.025 0  1 0.025 0  0 0.05 0  0.025 0.05 0  0.05 0.05 0  0.075 0.05 0  0.1 0.05 0  0.125 0.05 0  0.15 0.05 0  0.175 0.05 0  0.2 0.05 0  0.225 0.05 0  0.25 0.05 0  0.275 0.05 0  0.3 0.05 0  0.325 0.05 0  0.35 0.05 0  0.375 0.05 0  0.4 0.05 0  0.425 0.05 0  0.45 0.05 0  0.475 0.05 0  0.5 0.05 0  0.525 0.05 0  0.55 0.05 0  0.575 0.05 0  0.6 0.05 0  0.625 0.05 0  0.65 0.05 0  0.675 0.05 0  0.7 0.05 0  0.725 0.05 0  0.75 0.05 0  0.775 0.05 0  0.8 0.05 0  0.825 0.05 0  0.85 0.05 0  0.875 0.05 0  0.9 0.05 0  0.925 0.05 0  0.95 0.05 0  0.975 0.05 0  1 0.05 0  0 0.075 0  0.025 0.075 0  0.05 0.075 0  0.075 0.075 0  0.1 0.075 0  0.125 0.075 0  0.15 0.075 0  0.175 0.075 0  0.2 0.075 0  0.225 0.075 0  0.25 0.075 0  0.275 0.075 0  0.3 0.075 0  0.325 0.075 0  0.35 0.075 0  0.375 0.075 0  0.4 0.075 0  0.425 0.075 0  0.45 0.075 0  0.475 0.075 0  0.5 0.075 0  0.525 0.075 0  0.55 0.075 0  0.575 0.075 0  0.6 0.075 0  0.625 0.075 0  0.65 0.075 0  0.675 0.075 0  0.7 0.075 0  0.725 0.075 0  0.75 0.075 0  0.775 0.075 0  0.8 0.075 0  0.825 0.075 0  0.85 0.075 0  0.875 0.075 0  0.9 0.075 0  0.925 0.075 0  0.95 0.075 0  0.975 0.075 0  1 0.075 0  0 0.1 0  0.025 0.1 0  0.05 0.1 0  0.075 0.1 0  0.1 0.1 0  0.125 0.1 0  0.15 0.1 0  0.175 0.1 0  0.2 0.1 0  0.225 0.1 0  0.25 0.1 0  0.275 0.1 0  0.3 0.1 0  0.325 0.1 0  0.35 0.1 0  0.375 0.1 0  0.4 0.1 0  0.425 0.1 0  0.45 0.1 0  0.475 0.1 0  0.5 0.1 0  0.525 0.1 0  0.55 0.1 0  0.575 0.1 0  0.6 0.1 0  0.625 0.1 0  0.65 0.1 0  0.675 0.1 0  0.7 0.1 0  0.725 0.1 0  0.75 0.1 0  0.775 0.1 0  0.8 0.1 0  0.825 0.1 0  0.85 0.1 0  0.875 0.1 0  0.9 0.1 0  0.925 0.1 0  0.95 0.1 0  0.975 0.1 0  1 0.1 0  0 0.125 0  0.025 0.125 0  0.05 0.125 0  0.075 0.125 0  0.1 0.125 0  0.125 0.125 0  0.15 0.125 0  0.175 0.125 0  0.2 0.125 0  0.225 0.125 0  0.25 0.125 0  0.275 0.125 0  0.3 0.125 0  0.325 0.125 0  0.35 0.125 0  0.375 0.125 0  0.4 0.125 0  0.425 0.125 0  0.45 0.125 0  0.475 0.125 0  0.5 0.125 0  0.525 0.125 0  0.55 0.125 0  0.575 0.125 0  0.6 0.125 0  0.625 0.125 0  0.65 0.125 0  0.675 0.125 0  0.7 0.125 0  0.725 0.125 0  0.75 0.125 0  0.775 0.125 0  0.8 0.125 0  0.825 0.125 0  0.85 0.125 0  0.875 0.125 0  0.9 0.125 0  0.925 0.125 0  0.95 0.125 0  0.975 0.125 0  1 0.125 0  0 0.15 0  0.025 0.15 0  0.05 0.15 0  0.075 0.15 0  0.1 0.15 0  0.125 0.15 0  0.15 0.15 0  0.175 0.15 0  0.2 0.15 0  0.225 0.15 0  0.25 0.15 0  0.275 0.15 0  0.3 0.15 0  0.325 0.15 0  0.35 0.15 0  0.375 0.15 0  0.4 0.15 0  0.425 0.15 0  0.45 0.15 0  0.475 0.15 0  0.5 0.15 0  0.525 0.15 0  0.55 0.15 0  0.575 0.15 0  0.6 0.15 0  0.625 0.15 0  0.65 0.15 0  0.675 0.15 0  0.7 0.15 0  0.725 0.15 0  0.75 0.15 0  0.775 0.15 0  0.8 0.15 0  0.825 0.15 0  0.85 0.15 0  0.875 0.15 0  0.9 0.15 0  0.925 0.15 0  0.95 0.15 0  0.975 0.15 0  1 0.15 0  0 0.175 0  0.025 0.175 0  0.05 0.175 0  0.075 0.175 0  0.1 0.175 0  0.125 0.175 0  0.15 0.175 0  0.175 0.175 0  0.2 0.175 0  0.225 0.175 0  0.25 0.175 0  0.275 0.175 0  0.3 0.175 0  0.325 0.175 0  0.35 0.175 0  0.375 0.175 0  0.4 0.175 0  0.425 0.175 0  0.45 0.175 0  0.475 0.175 0  0.5 0.175 0  0.525 0.175 0  0.55 0.175 0  0.575 0.175 0  0.6 0.175 0  0.625 0.175 0  0.65 0.175 0  0.675 0.175 0  0.7 0.175 0  0.725 0.175 0  0.75 0.175 0  0.775 0.175 0  0.8 0.175 0  0.825 0.175 0  0.85 0.175 0  0.875 0.175 0  0.9 0.175 0  0.925 0.175 0  0.95 0.175 0  0.975 0.175 0  1 0.175 0  0 0.2 0  0.025 0.2 0  0.05 0.2 0  0.075 0.2 0  0.1 0.2 0  0.125 0.2 0  0.15 0.2 0  0.175 0.2 0  0.2 0.2 0  0.225 0.2 0  0.25 0.2 0  0.275 0.2 0  0.3 0.2 0  0.325 0.2 0  0.35 0.2 0  0.375 0.2 0  0.4 0.2 0  0.425 0.2 0  0.45 0.2 0  0.475 0.2 0  0.5 0.2 0  0.525 0.2 0  0.55 0.2 0  0.575 0.2 0  0.6 0.2 0  0.625 0.2 0  0.65 0.2 0  0.675 0.2 0  0.7 0.2 0  0.725 0.2 0  0.75 0.2 0  0.775 0.2 0  0.8 0.2 0  0.825 0.2 0  0.85 0.2 0  0.875 0.2 0  0.9 0.2 0  0.925 0.2 0  0.95 0.2 0  0.975 0.2 0  1 0.2 0  0 0.225 0  0.025 0.225 0  0.05 0.225 0  0.075 0.225 0  0.1 0.225 0  0.125 0.225 0  0.15 0.225 0  0.175 0.225 0  0.2 0.225 0  0.225 0.225 0  0.25 0.225 0  0.275 0.225 0  0.3 0.225 0  0.325 0.225 0  0.35 0.225 0  0.375 0.225 0  0.4 0.225 0  0.425 0.225 0  0.45 0.225 0  0.475 0.225 0  0.5 0.225 0  0.525 0.225 0  0.55 0.225 0  0.575 0.225 0  0.6 0.225 0  0.625 0.225 0  0.65 0.225 0  0.675 0.225 0  0.7 0.225 0  0.725 0.225 0  0.75 0.225 0  0.775 0.225 0  0.8 0.225 0  0.825 0.225 0  0.85 0.225 0  0.875 0.225 0  0.9 0.225 0  0.925 0.225 0  0.95 0.225 0  0.975 0.225 0  1 0.225 0  0 0.25 0  0.025 0.25 0  0.05 0.25 0  0.075 0.25 0  0.1 0.25 0  0.125 0.25 0  0.15 0.25 0  0.175 0.25 0  0.2 0.25 0  0.225 0.25 0  0.25 0.25 0  0.275 0.25 0  0.3 0.25 0  0.325 0.25 0  0.35 0.25 0  0.375 0.25 0  0.4 0.25 0  0.425 0.25 0  0.45 0.25 0  0.475 0.25 0  0.5 0.25 0  0.525 0.25 0  0.55 0.25 0  0.575 0.25 0  0.6 0.25 0  0.625 0.25 0  0.65 0.25 0  0.675 0.25 0  0.7 0.25 0  0.725 0.25 0  0.75 0.25 0  0.775 0.25 0  0.8 0.25 0  0.825 0.25 0  0.85 0.25 0  0.875 0.25 0  0.9 0.25 0  0.925 0.25 0  0.95 0.25 0  0.975 0.25 0  1 0.25 0  0 0.275 0  0.025 0.275 0  0.05 0.275 0  0.075 0.275 0  0.1 0.275 0  0.125 0.275 0  0.15 0.275 0  0.175 0.275 0  0.2 0.275 0  0.225 0.275 0  0.25 0.275 0  0.275 0.275 0  0.3 0.275 0  0.325 0.275 0  0.35 0.275 0  0.375 0.275 0  0.4 0.275 0  0.425 0.275 0  0.45 0.275 0  0.475 0.275 0  0.5 0.275 0  0.525 0.275 0  0.55 0.275 0  0.575 0.275 0  0.6 0.275 0  0.625 0.275 0  0.65 0.275 0  0.675 0.275 0  0.7 0.275 0  0.725 0.275 0  0.75 0.275 0  0.775 0.275 0  0.8 0.275 0  0.825 0.275 0  0.85 0.275 0  0.875 0.275 0  0.9 0.275 0  0.925 0.275 0  0.95 0.275 0  0.975 0.275 0  1 0.275 0  0 0.3 0  0.025 0.3 0  0.05 0.3 0  0.075 0.3 0  0.1 0.3 0  0.125 0.3 0  0.15 0.3 0  0.175 0.3 0  0.2 0.3 0  0.225 0.3 0  0.25 0.3 0  0.275 0.3 0  0.3 0.3 0  0.325 0.3 0  0.35 0.3 0  0.375 0.3 0  0.4 0.3 0  0.425 0.3 0  0.45 0.3 0  0.475 0.3 0  0.5 0.3 0  0.525 0.3 0  0.55 0.3 0  0.575 0.3 0  0.6 0.3 0  0.625 0.3 0  0.65 0.3 0  0.675 0.3 0  0.7 0.3 0  0.725 0.3 0  0.75 0.3 0  0.775 0.3 0  0.8 0.3 0  0.825 0.3 0  0.85 0.3 0  0.875 0.3 0  0.9 0.3 0  0.925 0.3 0  0.95 0.3 0  0.975 0.3 0  1 0.3 0  0 0.325 0  0.025 0.325 0  0.05 0.325 0  0.075 0.325 0  0.1 0.325 0  0.125 0.325 0  0.15 0.325 0  0.175 0.325 0  0.2 0.325 0  0.225 0.325 0  0.25 0.325 0  0.275 0.325 0  0.3 0.325 0  0.325 0.325 0  0.35 0.325 0  0.375 0.325 0  0.4 0.325 0  0.425 0.325 0  0.45 0.325 0  0.475 0.325 0  0.5 0.325 0  0.525 0.325 0  0.55 0.325 0  0.575 0.325 0  0.6 0.325 0  0.625 0.325 0  0.65 0.325 0  0.675 0.325 0  0.7 0.325 0  0.725 0.325 0  0.75 0.325 0  0.775 0.325 0  0.8 0.325 0  0.825 0.325 0  0.85 0.325 0  0.875 0.325 0  0.9 0.325 0  0.925 0.325 0  0.95 0.325 0  0.975 0.325 0  1 0.325 0  0 0.35 0  0.025 0.35 0  0.05 0.35 0  0.075 0.35 0  0.1 0.35 0  0.125 0.35 0  0.15 0.35 0  0.175 0.35 0  0.2 0.35 0  0.225 0.35 0  0.25 0.35 0  0.275 0.35 0  0.3 0.35 0  0.325 0.35 0  0.35 0.35 0  0.375 0.35 0  0.4 0.35 0  0.425 0.35 0  0.45 0.35 0  0.475 0.35 0  0.5 0.35 0  0.525 0.35 0  0.55 0.35 0  0.575 0.35 0  0.6 0.35 0  0.625 0.35 0  0.65 0.35 0  0.675 0.35 0  0.7 0.35 0  0.725 0.35 0  0.75 0.35 0  0.775 0.35 0  0.8 0.35 0  0.825 0.35 0  0.85 0.35 0  0.875 0.35 0  0.9 0.35 0  0.925 0.35 0  0.95 0.35 0  0.975 0.35 0  1 0.35 0  0 0.375 0  0.025 0.375 0  0.05 0.375 0  0.075 0.375 0  0.1 0.375 0  0.125 0.375 0  0.15 0.375 0  0.175 0.375 0  0.2 0.375 0  0.225 0.375 0  0.25 0.375 0  0.275 0.375 0  0.3 0.375 0  0.325 0.375 0  0.35 0.375 0  0.375 0.375 0  0.4 0.375 0  0.425 0.375 0  0.45 0.375 0  0.475 0.375 0  0.5 0.375 0  0.525 0.375 0  0.55 0.375 0  0.575 0.375 0  0.6 0.375 0  0.625 0.375 0  0.65 0.375 0  0.675 0.375 0  0.7 0.375 0  0.725 0.375 0  0.75 0.375 0  0.775 0.375 0  0.8 0.375 0  0.825 0.375 0  0.85 0.375 0  0.875 0.375 0  0.9 0.375 0  0.925 0.375 0  0.95 0.375 0  0.975 0.375 0  1 0.375 0  0 0.4 0  0.025 0.4 0  0.05 0.4 0  0.075 0.4 0  0.1 0.4 0  0.125 0.4 0  0.15 0.4 0  0.175 0.4 0  0.2 0.4 0  0.225 0.4 0  0.25 0.4 0  0.275 0.4 0  0.3 0.4 0  0.325 0.4 0  0.35 0.4 0  0.375 0.4 0  0.4 0.4 0  0.425 0.4 0  0.45 0.4 0  0.475 0.4 0  0.5 0.4 0  0.525 0.4 0  0.55 0.4 0  0.575 0.4 0  0.6 0.4 0  0.625 0.4 0  0.65 0.4 0  0.675 0.4 0  0.7 0.4 0  0.725 0.4 0  0.75 0.4 0  0.775 0.4 0  0.8 0.4 0  0.825 0.4 0  0.85 0.4 0  0.875 0.4 0  0.9 0.4 0  0.925 0.4 0  0.95 0.4 0  0.975 0.4 0  1 0.4 0  0 0.425 0  0.025 0.425 0  0.05 0.425 0  0.075 0.425 0  0.1 0.425 0  0.125 0.425 0  0.15 0.425 0  0.175 0.425 0  0.2 0.425 0  0.225 0.425 0  0.25 0.425 0  0.275 0.425 0  0.3 0.425 0  0.325 0.425 0  0.35 0.425 0  0.375 0.425 0  0.4 0.425 0  0.425 0.425 0  0.45 0.425 0  0.475 0.425 0  0.5 0.425 0  0.525 0.425 0  0.55 0.425 0  0.575 0.425 0  0.6 0.425 0  0.625 0.425 0  0.65 0.425 0  0.675 0.425 0  0.7 0.425 0  0.725 0.425 0  0.75 0.425 0  0.775 0.425 0  0.8 0.425 0  0.825 0.425 0  0.85 0.425 0  0.875 0.425 0  0.9 0.425 0  0.925 0.425 0  0.95 0.425 0  0.975 0.425 0  1 0.425 0  0 0.45 0  0.02
[...]
<PointData  Scalars="ControlVisualisation"> 
<DataArray  type="Float64"  Name="ControlVisualisation"  format="ascii">4.0261603103369105e-02  3.0557425981303926e-02  3.0607143258094771e-02  3.0687570819108244e-02  3.0789737208198671e-02  3.0903319587353543e-02  3.1018767229900199e-02  3.1129172492106227e-02  3.1230568537843052e-02  3.1321325635029013e-02  3.1401379154686736e-02  3.1471636993472767e-02  3.1533574019468671e-02  3.1588924003958858e-02  3.1639431555881656e-02  3.1686668160272616e-02  3.1731905585946664e-02  3.1776019737484201e-02  3.1819405893405685e-02  3.1861913997807641e-02  3.1902828173302922e-02  3.1940904116373493e-02  3.1974456730164781e-02  3.2001483117366919e-02  3.2019812320458543e-02  3.2027266078101163e-02  3.2021781108133543e-02  3.2001412970522967e-02  3.1964169622360858e-02  3.1907750335902416e-02  3.1829447129867953e-02  3.1726510343835626e-02  3.1597074834724091e-02  3.1441478420612144e-02  3.1263820545447983e-02  3.1073492471214399e-02  3.0886050384632248e-02  3.0722000468873367e-02  3.0604100527255450e-02  3.0546733638268396e-02  6.8126204667816465e-02  3.0557736571836823e-02  2.0680648422111068e-02  2.0742316481947565e-02  2.0846897692603509e-02  2.0986505047697536e-02  2.1148077517349515e-02  2.1318512899942965e-02  2.1487424838696794e-02  2.1647988842739031e-02  2.1796553111413135e-02  2.1931850224988572e-02  2.2054336744849100e-02  2.2165677043822312e-02  2.2268254880931794e-02  2.2364714543199569e-02  2.2457603386827625e-02  2.2549127046863331e-02  2.2640947179875966e-02  2.2733953521375895e-02  2.2828018077701392e-02  2.2921809402272467e-02  2.3012745825998458e-02  2.3097106811356311e-02  2.3170272264307051e-02  2.3227065833356438e-02  2.3262191867346748e-02  2.3270692169896291e-02  2.3248234450029121e-02  2.3191011614862596e-02  2.3095276467767340e-02  2.2957049864198897e-02  2.2772777532235920e-02  2.2541156913285169e-02  2.2265454265087574e-02  2.1955499363631274e-02  2.1628825673054880e-02  2.1310780625665316e-02  2.1032245644158894e-02  2.0824101233457865e-02  2.0697979200220817e-02  3.0546817595836270e-02  3.0610346825464721e-02  2.0746327323629885e-02  2.0833981171567713e-02  2.0964212508898177e-02  2.1137320574801454e-02  2.1336428349544394e-02  2.1545651958710010e-02  2.1753229617143086e-02  2.1951745972368798e-02  2.2136970370501836e-02  2.2306955953393246e-02  2.2461779906619496e-02  2.2603337117532731e-02  2.2734783558102371e-02  2.2859813800002210e-02  2.2982122274389748e-02  2.3105118241955980e-02  2.3231685074135967e-02  2.3363769732916369e-02  2.3501802094009757e-02  2.3644160896703282e-02  2.3786928991417874e-02  2.3924036091588500e-02  2.4047715746455818e-02  2.4149191515893287e-02  2.4219600484610422e-02  2.4251072326155716e-02  2.4237566796795926e-02  2.4174782307950168e-02  2.4058844328021745e-02  2.3884875416413407e-02  2.3647603542163765e-02  2.3344754223698697e-02  2.2981083954521090e-02  2.2570528726641031e-02  2.2136589523581475e-02  2.1712714490714418e-02  2.1338546987538395e-02  2.1052337417015874e-02  2.0835313192783124e-02  3.0607532723675709e-02  3.0705787559734913e-02  2.0871904923833950e-02  2.0992904445330657e-02  2.1134704045613940e-02  2.1311355633635960e-02  2.1505392554865034e-02  2.1702527374537522e-02  2.1894636159112569e-02  2.2077495522049146e-02  2.2247978129470599e-02  2.2403642690592421e-02  2.2544065054615644e-02  2.2671483013405169e-02  2.2789910498430783e-02  2.2903783830330003e-02  2.3017248509418445e-02  2.3134125311772988e-02  2.3257918872908488e-02  2.3391346393351130e-02  2.3535435694719751e-02  2.3688676250408255e-02  2.3846674884885257e-02  2.4002485642195055e-02  2.4147286812043822e-02  2.4271085300314917e-02  2.4363711360864175e-02  2.4416464951611445e-02  2.4423895765023598e-02  2.4384217602147609e-02  2.4296782432362649e-02  2.4157750306539248e-02  2.3959058486852772e-02  2.3693725312749641e-02  2.3363092433353293e-02  2.2978775154740536e-02  2.2561363202869104e-02  2.2140255959221915e-02  2.1751270099752532e-02  2.1436566762057400e-02  2.1108293726393463e-02  3.0751332506129925e-02  3.0829580972615372e-02  2.1049494764017112e-02  2.1275453571093995e-02  2.1440395850508345e-02  2.1609601918756119e-02  2.1775963901588757e-02  2.1936017287846093e-02  2.2091486180705108e-02  2.2243508164188231e-02  2.2387625137876861e-02  2.2517133531077860e-02  2.2629805202428695e-02  2.2729624692443835e-02  2.2823256359415286e-02  2.2916561882805109e-02  2.3013886835125275e-02  2.3119072027146269e-02  2.3236187470633222e-02  2.3368956740615517e-02  2.3519228676705202e-02  2.3685517218599614e-02  2.3862537804983323e-02  2.4042123756707112e-02  2.4214569007226756e-02  2.4368975666404193e-02  2.4493504413904136e-02  2.4577705731803387e-02  2.4616423104160810e-02  2.4612597506440716e-02  2.4573652207895910e-02  2.4500577038364259e-02  2.4380744346992354e-02  2.4196118058682874e-02  2.3941448750009173e-02  2.3627901464358711e-02  2.3273154068638172e-02  2.2894840574174683e-02  2.2524193408698247e-02  2.2191824903057836e-02  2.1622110810842081e-02  3.1009923760241569e-02  3.0929661257894637e-02  2.1489282605836140e-02  2.1974774854639448e-02  2.2138746135559217e-02  2.2206065643210437e-02  2.2248890996470188e-02  2.2296974101509628e-02  2.2370863879233083e-02  2.2471454451851190e-02  2.2576865994974309e-02  2.2663470745088003e-02  2.2727547796346330e-02  2.2781331490447761e-02  2.2837910037032446e-02  2.2904134007018309e-02  2.2982524768190751e-02  2.3075614126421770e-02  2.3188042008833561e-02  2.3325502859540877e-02  2.3491640060552890e-02  2.3685455180995626e-02  2.3900741891637992e-02  2.4127443401990478e-02  2.4355014196891629e-02  2.4571612187124493e-02  2.4761259936828921e-02  2.4907943494715791e-02  2.5004783816701584e-02  2.5062136451904964e-02  2.5105295875916860e-02  2.5150243965777860e-02  2.5176501755450290e-02  2.5139384920020755e-02  2.5025082858914853e-02  2.4857201804544756e-02  2.4650927716251006e-02  2.4403294135794514e-02  2.4130800171542524e-02  2.3714643100811141e-02  2.2467111717255937e-02  3.1318354890989976e-02  3.3698495010336095e-02  2.4021139227806972e-02  2.6080243885358959e-02  2.6132737974606690e-02  2.5263291636952293e-02  2.4327271950755833e-02  2.3601412464782714e-02  2.3185016064099000e-02  2.3017143527716583e-02  2.2958473807198891e-02  2.2909098612067167e-02  2.2856322047420878e-02  2.2824494645357036e-02  2.2828646645864269e-02  2.2867358018776377e-02  2.2934456322312127e-02  2.3028899611174190e-02  2.3157662404810018e-02  2.3332598555166329e-02  2.3563021192541087e-02  2.3851348108296394e-02  2.4191617120575378e-02  2.4569407513559929e-02  2.4974058621028094e-02  2.5392942828026115e-02  2.5795119283891933e-02  2.6144891380188762e-02  2.6429323550610125e-02  2.6685907853239859e-02  2.7004017351945228e-02  2.7442868672186555e-02  2.7929026975388471e-02  2.8275115692314640e-02  2.8451478129777642e-02  2.8620081554230500e-02  2.8798031389366558e-02  2.8885531198044163e-02  2.8962889117275323e-02  2.8849170641110929e-02  2.6196944726087724e-02  3.2449081895029229e-02  2.4333990372810627e-01  3.0140981424365793e-01  2.6542660878153423e-01  1.9655935247832693e-01  1.2389654849448034e-01  7.0817344896186560e-02  4.4395860930359909e-02  3.3448499677124224e-02  2.8858383798449194e-02  2.6577886338346009e-02  2.5080282827718684e-02  2.4114755031363046e-02  2.3605243209244904e-02  2.3380285620919625e-02  2.3324221456654661e-02  2.3372275153872954e-02  2.3498406613887687e-02  2.3705531806590380e-02  2.4015494119534027e-02  2.4453410252370026e-02  2.5047942744168772e-02  2.5825594493569620e-02  2.6766673174544908e-02  2.7859051949280560e-02  2.9141339544036929e-02  3.0549334031145355e-02  3.1898918518632122e-02  3.3137642127794464e-02  3.4331253261204508e-02  3.5716364181584519e-02  3.7681720804137876e-02  4.0491076982324480e-02  4.3524995432270640e-02  4.5770821289984047e-02  4.8188871617077356e-02  5.1426390091157709e-02  5.4597216186637466e-02  5.9039456506934235e-02  6.4095712209042088e-02  7.1384843443718066e-02  6.0155782766557538e-02  9.5506050933275621e-01  9.5991267115449452e-01  9.3993932959600246e-01  9.0316396341485139e-01  8.6004348161821575e-01  8.0445157700425685e-01  6.2672447269267650e-01  4.7326005688527889e-01  4.1558617678894944e-01  2.5992785376237948e-01  1.0213806428842509e-01  5.4070549235740444e-02  3.9492983413111769e-02  3.4008322130764837e-02  3.1442789258510767e-02  3.0062745793839833e-02  2.9326597742022519e-02  2.9057879137653241e-02  2.9222794250778859e-02  2.9911175841814706e-02  3.1293191778049748e-02  3.3183643946922387e-02  3.4549729515435695e-02  3.4755536374539778e-02  3.8024605281163248e-02  4.7209544191940421e-02  5.2253933917067522e-02  5.0257385130754548e-02  5.5881875447191129e-02  7.3505863529913631e-02  9.4573223655763594e-02  1.1398384923343315e-01  1.3226272295254698e-01  1.4371970707200157e-01  1.6267578740466393e-01  1.9861814713557449e-01  2.4064203490926278e-01  3.0413942271123062e-01  3.6093690907493936e-01  4.6176145116387396e-01  5.4228972858093094e-01  9.7623764237301125e-01  9.7971648151388036e-01  9.7786495701294529e-01  9.7354560886600283e-01  9.6730228422633213e-01  9.5710792929771793e-01  9.4137646606243941e-01  9.2783566079014068e-01  9.2443835768343774e-01  9.0726935706021417e-01  8.5425137722608735e-01  7.6389211850926075e-01  6.2705207000764174e-01  4.8809926370794082e-01  3.6232747907758117e-01  2.5467823171832854e-01  1.7657259974973369e-01  1.2918542394972601e-01  1.0216365424349201e-01  8.5991645396516506e-02  7.4237512928781807e-02  6.3369692417827778e-02  6.4069239526174382e-02  7.7177330242213557e-02  6.0646661038173268e-02  2.1841282222884510e-02  2.3014326421084714e-02  6.8026188607696061e-02  1.5133883373339971e-01  2.4879816258635068e-01  3.3509262920728317e-01  4.1111532422591079e-01  4.6798498489446838e-01  5.0414084638476686e-01  5.4931807864570503e-01  5.8434580565411764e-01  6.2989492873759212e-01  6.7713572006003764e-01  7.0514545178990229e-01  7.8114952227956658e-01  7.9965836783553368e-01  9.7850781019427169e-01  9.7995638980617783e-01  9.7980699282109429e-01  9.7967142656445838e-01  9.7780411251918142e-01  9.7533093756392109e-01  9.7234032846099805e-01  9.6863368823564255e-01  9.6351301728204053e-01  9.5525621186805809e-01  9.4325460409488304e-01  9.3054648313919153e-01  9.1634152696759819e-01  8.9746097673660974e-01  8.7247508064572787e-01  8.3403211501786823e-01  7.6847332779883315e-01  6.6989718734954296e-01  5.5507139257195770e-01  4.4977935967170340e-01  3.6882461426617136e-01  3.1958131679877805e-01  3.0311862524416494e-01  3.1293677647503593e-01  3.4362413767413674e-01  3.8883128235212833e-01  4.3646786110678837e-01  4.9158659051263964e-01  5.6569843263877972e-01  6.4061428142757071e-01  6.8775556715601616e-01  7.1295043124487889e-01  7.2709057603903759e-01  7.3098678985316579e-01  7.4787946159808039e-01  7.6282798318352019e-01  7.7350177439467815e-01  7.8595728962335165e-01  8.1257208016621529e-01  8.5487065109282390e-01  8.3779958988962122e-01  9.7372403396993346e-01  9.7977231836550438e-01  9.7967833550322181e-01  9.7911986760586922e-01  9.7788876784588052e-01  9.7688268440779247e-01  9.7601349552571670e-01  9.7522064726930535e-01  9.7422777044561037e-01  9.7273830760153812e-01  9.7058174415288612e-01  9.6782576140280963e-01  9.6462623973392769e-01  9.6032489150953704e-01  9.5469727652313552e-01  9.4789215006991967e-01  9.3991888303945748e-01  9.3049466581908014e-01  9.1874387349965914e-01  9.0320474523465977e-01  8.8279069995379955e-01  8.5839553500875820e-01  8.3251879223218683e-01  8.0774213516204496e-01  7.8844423275799291e-01  7.7771996371923346e-01  7.6843241209809721e-01  7.5567948098888138e-01  7.5320575567325398e-01  7.6635083582335362e-01  7.8020081304631461e-01  7.8330892912467887e-01  7.7534435166589044e-01  7.6269648560433934e-01  7.6420833564910773e-01  7.5427366250489458e-01  7.5030690579908543e-01  7.5909722120463863e-01  7.5747766526926019e-01  7.8492215393348086e-01  7.8818888632296791e-01  9.4199919066113857e-01  9.6798758870793844e-01  9.6681538348237506e-01  9.6733339340887103e-01  9.6847013727628584e-01  9.6974213006620236e-01  9.7085715969583808e-01  9.7187271202508507e-01  9.7264352644713381e-01  9.7287726509210337e-01  9.7261240781589220e-01  9.7221719517041305e-01  9.7139811834987522e-01  9.7004303393526981e-01  9.6819142025593874e-01  9.6594953723128485e-01  9.6322669917483184e-01  9.5976273514102628e-01  9.5499928298000469e-01  9.4811744914304075e-01  9.3832362622894572e-01  9.2523078181431506e-01  9.0921586927813969e-01  8.9102763383576156e-01  8.7331915286623807e-01  8.6136086596031858e-01  8.5348574102983354e-01  8.3597434660785341e-01  8.0453755789641257e-01  7.7376805946569582e-01  7.4862482967143440e-01  7.2323408935488065e-01  6.9589657511070346e-01  6.6005408660284925e-01  6.1966866011699306e-01  5.7731144956432801e-01  5.3105755077711081e-01  4.8957227432515349e-01  4.7861451973111391e-01  4.9078765354461362e-01  5.6635943512079789e-01  1.2560448603072619e-01  4.5441077358296278e-01  5.6807866932972462e-01  6.8739134026700022e-01  8.2361652610809821e-01  8.9274786594606936e-01  9.2468392426466672e-01  9.4111346377999017e-01  9.5092337089020795e-01  9.5727119100741687e-01  9.6154521595223263e-01  9.6414557829897740e-01  9.6481484228281567e-01  9.6441762654477348e-01  9.6353338418839507e-01  9.6230186900416259e-01  9.6054971692524393e-01  9.5768813421863352e-01  9.5299146727043305e-01  9.4580238488337964e-01  9.3526528122828456e-01  9.2101713928364992e-01  9.0615326874843771e-01  8.9485959475887433e-01  8.9111404560173368e-01  8.9056623298865567e-01  8.6162763906406825e-01  8.0098860722300902e-01  7.4242051752967719e-01  6.7888012970931055e-01  5.9190491201052597e-01  4.9591572279566404e-01  4.0546092455681437e-01  3.2193337066730793e-01  2.3475391590199138e-01  1.5381127123343485e-01  1.0683361498928158e-01  8.2273829236507501e-02  6.6359451361582292e-02  5.3818568768342484e-02  8.4129865545129731e-02  3.3024670675800338e-02  3.0743329604704654e-02  6.0721098607292197e-02  9.8865595841759912e-02  2.0435486453271942e-01  2.8026984227729657e-01  3.5162452944509637e-01  4.3889281368118327e-01  5.6245486022215330e-01  6.9279319374924708e-01  7.8643160074144292e-01  8.3883304924805968e-01  8.7116064773080515e-01  8.9354514819714470e-01  9.0784369621810557e-01  9.1757434524768655e-01  9.2491936910783390e-01  9.2952963484714690e-01  9.2908314651619250e-01  9.1917162639784689e-01  8.9798534677207387e-01  8.8407509302285836e-01  8.9621954340564447e-01  9.1280708162347113e-01  8.8633448070064325e-01  8.1003611769869444e-01  6.8162138244581572e-01  5.5809006290473406e-01  4.4969598878284972e-01  2.7182112709719136e-01  1.3446586732930021e-01  8.2548607469956903e-02  5.7524931215633179e-02  4.4944751052647600e-02  3.7613773842701738e-02  3.2722669013061347e-02  2.9142467505873831e-02  2.6442494082151546e-02  2.4333786024390833e-02  2.2659471343337210e-02  3.2660185184309160e-02  3.2191682832290805e-02  2.4548120230026140e-02  2.9684922500764072e-02  3.3740026309188736e-02  3.7169675726347197e-02  4.2500711594911443e-02  5.1042618711536335e-02  6.6003467290881607e-02  9.7490958238962241e-02  1.4468186377754638e-01  1.9669891003600337e-01  2.5127347308702813e-01  3.1405966947577652e-01  3.9696933924897498e-01  4.9629836574172614e-01  5.9707574153130116e-01  6.7569997705119256e-01  7.0188946643004180e-01  7.0010609848000249e-01  7.3564442697832733e-01  7.8301730784955426e-01  8.4711983777849476e-01  8.7522188067808171e-01  8.4365613153664798e-01  7.1271754762826323e-01  5.3705111758994906e-01  3.5780665133110828e-01  1.7446605843472310e-01  9.1083814568299212e-02  6.0800882717928696e-02  4.7416607085745757e-02  3.9722499186884884e-02  3.4719798096779143e-02  3.1195080195127473e-02  2.8459686932782162e-02  2.6212756410609293e-02  2.4335143889265630e-02  2.2794121561720598e-02  2.1626921279809214e-02  2.0932590966499989e-02  3.0616307920380489e-02  3.2570656485690845e-02  2.4535961761342012e-02  2.6935598343348782e-02  2.7851608443360869e-02  2.8453926710124512e-02  2.8747205496573870e-02  2.9140931139203168e-02  3.0001725610565522e-02  3.1461454569012441e-02  3.3692429740888728e-02  3.6849963520340631e-02  4.1368561826349251e-02  4.6911355591655754e-02  5.3788406589234145e-02  6.2655411593747018e-02  7.3701987896289053e-02  8.9575648986272627e-02  1.2577368415419488e-01  2.1611830953522113e-01  3.2812712631694291e-01  4.3697367086874711e-01  5.4345748827400198e-01  5.8265366948602293e-01  5.4293739407277142e-01  4.9610800484451356e-01  4.3680730349524649e-01  3.3108325074698058e-01  1.6922691725563230e-01  8.0530705821383886e-02  5.2682456741067279e-02  4.2393639497769177e-02  3.6777324955642836e-02  3.2917061735639262e-02  2.9948154739221078e-02  2.7518608486218663e-02  2.5484603486158261e-02  2.3798320886689549e-02  2.2462959651350589e-02  2.1516390747066912e-02  2.0920364836922906e-02  3.0573053776638454e-02  3.2496300849295424e-02  2.4260071411504477e-02  2.5982090520041412e-02  2.6459679862791168e-02  2.6658697792267729e-02  2.6730710846624438e-02  2.6758275920071781e-02  2.6781092952239523e-02  2.6812448900904381e-02  2.6883626751821786e-02  2.7098184310837676e-02  2.7564361956233477e-02  2.8276713191662868e-02  2.9286302811024678e-02  3.0872594593150456e-02  3.3411982579315963e-02  3.7322398509951248e-02  4.3023324392014839e-02  5.2467368799551273e-02  7.0899981502201587e-02  1.0146926691174944e-01  1.4108026149539285e-01  2.2012007416656848e-01  3.2004624985904723e-01  4.0214021323780441e-01  4.3135023646540444e-01  4.0093820405323582e-01  2.8153574492214511e-01  1.1923874010493259e-01  6.1455735773605184e-02  4.4892522226051446e-02  3.8021993108124520e-02  3.3738683700726212e-02  3.0516849006145284e-02  2.7924893679750835e-02  2.5812818667938494e-02  2.4124693385731338e-02  2.2843467020501707e-02  2.1959566319037543e-02  2.1256877422949964e-02  3.0719115950210561e-02  3.2362329759217892e-02  2.3973944002119430e-02  2.5388672742226941e-02  2.5694487546237335e-02  2.5859585883265267e-02  2.5949932928080496e-02  2.5994200994398392e-02  2.6010619587228695e-02  2.6011282229001290e-02  2.6013335073362082e-02  2.6044151822845248e-02  2.6150623056658218e-02  2.6409048250182761e-02  2.6910144403033017e-02  2.7746743201411038e-02  2.9080921509477605e-02  3.1189733900153584e-02  3.4296895940982404e-02  3.8192379050057811e-02  4.2329475837154421e-02  4.8285087799015289e-02  6.6973568699400632e-02  1.1398386971376372e-01  1.9978208684767443e-01  3.1469871300939961e-01  4.0253124730638734e-01  4.3357191947861368e-01  3.8834157522625751e-01  2.2881728999305473e-01  9.5355223060508129e-02  5.3807766007463335e-02  4.1475291893452997e-02  3.5741431414241624e-02  3.1932231577728676e-02  2.9020457235590800e-02  2.6727135793668144e-02  2.4952188836474938e-02  2.3643618308552161e-02  2.2745884728486102e-02  2.1816866407856014e-02  3.1001669985224172e-02  3.2207441785530720e-02  2.3646295485013107e-02  2.4837651345968076e-02  2.5057484944992544e-02  2.5206978185651659e-02  2.5332249344853685e-02  2.5439553052211787e-02  2.5536600999682288e-02  2.5627344727151811e-02  2.5715109485267396e-02  2.5814172876782185e-02  2.5959956733439163e-02  2.6207115652358347e-02  2.6614440549291050e-02  2.7238154472020281e-02  2.8153743574842509e-02  2.9480420186341210e-02  3.1364240500831288e-02  3.3862444921794486e-02  3.6742657374948987e-02  3.9981698287610959e-02  4.7053534639240342e-02  7.1578847272390472e-02  1.2585056241581075e-01  2.2449551379150959e-01  3.4851251921757370e-01  4.2778290519081275e-01  4.3283903015533698e-01  3.5361682290410212e-01  1.9661408497006710e-01  8.6303799325259181e-02  5.0811238639971348e-02  3.9702853674199845e-02  3.4392984519285762e-02  3.0873244146500292e-02  2.8251078866679619e-02  2.6282405732996963e-02  2.4859750506257640e-02  2.3876327304202749e-02  2.2575943661942818e-02  3.1369684632080723e-02  3.2047508166857447e-02  2.3322632572343356e-02  2.4341523046359375e-02  2.4511270050316853e-02  2.4636948865096649e-02  2.4765178275324925e-02  2.4899122661248534e-02  2.5039462682427353e-02  2.518739659