<?xml version="1.0"?>
<VTKFile type="UnstructuredGrid"  version="0.1"  >
<UnstructuredGrid>
<Piece  NumberOfPoints="1681" NumberOfCells="3200">
<Points>
<DataArray  type="Float64"  NumberOfComponents="3"  format="ascii">0 0 0  0.025 0 0  0.05 0 0  0.075 0 0  0.1 0 0  0.125 0 0  0.15 0 0  0.175 0 0  0.2 0 0  0.225 0 0  0.25 0 0  0.275 0 0  0.3 0 0  0.325 0 0  0.35 0 0  0.375 0 0  0.4 0 0  0.425 0 0  0.45 0 0  0.475 0 0  0.5 0 0  0.525 0 0  0.55 0 0  0.575 0 0  0.6 0 0  0.625 0 0  0.65 0 0  0.675 0 0  0.7 0 0  0.725 0 0  0.75 0 0  0.775 0 0  0.8 0 0  0.825 0 0  0.85 0 0  0.875 0 0  0.9 0 0  0.925 0 0  0.95 0 0  0.975 0 0  1 0 0  0 0.025 0  0.025 0.025 0  0.05 0.025 0  0.075 0.025 0  0.1 0.025 0  0.125 0.025 0  0.15 0.025 0  0.175 0.025 0  0.2 0.025 0  0.225 0.025 0  0.25 0.025 0  0.275 0.025 0  0.3 0.025 0  0.325 0.025 0  0.35 0.025 0  0.375 0.025 0  0.4 0.025 0  0.425 0.025 0  0.45 0.025 0  0.475 0.025 0  0.5 0.025 0  0.525 0.025 0  0.55 0.025 0  0.575 0.025 0  0.6 0.025 0  0.625 0.025 0  0.65 0.025 0  0.675 0.025 0  0.7 0.025 0  0.725 0.025 0  0.75 0.025 0  0.775 0.025 0  0.8 0.025 0  0.825 0.025 0  0.85 0.025 0  0.875 0.025 0  0.9 0.025 0  0.925 0.025 0  0.95 0.025 0  0.975 0.025 0  1 0.025 0  0 0.05 0  0.025 0.05 0  0.05 0.05 0  0.075 0.05 0  0.1 0.05 0  0.125 0.05 0  0.15 0.05 0  0.175 0.05 0  0.2 0.05 0  0.225 0.05 0  0.25 0.05 0  0.275 0.05 0  0.3 0.05 0  0.325 0.05 0  0.35 0.05 0  0.375 0.05 0  0.4 0.05 0  0.425 0.05 0  0.45 0.05 0  0.475 0.05 0  0.5 0.05 0  0.525 0.05 0  0.55 0.05 0  0.575 0.05 0  0.6 0.05 0  0.625 0.05 0  0.65 0.05 0  0.675 0.05 0  0.7 0.05 0  0.725 0.05 0  0.75 0.05 0  0.775 0.05 0  0.8 0.05 0  0.825 0.05 0  0.85 0.05 0  0.875 0.05 0  0.9 0.05 0  0.925 0.05 0  0.95 0.05 0  0.975 0.05 0  1 0.05 0  0 0.075 0  0.025 0.075 0  0.05 0.075 0  0.075 0.075 0  0.1 0.075 0  0.125 0.075 0  0.15 0.075 0  0.175 0.075 0  0.2 0.075 0  0.225 0.075 0  0.25 0.075 0  0.275 0.075 0  0.3 0.075 0  0.325 0.075 0  0.35 0.075 0  0.375 0.075 0  0.4 0.075 0  0.425 0.075 0  0.45 0.075 0  0.475 0.075 0  0.5 0.075 0  0.525 0.075 0  0.55 0.075 0  0.575 0.075 0  0.6 0.075 0  0.625 0.075 0  0.65 0.075 0  0.675 0.075 0  0.7 0.075 0  0.725 0.075 0  0.75 0.075 0  0.775 0.075 0  0.8 0.075 0  0.825 0.075 0  0.85 0.075 0  0.875 0.075 0  0.9 0.075 0  0.925 0.075 0  0.95 0.075 0  0.975 0.075 0  1 0.075 0  0 0.1 0  0.025 0.1 0  0.05 0.1 0  0.075 0.1 0  0.1 0.1 0  0.125 0.1 0  0.15 0.1 0  0.175 0.1 0  0.2 0.1 0  0.225 0.1 0  0.25 0.1 0  0.275 0.1 0  0.3 0.1 0  0.325 0.1 0  0.35 0.1 0  0.375 0.1 0  0.4 0.1 0  0.425 0.1 0  0.45 0.1 0  0.475 0.1 0  0.5 0.1 0  0.525 0.1 0  0.55 0.1 0  0.575 0.1 0  0.6 0.1 0  0.625 0.1 0  0.65 0.1 0  0.675 0.1 0  0.7 0.1 0  0.725 0.1 0  0.75 0.1 0  0.775 0.1 0  0.8 0.1 0  0.825 0.1 0  0.85 0.1 0  0.875 0.1 0  0.9 0.1 0  0.925 0.1 0  0.95 0.1 0  0.975 0.1 0  1 0.1 0  0 0.125 0  0.025 0.125 0  0.05 0.125 0  0.075 0.125 0  0.1 0.125 0  0.125 0.125 0  0.15 0.125 0  0.175 0.125 0  0.2 0.125 0  0.225 0.125 0  0.25 0.125 0  0.275 0.125 0  0.3 0.125 0  0.325 0.125 0  0.35 0.125 0  0.375 0.125 0  0.4 0.125 0  0.425 0.125 0  0.45 0.125 0  0.475 0.125 0  0.5 0.125 0  0.525 0.125 0  0.55 0.125 0  0.575 0.125 0  0.6 0.125 0  0.625 0.125 0  0.65 0.125 0  0.675 0.125 0  0.7 0.125 0  0.725 0.125 0  0.75 0.125 0  0.775 0.125 0  0.8 0.125 0  0.825 0.125 0  0.85 0.125 0  0.875 0.125 0  0.9 0.125 0  0.925 0.125 0  0.95 0.125 0  0.975 0.125 0  1 0.125 0  0 0.15 0  0.025 0.15 0  0.05 0.15 0  0.075 0.15 0  0.1 0.15 0  0.125 0.15 0  0.15 0.15 0  0.175 0.15 0  0.2 0.15 0  0.225 0.15 0  0.25 0.15 0  0.275 0.15 0  0.3 0.15 0  0.325 0.15 0  0.35 0.15 0  0.375 0.15 0  0.4 0.15 0  0.425 0.15 0  0.45 0.15 0  0.475 0.15 0  0.5 0.15 0  0.525 0.15 0  0.55 0.15 0  0.575 0.15 0  0.6 0.15 0  0.625 0.15 0  0.65 0.15 0  0.675 0.15 0  0.7 0.15 0  0.725 0.15 0  0.75 0.15 0  0.775 0.15 0  0.8 0.15 0  0.825 0.15 0  0.85 0.15 0  0.875 0.15 0  0.9 0.15 0  0.925 0.15 0  0.95 0.15 0  0.975 0.15 0  1 0.15 0  0 0.175 0  0.025 0.175 0  0.05 0.175 0  0.075 0.175 0  0.1 0.175 0  0.125 0.175 0  0.15 0.175 0  0.175 0.175 0  0.2 0.175 0  0.225 0.175 0  0.25 0.175 0  0.275 0.175 0  0.3 0.175 0  0.325 0.175 0  0.35 0.175 0  0.375 0.175 0  0.4 0.175 0  0.425 0.175 0  0.45 0.175 0  0.475 0.175 0  0.5 0.175 0  0.525 0.175 0  0.55 0.175 0  0.575 0.175 0  0.6 0.175 0  0.625 0.175 0  0.65 0.175 0  0.675 0.175 0  0.7 0.175 0  0.725 0.175 0  0.75 0.175 0  0.775 0.175 0  0.8 0.175 0  0.825 0.175 0  0.85 0.175 0  0.875 0.175 0  0.9 0.175 0  0.925 0.175 0  0.95 0.175 0  0.975 0.175 0  1 0.175 0  0 0.2 0  0.025 0.2 0  0.05 0.2 0  0.075 0.2 0  0.1 0.2 0  0.125 0.2 0  0.15 0.2 0  0.175 0.2 0  0.2 0.2 0  0.225 0.2 0  0.25 0.2 0  0.275 0.2 0  0.3 0.2 0  0.325 0.2 0  0.35 0.2 0  0.375 0.2 0  0.4 0.2 0  0.425 0.2 0  0.45 0.2 0  0.475 0.2 0  0.5 0.2 0  0.525 0.2 0  0.55 0.2 0  0.575 0.2 0  0.6 0.2 0  0.625 0.2 0  0.65 0.2 0  0.675 0.2 0  0.7 0.2 0  0.725 0.2 0  0.75 0.2 0  0.775 0.2 0  0.8 0.2 0  0.825 0.2 0  0.85 0.2 0  0.875 0.2 0  0.9 0.2 0  0.925 0.2 0  0.95 0.2 0  0.975 0.2 0  1 0.2 0  0 0.225 0  0.025 0.225 0  0.05 0.225 0  0.075 0.225 0  0.1 0.225 0  0.125 0.225 0  0.15 0.225 0  0.175 0.225 0  0.2 0.225 0  0.225 0.225 0  0.25 0.225 0  0.275 0.225 0  0.3 0.225 0  0.325 0.225 0  0.35 0.225 0  0.375 0.225 0  0.4 0.225 0  0.425 0.225 0  0.45 0.225 0  0.475 0.225 0  0.5 0.225 0  0.525 0.225 0  0.55 0.225 0  0.575 0.225 0  0.6 0.225 0  0.625 0.225 0  0.65 0.225 0  0.675 0.225 0  0.7 0.225 0  0.725 0.225 0  0.75 0.225 0  0.775 0.225 0  0.8 0.225 0  0.825 0.225 0  0.85 0.225 0  0.875 0.225 0  0.9 0.225 0  0.925 0.225 0  0.95 0.225 0  0.975 0.225 0  1 0.225 0  0 0.25 0  0.025 0.25 0  0.05 0.25 0  0.075 0.25 0  0.1 0.25 0  0.125 0.25 0  0.15 0.25 0  0.175 0.25 0  0.2 0.25 0  0.225 0.25 0  0.25 0.25 0  0.275 0.25 0  0.3 0.25 0  0.325 0.25 0  0.35 0.25 0  0.375 0.25 0  0.4 0.25 0  0.425 0.25 0  0.45 0.25 0  0.475 0.25 0  0.5 0.25 0  0.525 0.25 0  0.55 0.25 0  0.575 0.25 0  0.6 0.25 0  0.625 0.25 0  0.65 0.25 0  0.675 0.25 0  0.7 0.25 0  0.725 0.25 0  0.75 0.25 0  0.775 0.25 0  0.8 0.25 0  0.825 0.25 0  0.85 0.25 0  0.875 0.25 0  0.9 0.25 0  0.925 0.25 0  0.95 0.25 0  0.975 0.25 0  1 0.25 0  0 0.275 0  0.025 0.275 0  0.05 0.275 0  0.075 0.275 0  0.1 0.275 0  0.125 0.275 0  0.15 0.275 0  0.175 0.275 0  0.2 0.275 0  0.225 0.275 0  0.25 0.275 0  0.275 0.275 0  0.3 0.275 0  0.325 0.275 0  0.35 0.275 0  0.375 0.275 0  0.4 0.275 0  0.425 0.275 0  0.45 0.275 0  0.475 0.275 0  0.5 0.275 0  0.525 0.275 0  0.55 0.275 0  0.575 0.275 0  0.6 0.275 0  0.625 0.275 0  0.65 0.275 0  0.675 0.275 0  0.7 0.275 0  0.725 0.275 0  0.75 0.275 0  0.775 0.275 0  0.8 0.275 0  0.825 0.275 0  0.85 0.275 0  0.875 0.275 0  0.9 0.275 0  0.925 0.275 0  0.95 0.275 0  0.975 0.275 0  1 0.275 0  0 0.3 0  0.025 0.3 0  0.05 0.3 0  0.075 0.3 0  0.1 0.3 0  0.125 0.3 0  0.15 0.3 0  0.175 0.3 0  0.2 0.3 0  0.225 0.3 0  0.25 0.3 0  0.275 0.3 0  0.3 0.3 0  0.325 0.3 0  0.35 0.3 0  0.375 0.3 0  0.4 0.3 0  0.425 0.3 0  0.45 0.3 0  0.475 0.3 0  0.5 0.3 0  0.525 0.3 0  0.55 0.3 0  0.575 0.3 0  0.6 0.3 0  0.625 0.3 0  0.65 0.3 0  0.675 0.3 0  0.7 0.3 0  0.725 0.3 0  0.75 0.3 0  0.775 0.3 0  0.8 0.3 0  0.825 0.3 0  0.85 0.3 0  0.875 0.3 0  0.9 0.3 0  0.925 0.3 0  0.95 0.3 0  0.975 0.3 0  1 0.3 0  0 0.325 0  0.025 0.325 0  0.05 0.325 0  0.075 0.325 0  0.1 0.325 0  0.125 0.325 0  0.15 0.325 0  0.175 0.325 0  0.2 0.325 0  0.225 0.325 0  0.25 0.325 0  0.275 0.325 0  0.3 0.325 0  0.325 0.325 0  0.35 0.325 0  0.375 0.325 0  0.4 0.325 0  0.425 0.325 0  0.45 0.325 0  0.475 0.325 0  0.5 0.325 0  0.525 0.325 0  0.55 0.325 0  0.575 0.325 0  0.6 0.325 0  0.625 0.325 0  0.65 0.325 0  0.675 0.325 0  0.7 0.325 0  0.725 0.325 0  0.75 0.325 0  0.775 0.325 0  0.8 0.325 0  0.825 0.325 0  0.85 0.325 0  0.875 0.325 0  0.9 0.325 0  0.925 0.325 0  0.95 0.325 0  0.975 0.325 0  1 0.325 0  0 0.35 0  0.025 0.35 0  0.05 0.35 0  0.075 0.35 0  0.1 0.35 0  0.125 0.35 0  0.15 0.35 0  0.175 0.35 0  0.2 0.35 0  0.225 0.35 0  0.25 0.35 0  0.275 0.35 0  0.3 0.35 0  0.325 0.35 0  0.35 0.35 0  0.375 0.35 0  0.4 0.35 0  0.425 0.35 0  0.45 0.35 0  0.475 0.35 0  0.5 0.35 0  0.525 0.35 0  0.55 0.35 0  0.575 0.35 0  0.6 0.35 0  0.625 0.35 0  0.65 0.35 0  0.675 0.35 0  0.7 0.35 0  0.725 0.35 0  0.75 0.35 0  0.775 0.35 0  0.8 0.35 0  0.825 0.35 0  0.85 0.35 0  0.875 0.35 0  0.9 0.35 0  0.925 0.35 0  0.95 0.35 0  0.975 0.35 0  1 0.35 0  0 0.375 0  0.025 0.375 0  0.05 0.375 0  0.075 0.375 0  0.1 0.375 0  0.125 0.375 0  0.15 0.375 0  0.175 0.375 0  0.2 0.375 0  0.225 0.375 0  0.25 0.375 0  0.275 0.375 0  0.3 0.375 0  0.325 0.375 0  0.35 0.375 0  0.375 0.375 0  0.4 0.375 0  0.425 0.375 0  0.45 0.375 0  0.475 0.375 0  0.5 0.375 0  0.525 0.375 0  0.55 0.375 0  0.575 0.375 0  0.6 0.375 0  0.625 0.375 0  0.65 0.375 0  0.675 0.375 0  0.7 0.375 0  0.725 0.375 0  0.75 0.375 0  0.775 0.375 0  0.8 0.375 0  0.825 0.375 0  0.85 0.375 0  0.875 0.375 0  0.9 0.375 0  0.925 0.375 0  0.95 0.375 0  0.975 0.375 0  1 0.375 0  0 0.4 0  0.025 0.4 0  0.05 0.4 0  0.075 0.4 0  0.1 0.4 0  0.125 0.4 0  0.15 0.4 0  0.175 0.4 0  0.2 0.4 0  0.225 0.4 0  0.25 0.4 0  0.275 0.4 0  0.3 0.4 0  0.325 0.4 0  0.35 0.4 0  0.375 0.4 0  0.4 0.4 0  0.425 0.4 0  0.45 0.4 0  0.475 0.4 0  0.5 0.4 0  0.525 0.4 0  0.55 0.4 0  0.575 0.4 0  0.6 0.4 0  0.625 0.4 0  0.65 0.4 0  0.675 0.4 0  0.7 0.4 0  0.725 0.4 0  0.75 0.4 0  0.775 0.4 0  0.8 0.4 0  0.825 0.4 0  0.85 0.4 0  0.875 0.4 0  0.9 0.4 0  0.925 0.4 0  0.95 0.4 0  0.975 0.4 0  1 0.4 0  0 0.425 0  0.025 0.425 0  0.05 0.425 0  0.075 0.425 0  0.1 0.425 0  0.125 0.425 0  0.15 0.425 0  0.175 0.425 0  0.2 0.425 0  0.225 0.425 0  0.25 0.425 0  0.275 0.425 0  0.3 0.425 0  0.325 0.425 0  0.35 0.425 0  0.375 0.425 0  0.4 0.425 0  0.425 0.425 0  0.45 0.425 0  0.475 0.425 0  0.5 0.425 0  0.525 0.425 0  0.55 0.425 0  0.575 0.425 0  0.6 0.425 0  0.625 0.425 0  0.65 0.425 0  0.675 0.425 0  0.7 0.425 0  0.725 0.425 0  0.75 0.425 0  0.775 0.425 0  0.8 0.425 0  0.825 0.425 0  0.85 0.425 0  0.875 0.425 0  0.9 0.425 0  0.925 0.425 0  0.95 0.425 0  0.975 0.425 0  1 0.425 0  0 0.45 0  0.02
[...]
<PointData  Scalars="ControlVisualisation"> 
<DataArray  type="Float64"  Name="ControlVisualisation"  format="ascii">7.8983913843684819e-02  5.8525599765696990e-02  5.8552987040205548e-02  5.8661081686452010e-02  5.8853663198212891e-02  5.9107428019569488e-02  5.9386268874193252e-02  5.9653554741825904e-02  5.9882814214143848e-02  6.0062063065311908e-02  6.0191973961933348e-02  6.0280926945161281e-02  6.0340073829420887e-02  6.0380014492358206e-02  6.0409241674329581e-02  6.0433819708969397e-02  6.0457663903343367e-02  6.0482948919612409e-02  6.0510388434049184e-02  6.0539310362637044e-02  6.0567577229771130e-02  6.0591468801513976e-02  6.0605663258005427e-02  6.0603437515689695e-02  6.0577169787825860e-02  6.0519176358003274e-02  6.0422850969929415e-02  6.0283997177747115e-02  6.0102155842610527e-02  5.9881664385351988e-02  5.9632186117269365e-02  5.9368554909057861e-02  5.9109964524064085e-02  5.8878364375471809e-02  5.8695516805273337e-02  5.8577710117599324e-02  5.8526349754668028e-02  5.8521064673576442e-02  5.8528329658652664e-02  5.8532014004700053e-02  1.7096461060055590e-01  5.8524459548271929e-02  3.8089899407232175e-02  3.8323397220523636e-02  3.8852996864282112e-02  3.9691432989762514e-02  4.0751569999881603e-02  4.1907840626376869e-02  4.3041037363016961e-02  4.4062350725796451e-02  4.4921943449296467e-02  4.5605571884257200e-02  4.6124678670811013e-02  4.6505302645201120e-02  4.6778909108886220e-02  4.6976085839289944e-02  4.7122903573043412e-02  4.7239283638860985e-02  4.7338545087555771e-02  4.7427364998505299e-02  4.7505686502679424e-02  4.7566524264652903e-02  4.7595956716753235e-02  4.7573730544243777e-02  4.7474825472202060e-02  4.7272122327285976e-02  4.6940100584478971e-02  4.6459322854019165e-02  4.5821282568716107e-02  4.5032850492069627e-02  4.4119035457354065e-02  4.3122414322093704e-02  4.2098197336529974e-02  4.1105826737168200e-02  4.0200288888995850e-02  3.9427322010497347e-02  3.8822117234563490e-02  3.8404838165061461e-02  3.8170165442854696e-02  3.8072404276378286e-02  3.8044434548266996e-02  5.8532067462270590e-02  5.8540732507539300e-02  3.8316902629887163e-02  3.9078984621005140e-02  4.0347334847639783e-02  4.2171814893828714e-02  4.4442517784675624e-02  4.7024694332601105e-02  4.9809718862592799e-02  5.2666300273080419e-02  5.5433882095495865e-02  5.7990349330273680e-02  6.0312777368877107e-02  6.2463947023131836e-02  6.4522480313414773e-02  6.6517236324120863e-02  6.8404721156754195e-02  7.0087478450469948e-02  7.1449408237239137e-02  7.2385387074570262e-02  7.2815009349655957e-02  7.2682144170822693e-02  7.1948369903403891e-02  7.0589115331684382e-02  6.8598247568705389e-02  6.6001862922554694e-02  6.2876881252790007e-02  5.9366124361546022e-02  5.5679883446698428e-02  5.2075280065707108e-02  4.8810132501421521e-02  4.6079282895832172e-02  4.3957610900399041e-02  4.2383918612749025e-02  4.1205633725326221e-02  4.0262819433871694e-02  3.9461107706373913e-02  3.8802703828583855e-02  3.8352097533523616e-02  3.8132349946784473e-02  3.8052387968874349e-02  5.8526800648582816e-02  5.8614184071931044e-02  3.8859344264457085e-02  4.0486810798514170e-02  4.2526948719025584e-02  4.5139847570502011e-02  4.8374459358311347e-02  5.2223412281467804e-02  5.6663078139158676e-02  6.1988772200686978e-02  6.9346458186518883e-02  8.0598030838633067e-02  9.7250360166770272e-02  1.1934077980859087e-01  1.4523423664937363e-01  1.7232401038168402e-01  1.9795564146797115e-01  2.2002738607654068e-01  2.3716121676992052e-01  2.4859934638035847e-01  2.5400832846287408e-01  2.5330436937345779e-01  2.4654904435780292e-01  2.3392905102144348e-01  2.1581678462065754e-01  1.9289468379602376e-01  1.6630494653060920e-01  1.3775624037949605e-01  1.0949263228257600e-01  8.4032908201369050e-02  6.3651340306473042e-02  4.9709199870940635e-02  4.2126792345515224e-02  3.9377027884764992e-02  3.9182416528221575e-02  3.9569538623733136e-02  3.9558177077618120e-02  3.9083320220395998e-02  3.8479065902923881e-02  3.8108462114239516e-02  3.8012734368969771e-02  5.8494016493704101e-02  5.8746116794863648e-02  3.9836086056429236e-02  4.3160683788965072e-02  4.6754032487295177e-02  5.1112003728286365e-02  5.6723589808264960e-02  6.4699307137876860e-02  7.8581449829082745e-02  1.0456815505374895e-01  1.4776020554272862e-01  2.0754741499855944e-01  2.7728047667317751e-01  3.4816837088696784e-01  4.1320705059904195e-01  4.6861276620560027e-01  5.1328284911916189e-01  5.4766467226565618e-01  5.7282253425031215e-01  5.8987210706831350e-01  5.9969396571945199e-01  6.0280494325214584e-01  5.9930434745443018e-01  5.8885554729814260e-01  5.7069944935871131e-01  5.4372958989032016e-01  5.0669164910338660e-01  4.5859105628178609e-01  3.9936490066538832e-01  3.3074685164303730e-01  2.5700949585051541e-01  1.8500886264690480e-01  1.2293540964047406e-01  7.7662889814561070e-02  5.1647582765928263e-02  4.1395256394674590e-02  3.9508796284279932e-02  3.9394394947565706e-02  3.8583841177378411e-02  3.7994791044129672e-02  3.7919216825199234e-02  5.8393340424729143e-02  5.9052170683266528e-02  4.2083291299415258e-02  4.9599736595881613e-02  5.9878141174789998e-02  8.1493820248222854e-02  1.2781874106101379e-01  2.0632657515123237e-01  3.0843235891424836e-01  4.1565340318228805e-01  5.1288524679644132e-01  5.9343867717412235e-01  6.5680529368487939e-01  7.0526584582109897e-01  7.4178725540221513e-01  7.6911493418127130e-01  7.8950133677568579e-01  8.0469635867098976e-01  8.1602146612468029e-01  8.2445599566042604e-01  8.3071085636251951e-01  8.3528284485465731e-01  8.3848807856141006e-01  8.4047309050695640e-01  8.4120111478039816e-01  8.4041246911849932e-01  8.3756452531191417e-01  8.3176895580980914e-01  8.2175630595258931e-01  8.0589599978794502e-01  7.8226216779778057e-01  7.4864433221103677e-01  7.0225488869625496e-01  6.3869637598539220e-01  5.4982114994872089e-01  4.2200339083955252e-01  2.4746163469455135e-01  7.4357380285976049e-02  1.6000030269968213e-02  3.4711545117091278e-02  3.8075826205671674e-02  5.8352399184044043e-02  6.2638888710837809e-02  5.0584446367283306e-02  1.2184719263973406e-01  4.1253946103368133e-01  6.4594990630076965e-01  7.7176380462178384e-01  8.3704114715965383e-01  8.7095288103359580e-01  8.8887848986878082e-01  8.9897484906545000e-01  9.0535611470332511e-01  9.0991738703912795e-01  9.1345095702392687e-01  9.1627888748804465e-01  9.1856834057410297e-01  9.2046276399079130e-01  9.2212062073339474e-01  9.2371588247145997e-01  9.2542757766672612e-01  9.2742906667139213e-01  9.2987842368453266e-01  9.3290623505124137e-01  9.3659426006208868e-01  9.4093742677047010e-01  9.4578425011234668e-01  9.5076092313373295e-01  9.5520753121141577e-01  9.5819315110915859e-01  9.5871479145249405e-01  9.5616787270960024e-01  9.5100050926371849e-01  9.4507646411978574e-01  9.4098677703102285e-01  9.4021095456414416e-01  9.4167814472185163e-01  9.4241444755963999e-01  9.3857077949199164e-01  9.1889813146754740e-01  7.2339553649325350e-01  3.4182340695396718e-02  5.9318457836617988e-02  6.7161466827785554e-01  8.5238144301602192e-01  9.3399615635876543e-01  9.4260071258914846e-01  9.4803270624620573e-01  9.5617080446981395e-01  9.6468625491922988e-01  9.7001803899217065e-01  9.7148452699079668e-01  9.7049625105919768e-01  9.6864318119408810e-01  9.6684983997501206e-01  9.6540449738437895e-01  9.6425330725961034e-01  9.6325297301104973e-01  9.6230856714108037e-01  9.6141480993769290e-01  9.6064128671199600e-01  9.6009610628695508e-01  9.5988762367485836e-01  9.6009092010047969e-01  9.6071918776673537e-01  9.6169954744727115e-01  9.6285589475600919e-01  9.6390731200211488e-01  9.6450153743597611e-01  9.6431927573420873e-01  9.6328794740863477e-01  9.6187307509543818e-01  9.6120336554701213e-01  9.6254963866929477e-01  9.6599219927404711e-01  9.6953483920822459e-01  9.7090850185047151e-01  9.7089828528815236e-01  9.7246635618224075e-01  9.7654752603185913e-01  9.8152319994611892e-01  9.8580607886531679e-01  9.7845763521629181e-01  9.1488585796545219e-01  9.6527441855503948e-01  9.7341500516165980e-01  9.6921358580185746e-01  9.6810863364404098e-01  9.6804114097219152e-01  9.6646277203898667e-01  9.6633180634654592e-01  9.6757117794702319e-01  9.6837839886911126e-01  9.6828369728133079e-01  9.6790027497527709e-01  9.6784174727866323e-01  9.6828043228139693e-01  9.6901135781048175e-01  9.6967915036714081e-01  9.6998201360935521e-01  9.6977869694134478e-01  9.6909818101573053e-01  9.6809020153124292e-01  9.6695675652681090e-01  9.6589011665887248e-01  9.6503056309751045e-01  9.6445115624820310e-01  9.6417150367900184e-01  9.6419408234604687e-01  9.6454918629369435e-01  9.6533102590287256e-01  9.6669571603774485e-01  9.6875848955456478e-01  9.7133321321565613e-01  9.7369202755735684e-01  9.7498115106097383e-01  9.7559239589068614e-01  9.7756647167183441e-01  9.8189097812840320e-01  9.8660499787920564e-01  9.8967140828379407e-01  9.9114040189265074e-01  9.9250955409276698e-01  9.9330747331437919e-01  9.8633889308272182e-01  9.7936489086359668e-01  9.8642450330790843e-01  9.8130234159551555e-01  9.7550623050727869e-01  9.7369099974875772e-01  9.7292375870810510e-01  9.7138271709590418e-01  9.7003226356998973e-01  9.6868954755749981e-01  9.6715950156940633e-01  9.6592908490083662e-01  9.6554879829443641e-01  9.6616006835479484e-01  9.6745034076595238e-01  9.6885131887222198e-01  9.6980606141155645e-01  9.6996846548521498e-01  9.6927636283805929e-01  9.6791826869610509e-01  9.6624387448316140e-01  9.6466070244117119e-01  9.6354398494306603e-01  9.6317421919413926e-01  9.6370312282617077e-01  9.6513688844808398e-01  9.6732758109158967e-01  9.6997812306615971e-01  9.7267397010348122e-01  9.7495644796560266e-01  9.7648458243205993e-01  9.7734867344744514e-01  9.7835750524297305e-01  9.8062371382526303e-01  9.8420036767427066e-01  9.8757899715897968e-01  9.8972079385967870e-01  9.9145568031708042e-01  9.9336390913768624e-01  9.9547510675834039e-01  9.9708869573084780e-01  9.9316769204696809e-01  9.8216177249141823e-01  9.8880245425789171e-01  9.8456152765290794e-01  9.7818146475893208e-01  9.7514142242504365e-01  9.7427438885782158e-01  9.7256841537696614e-01  9.7077856573477794e-01  9.6922072679828786e-01  9.6773724324298682e-01  9.6669522358563120e-01  9.6658330804421211e-01  9.6749806083136181e-01  9.6905038996090798e-01  9.7056540093520405e-01  9.7138298541355372e-01  9.7110166104349815e-01  9.6969093600927969e-01  9.6747763267654452e-01  9.6504276537757638e-01  9.6306456477375979e-01  9.6214133432663762e-01  9.6263115689084877e-01  9.6454499620346423e-01  9.6752458506993344e-01  9.7093019429611160e-01  9.7404171225682834e-01  9.7632386395559789e-01  9.7765567085448934e-01  9.7842277217146234e-01  9.7938128334062635e-01  9.8121145878269622e-01  9.8389358677536143e-01  9.8653272714903428e-01  9.8844366736848221e-01  9.9027204460231211e-01  9.9245430398803269e-01  9.9443399418544287e-01  9.9636957005396198e-01  9.9767137212452117e-01  9.9530061905728173e-01  9.7570077464327110e-01  9.8659776156814138e-01  9.8175719972139486e-01  9.7484617815178354e-01  9.7300407929438215e-01  9.7188730295616421e-01  9.6962729091733213e-01  9.6893767869482472e-01  9.6974499675511228e-01  9.7081992316976795e-01  9.7190368385293169e-01  9.7329149730208420e-01  9.7506001549062638e-01  9.7685286133465288e-01  9.7805074625758759e-01  9.7805670085457186e-01  9.7654141714413223e-01  9.7358767430273452e-01  9.6971739961790804e-01  9.6579473733905774e-01  9.6281012620597872e-01  9.6158572904762030e-01  9.6248993068710942e-01  9.6527525781666246e-01  9.6913335331943828e-01  9.7298790150757453e-01  9.7593646161082814e-01  9.7764346163206051e-01  9.7845578848008830e-01  9.7913709212967759e-01  9.8036338317962490e-01  9.8229248272757663e-01  9.8444503461348098e-01  9.8614897015978564e-01  9.8762904972393706e-01  9.8970505665147313e-01  9.9206919583985076e-01  9.9389387643985638e-01  9.9565964516690830e-01  9.9705086135750487e-01  9.9439854763711300e-01  9.6039414521842303e-01  9.7346262506557668e-01  9.6786480787159290e-01  9.6683058023406854e-01  9.6546460286073965e-01  9.6224703794708211e-01  9.6414580254466209e-01  9.7119850365932059e-01  9.7836053523853561e-01  9.8273105335345190e-01  9.8470718090239562e-01  9.8576493420463840e-01  9.8684788449975724e-01  9.8800315888715495e-01  9.8865102794745774e-01  9.8801861767355614e-01  9.8553952632810593e-01  9.8114357689593934e-01  9.7538644743593172e-01  9.6937355295025185e-01  9.6446583835105604e-01  9.6183219055811175e-01  9.6200628082460449e-01  9.6465174749009830e-01  9.6868167459761023e-01  9.7271995757479601e-01  9.7570815031768443e-01  9.7734804574718015e-01  9.7810838711395887e-01  9.7877130581277960e-01  9.7985618244535855e-01  9.8134795241895334e-01  9.8281561599820855e-01  9.8395296533880239e-01  9.8529260682552744e-01  9.8747193991988114e-01  9.9000976461320778e-01  9.9189174861169904e-01  9.9292681683818729e-01  9.9357485001110279e-01  9.9018710077092653e-01  1.8791912085051149e-01  8.6245391964216445e-01  9.1283042438773088e-01  9.2663137301832477e-01  9.3575814389752188e-01  9.4744629197492602e-01  9.5794277438889930e-01  9.6243404366920471e-01  9.6069468722294271e-01  9.5659522570611966e-01  9.5427953668952448e-01  9.5591724698583247e-01  9.6148541542460519e-01  9.6946106261020570e-01  9.7765745833828621e-01  9.8394507876983917e-01  9.8680420328175289e-01  9.8568486650424636e-01  9.8113007957815479e-01  9.7461648975618087e-01  9.6811310933638728e-01  9.6345550566098415e-01  9.6174137055650455e-01  9.6299661134529257e-01  9.6627462432229549e-01  9.7015458269559296e-01  9.7340357370947950e-01  9.7547151931339937e-01  9.7655528484524068e-01  9.7722120346230745e-01  9.7790417152613840e-01  9.7866614627174930e-01  9.7930561996770393e-01  9.7977736168771579e-01  9.8060294945806314e-01  9.8238167029073520e-01  9.8500642747607958e-01  9.8789717248399045e-01  9.9022317719827291e-01  9.8546870400141473e-01  9.6600911958005131e-01  6.0227106651858126e-02  4.7532870799338593e-02  6.9876864656220450e-02  1.5115362377490146e-01  2.7082124829298249e-01  3.7860077699155281e-01  4.6057026294790809e-01  5.2390990272681648e-01  5.7800490238151436e-01  6.2989261177134315e-01  6.8321586769085130e-01  7.3855601913788727e-01  7.9412568542421480e-01  8.4674674179155773e-01  8.9291523814226359e-01  9.2975178268684289e-01  9.5566882886123561e-01  9.7067526798193504e-01  9.7631429092094613e-01  9.7527641916922825e-01  9.7076890219702916e-01  9.6577978421257360e-01  9.6243412149565666e-01  9.6164502117610084e-01  9.6317135158227751e-01  9.6603500173605039e-01  9.6910523568686557e-01  9.7159282642043421e-01  9.7324339990246989e-01  9.7419143052478352e-01  9.7465960779730509e-01  9.7475760198118300e-01  9.7448657476860756e-01  9.7390465245522195e-01  9.7322516788134350e-01  9.7264430576760108e-01  9.7214843089966174e-01  9.7057177897844116e-01  9.6053571976940155e-01  6.9397200287807614e-01  7.1369803119809505e-02  6.0049180234813912e-02  4.2809319694133742e-02  4.9333657783276641e-02  5.7436851333657252e-02  6.8722037652113446e-02  8.4219221073029191e-02  1.0507301481013659e-01  1.3371044945706698e-01  1.7395258900025695e-01  2.3042353716192029e-01  3.0652510227536917e-01  4.0182896958395048e-01  5.1046492381095254e-01  6.2217721891666933e-01  7.2572599690670825e-01  8.1244321658511920e-01  8.7803834004429471e-01  9.2245083954005680e-01  9.4863269545864637e-01  9.6111718901238352e-01  9.6479140035832234e-01  9.6399143310626068e-01  9.6194658087136187e-01  9.6057756633067337e-01  9.6061211034478111e-01  9.6192196501903260e-01  9.6394834293656084e-01  9.6607920985568740e-01  9.6787151014787431e-01  9.6909036995870446e-01  9.6964346889947484e-01  9.6952872378196286e-01  9.6884735948469147e-01  9.6780215211550347e-01  9.6639881220385915e-01  9.6382564303075513e-01  9.5854797804040837e-01  9.4662951261064299e-01  8.0414311531898641e-01  2.5577487529038045e-02  5.9295781381860285e-02  5.9862237644001282e-02  4.2141577572997954e-02  4.6345174864909335e-02  5.0469735171187725e-02  5.6252752042080627e-02  6.4077336855075967e-02  7.4291347151381942e-02  8.7479492055651656e-02  1.0524367557689106e-01  1.3151945651764158e-01  1.7322924303581513e-01  2.3851387009834743e-01  3.3168294052932057e-01  4.4776373041696188e-01  5.7234343483231664e-01  6.8824033499853010e-01  7.8319217823825538e-01  8.5282010579769651e-01  8.9900553932228244e-01  9.2679515445617355e-01  9.4191466302276539e-01  9.4935732408085660e-01  9.5281736616547907e-01  9.5465270318933138e-01  9.5612690339295003e-01  9.5774467540645625e-01  9.5955870321902825e-01  9.6139026388777049e-01  9.6295691881635315e-01  9.6393801939634915e-01  9.6403235846735624e-01  9.6305240562178940e-01  9.6105312281929522e-01  9.5837535727411738e-01  9.5510263424065800e-01  9.4873971778432664e-01  9.2694410660258342e-01  7.9588972313837203e-01  2.7592604884945859e-02  3.8732610599658601e-02  5.9142986242749829e-02  5.9991562164850978e-02  4.2028334702662248e-02  4.5287882202114396e-02  4.8281206714126924e-02  5.2925416869743482e-02  5.9568061431538574e-02  6.8718962119229982e-02  8.1247207359140372e-02  9.8496322766042782e-02  1.2287093926715148e-01  1.5884189051973879e-01  2.1305435632698769e-01  2.9149095831603467e-01  3.9381300646400064e-01  5.0978558623141657e-01  6.2306242628864539e-01  7.1964035141449445e-01  7.9318304364178627e-01  8.4448465346144119e-01  8.7814196772063102e-01  8.9959506171161729e-01  9.1350815390413298e-01  9.2322611952952616e-01  9.3083376639489424e-01  9.3746711032047636e-01  9.4365599037131209e-01  9.4957467754623259e-01  9.5515989732527273e-01  9.6012516608751641e-01  9.6394550833937331e-01  9.6589303856391440e-01  9.6516121684955725e-01  9.6101874036002466e-01  9.5266342384209957e-01  9.3725133702431107e-01  8.9734672863239406e-01  7.2534344620658098e-01  2.0968248359576330e-01  2.4542122659993726e-03  4.0942286018675861e-02  5.9237263787900188e-02  6.0161384219171984e-02  4.2204945839565244e-02  4.5200351421132080e-02  4.7745762859705873e-02  5.1889158502070772e-02  5.8121488426492660e-02  6.7169787768889405e-02  8.0357768073308300e-02  9.9793807353657685e-02  1.2864177661331991e-01  1.7135711705261630e-01  2.3296390602416450e-01  3.1616058677647629e-01  4.1711489580892519e-01  5.2423747643503316e-01  6.2298699635267518e-01  7.0295128308557331e-01  7.6105306113544791e-01  7.9994632930942444e-01  8.2476891178703493e-01  8.4070993608099598e-01  8.5187952173684522e-01  8.6106887943342025e-01  8.6993962594026675e-01  8.7934702022410405e-01  8.8963018176567599e-01  9.0077673884050879e-01  9.1242290942486381e-01  9.2369938760369830e-01  9.3297063214953568e-01  9.3750748019500141e-01  9.3300698526926074e-01  9.1244860257358207e-01  8.6266167388615633e-01  7.5574860116234299e-01  5.4497142073427107e-01  2.4072658633675098e-01  3.8863025472689772e-02  3.0426161740491481e-02  4.1889733313558886e-02  5.9369135588386843e-02  6.0337950784764852e-02  4.2627949390750146e-02  4.5897746826584727e-02  4.8458678164672579e-02  5.2503971043022131e-02  5.8723542033083304e-02  6.8174477261259095e-02  8.2822484137606678e-02  1.0597833563220732e-01  1.4250395426394805e-01  1.9802125522750097e-01  2.7610930837486858e-01  3.7403938930447250e-01  4.8072286434300271e-01  5.8053666763886425e-01  6.6078214652819234e-01  7.1638091767639367e-01  7.4922083513086812e-01  7.6478268613510847e-01  7.6914718916262170e-01  7.6742129884332411e-01  7.6327423260278060e-01  7.5903276561315836e-01  7.5596200705013405e-01  7.5453470445102244e-01  7.5458418827794649e-01  7.5527689154357902e-01  7.5487554262494261e-01  7.5033008774877896e-01  7.3685950032309733e-01  7.0787924464405705e-01  6.5580597404238983e-01  5.7422218616913701e-01  4.6147394538091824e-01  3.2535942151153063e-01  1.8791247171138331e-01  8.4208906823835916e-02  4.0940682174809728e-02  4.1836824888984034e-02  4.2416592655120849e-02  5.9469715171260484e-02  6.0496957819301672e-02  4.3238234228378573e-02  4.7272821277564762e-02  5.0296348060691186e-02  5.4720924306138223e-02  6.1523492337599246e-02  7.2278994120926837e-02  9.0084708607393441e-02  1.203685778