<?xml version="1.0"?>
<VTKFile type="UnstructuredGrid"  version="0.1"  >
<UnstructuredGrid>
<Piece  NumberOfPoints="1681" NumberOfCells="3200">
<Points>
<DataArray  type="Float64"  NumberOfComponents="3"  format="ascii">0 0 0  0.025 0 0  0.05 0 0  0.075 0 0  0.1 0 0  0.125 0 0  0.15 0 0  0.175 0 0  0.2 0 0  0.225 0 0  0.25 0 0  0.275 0 0  0.3 0 0  0.325 0 0  0.35 0 0  0.375 0 0  0.4 0 0  0.425 0 0  0.45 0 0  0.475 0 0  0.5 0 0  0.525 0 0  0.55 0 0  0.575 0 0  0.6 0 0  0.625 0 0  0.65 0 0  0.675 0 0  0.7 0 0  0.725 0 0  0.75 0 0  0.775 0 0  0.8 0 0  0.825 0 0  0.85 0 0  0.875 0 0  0.9 0 0  0.925 0 0  0.95 0 0  0.975 0 0  1 0 0  0 0.025 0  0.025 0.025 0  0.05 0.025 0  0.075 0.025 0  0.1 0.025 0  0.125 0.025 0  0.15 0.025 0  0.175 0.025 0  0.2 0.025 0  0.225 0.025 0  0.25 0.025 0  0.275 0.025 0  0.3 0.025 0  0.325 0.025 0  0.35 0.025 0  0.375 0.025 0  0.4 0.025 0  0.425 0.025 0  0.45 0.025 0  0.475 0.025 0  0.5 0.025 0  0.525 0.025 0  0.55 0.025 0  0.575 0.025 0  0.6 0.025 0  0.625 0.025 0  0.65 0.025 0  0.675 0.025 0  0.7 0.025 0  0.725 0.025 0  0.75 0.025 0  0.775 0.025 0  0.8 0.025 0  0.825 0.025 0  0.85 0.025 0  0.875 0.025 0  0.9 0.025 0  0.925 0.025 0  0.95 0.025 0  0.975 0.025 0  1 0.025 0  0 0.05 0  0.025 0.05 0  0.05 0.05 0  0.075 0.05 0  0.1 0.05 0  0.125 0.05 0  0.15 0.05 0  0.175 0.05 0  0.2 0.05 0  0.225 0.05 0  0.25 0.05 0  0.275 0.05 0  0.3 0.05 0  0.325 0.05 0  0.35 0.05 0  0.375 0.05 0  0.4 0.05 0  0.425 0.05 0  0.45 0.05 0  0.475 0.05 0  0.5 0.05 0  0.525 0.05 0  0.55 0.05 0  0.575 0.05 0  0.6 0.05 0  0.625 0.05 0  0.65 0.05 0  0.675 0.05 0  0.7 0.05 0  0.725 0.05 0  0.75 0.05 0  0.775 0.05 0  0.8 0.05 0  0.825 0.05 0  0.85 0.05 0  0.875 0.05 0  0.9 0.05 0  0.925 0.05 0  0.95 0.05 0  0.975 0.05 0  1 0.05 0  0 0.075 0  0.025 0.075 0  0.05 0.075 0  0.075 0.075 0  0.1 0.075 0  0.125 0.075 0  0.15 0.075 0  0.175 0.075 0  0.2 0.075 0  0.225 0.075 0  0.25 0.075 0  0.275 0.075 0  0.3 0.075 0  0.325 0.075 0  0.35 0.075 0  0.375 0.075 0  0.4 0.075 0  0.425 0.075 0  0.45 0.075 0  0.475 0.075 0  0.5 0.075 0  0.525 0.075 0  0.55 0.075 0  0.575 0.075 0  0.6 0.075 0  0.625 0.075 0  0.65 0.075 0  0.675 0.075 0  0.7 0.075 0  0.725 0.075 0  0.75 0.075 0  0.775 0.075 0  0.8 0.075 0  0.825 0.075 0  0.85 0.075 0  0.875 0.075 0  0.9 0.075 0  0.925 0.075 0  0.95 0.075 0  0.975 0.075 0  1 0.075 0  0 0.1 0  0.025 0.1 0  0.05 0.1 0  0.075 0.1 0  0.1 0.1 0  0.125 0.1 0  0.15 0.1 0  0.175 0.1 0  0.2 0.1 0  0.225 0.1 0  0.25 0.1 0  0.275 0.1 0  0.3 0.1 0  0.325 0.1 0  0.35 0.1 0  0.375 0.1 0  0.4 0.1 0  0.425 0.1 0  0.45 0.1 0  0.475 0.1 0  0.5 0.1 0  0.525 0.1 0  0.55 0.1 0  0.575 0.1 0  0.6 0.1 0  0.625 0.1 0  0.65 0.1 0  0.675 0.1 0  0.7 0.1 0  0.725 0.1 0  0.75 0.1 0  0.775 0.1 0  0.8 0.1 0  0.825 0.1 0  0.85 0.1 0  0.875 0.1 0  0.9 0.1 0  0.925 0.1 0  0.95 0.1 0  0.975 0.1 0  1 0.1 0  0 0.125 0  0.025 0.125 0  0.05 0.125 0  0.075 0.125 0  0.1 0.125 0  0.125 0.125 0  0.15 0.125 0  0.175 0.125 0  0.2 0.125 0  0.225 0.125 0  0.25 0.125 0  0.275 0.125 0  0.3 0.125 0  0.325 0.125 0  0.35 0.125 0  0.375 0.125 0  0.4 0.125 0  0.425 0.125 0  0.45 0.125 0  0.475 0.125 0  0.5 0.125 0  0.525 0.125 0  0.55 0.125 0  0.575 0.125 0  0.6 0.125 0  0.625 0.125 0  0.65 0.125 0  0.675 0.125 0  0.7 0.125 0  0.725 0.125 0  0.75 0.125 0  0.775 0.125 0  0.8 0.125 0  0.825 0.125 0  0.85 0.125 0  0.875 0.125 0  0.9 0.125 0  0.925 0.125 0  0.95 0.125 0  0.975 0.125 0  1 0.125 0  0 0.15 0  0.025 0.15 0  0.05 0.15 0  0.075 0.15 0  0.1 0.15 0  0.125 0.15 0  0.15 0.15 0  0.175 0.15 0  0.2 0.15 0  0.225 0.15 0  0.25 0.15 0  0.275 0.15 0  0.3 0.15 0  0.325 0.15 0  0.35 0.15 0  0.375 0.15 0  0.4 0.15 0  0.425 0.15 0  0.45 0.15 0  0.475 0.15 0  0.5 0.15 0  0.525 0.15 0  0.55 0.15 0  0.575 0.15 0  0.6 0.15 0  0.625 0.15 0  0.65 0.15 0  0.675 0.15 0  0.7 0.15 0  0.725 0.15 0  0.75 0.15 0  0.775 0.15 0  0.8 0.15 0  0.825 0.15 0  0.85 0.15 0  0.875 0.15 0  0.9 0.15 0  0.925 0.15 0  0.95 0.15 0  0.975 0.15 0  1 0.15 0  0 0.175 0  0.025 0.175 0  0.05 0.175 0  0.075 0.175 0  0.1 0.175 0  0.125 0.175 0  0.15 0.175 0  0.175 0.175 0  0.2 0.175 0  0.225 0.175 0  0.25 0.175 0  0.275 0.175 0  0.3 0.175 0  0.325 0.175 0  0.35 0.175 0  0.375 0.175 0  0.4 0.175 0  0.425 0.175 0  0.45 0.175 0  0.475 0.175 0  0.5 0.175 0  0.525 0.175 0  0.55 0.175 0  0.575 0.175 0  0.6 0.175 0  0.625 0.175 0  0.65 0.175 0  0.675 0.175 0  0.7 0.175 0  0.725 0.175 0  0.75 0.175 0  0.775 0.175 0  0.8 0.175 0  0.825 0.175 0  0.85 0.175 0  0.875 0.175 0  0.9 0.175 0  0.925 0.175 0  0.95 0.175 0  0.975 0.175 0  1 0.175 0  0 0.2 0  0.025 0.2 0  0.05 0.2 0  0.075 0.2 0  0.1 0.2 0  0.125 0.2 0  0.15 0.2 0  0.175 0.2 0  0.2 0.2 0  0.225 0.2 0  0.25 0.2 0  0.275 0.2 0  0.3 0.2 0  0.325 0.2 0  0.35 0.2 0  0.375 0.2 0  0.4 0.2 0  0.425 0.2 0  0.45 0.2 0  0.475 0.2 0  0.5 0.2 0  0.525 0.2 0  0.55 0.2 0  0.575 0.2 0  0.6 0.2 0  0.625 0.2 0  0.65 0.2 0  0.675 0.2 0  0.7 0.2 0  0.725 0.2 0  0.75 0.2 0  0.775 0.2 0  0.8 0.2 0  0.825 0.2 0  0.85 0.2 0  0.875 0.2 0  0.9 0.2 0  0.925 0.2 0  0.95 0.2 0  0.975 0.2 0  1 0.2 0  0 0.225 0  0.025 0.225 0  0.05 0.225 0  0.075 0.225 0  0.1 0.225 0  0.125 0.225 0  0.15 0.225 0  0.175 0.225 0  0.2 0.225 0  0.225 0.225 0  0.25 0.225 0  0.275 0.225 0  0.3 0.225 0  0.325 0.225 0  0.35 0.225 0  0.375 0.225 0  0.4 0.225 0  0.425 0.225 0  0.45 0.225 0  0.475 0.225 0  0.5 0.225 0  0.525 0.225 0  0.55 0.225 0  0.575 0.225 0  0.6 0.225 0  0.625 0.225 0  0.65 0.225 0  0.675 0.225 0  0.7 0.225 0  0.725 0.225 0  0.75 0.225 0  0.775 0.225 0  0.8 0.225 0  0.825 0.225 0  0.85 0.225 0  0.875 0.225 0  0.9 0.225 0  0.925 0.225 0  0.95 0.225 0  0.975 0.225 0  1 0.225 0  0 0.25 0  0.025 0.25 0  0.05 0.25 0  0.075 0.25 0  0.1 0.25 0  0.125 0.25 0  0.15 0.25 0  0.175 0.25 0  0.2 0.25 0  0.225 0.25 0  0.25 0.25 0  0.275 0.25 0  0.3 0.25 0  0.325 0.25 0  0.35 0.25 0  0.375 0.25 0  0.4 0.25 0  0.425 0.25 0  0.45 0.25 0  0.475 0.25 0  0.5 0.25 0  0.525 0.25 0  0.55 0.25 0  0.575 0.25 0  0.6 0.25 0  0.625 0.25 0  0.65 0.25 0  0.675 0.25 0  0.7 0.25 0  0.725 0.25 0  0.75 0.25 0  0.775 0.25 0  0.8 0.25 0  0.825 0.25 0  0.85 0.25 0  0.875 0.25 0  0.9 0.25 0  0.925 0.25 0  0.95 0.25 0  0.975 0.25 0  1 0.25 0  0 0.275 0  0.025 0.275 0  0.05 0.275 0  0.075 0.275 0  0.1 0.275 0  0.125 0.275 0  0.15 0.275 0  0.175 0.275 0  0.2 0.275 0  0.225 0.275 0  0.25 0.275 0  0.275 0.275 0  0.3 0.275 0  0.325 0.275 0  0.35 0.275 0  0.375 0.275 0  0.4 0.275 0  0.425 0.275 0  0.45 0.275 0  0.475 0.275 0  0.5 0.275 0  0.525 0.275 0  0.55 0.275 0  0.575 0.275 0  0.6 0.275 0  0.625 0.275 0  0.65 0.275 0  0.675 0.275 0  0.7 0.275 0  0.725 0.275 0  0.75 0.275 0  0.775 0.275 0  0.8 0.275 0  0.825 0.275 0  0.85 0.275 0  0.875 0.275 0  0.9 0.275 0  0.925 0.275 0  0.95 0.275 0  0.975 0.275 0  1 0.275 0  0 0.3 0  0.025 0.3 0  0.05 0.3 0  0.075 0.3 0  0.1 0.3 0  0.125 0.3 0  0.15 0.3 0  0.175 0.3 0  0.2 0.3 0  0.225 0.3 0  0.25 0.3 0  0.275 0.3 0  0.3 0.3 0  0.325 0.3 0  0.35 0.3 0  0.375 0.3 0  0.4 0.3 0  0.425 0.3 0  0.45 0.3 0  0.475 0.3 0  0.5 0.3 0  0.525 0.3 0  0.55 0.3 0  0.575 0.3 0  0.6 0.3 0  0.625 0.3 0  0.65 0.3 0  0.675 0.3 0  0.7 0.3 0  0.725 0.3 0  0.75 0.3 0  0.775 0.3 0  0.8 0.3 0  0.825 0.3 0  0.85 0.3 0  0.875 0.3 0  0.9 0.3 0  0.925 0.3 0  0.95 0.3 0  0.975 0.3 0  1 0.3 0  0 0.325 0  0.025 0.325 0  0.05 0.325 0  0.075 0.325 0  0.1 0.325 0  0.125 0.325 0  0.15 0.325 0  0.175 0.325 0  0.2 0.325 0  0.225 0.325 0  0.25 0.325 0  0.275 0.325 0  0.3 0.325 0  0.325 0.325 0  0.35 0.325 0  0.375 0.325 0  0.4 0.325 0  0.425 0.325 0  0.45 0.325 0  0.475 0.325 0  0.5 0.325 0  0.525 0.325 0  0.55 0.325 0  0.575 0.325 0  0.6 0.325 0  0.625 0.325 0  0.65 0.325 0  0.675 0.325 0  0.7 0.325 0  0.725 0.325 0  0.75 0.325 0  0.775 0.325 0  0.8 0.325 0  0.825 0.325 0  0.85 0.325 0  0.875 0.325 0  0.9 0.325 0  0.925 0.325 0  0.95 0.325 0  0.975 0.325 0  1 0.325 0  0 0.35 0  0.025 0.35 0  0.05 0.35 0  0.075 0.35 0  0.1 0.35 0  0.125 0.35 0  0.15 0.35 0  0.175 0.35 0  0.2 0.35 0  0.225 0.35 0  0.25 0.35 0  0.275 0.35 0  0.3 0.35 0  0.325 0.35 0  0.35 0.35 0  0.375 0.35 0  0.4 0.35 0  0.425 0.35 0  0.45 0.35 0  0.475 0.35 0  0.5 0.35 0  0.525 0.35 0  0.55 0.35 0  0.575 0.35 0  0.6 0.35 0  0.625 0.35 0  0.65 0.35 0  0.675 0.35 0  0.7 0.35 0  0.725 0.35 0  0.75 0.35 0  0.775 0.35 0  0.8 0.35 0  0.825 0.35 0  0.85 0.35 0  0.875 0.35 0  0.9 0.35 0  0.925 0.35 0  0.95 0.35 0  0.975 0.35 0  1 0.35 0  0 0.375 0  0.025 0.375 0  0.05 0.375 0  0.075 0.375 0  0.1 0.375 0  0.125 0.375 0  0.15 0.375 0  0.175 0.375 0  0.2 0.375 0  0.225 0.375 0  0.25 0.375 0  0.275 0.375 0  0.3 0.375 0  0.325 0.375 0  0.35 0.375 0  0.375 0.375 0  0.4 0.375 0  0.425 0.375 0  0.45 0.375 0  0.475 0.375 0  0.5 0.375 0  0.525 0.375 0  0.55 0.375 0  0.575 0.375 0  0.6 0.375 0  0.625 0.375 0  0.65 0.375 0  0.675 0.375 0  0.7 0.375 0  0.725 0.375 0  0.75 0.375 0  0.775 0.375 0  0.8 0.375 0  0.825 0.375 0  0.85 0.375 0  0.875 0.375 0  0.9 0.375 0  0.925 0.375 0  0.95 0.375 0  0.975 0.375 0  1 0.375 0  0 0.4 0  0.025 0.4 0  0.05 0.4 0  0.075 0.4 0  0.1 0.4 0  0.125 0.4 0  0.15 0.4 0  0.175 0.4 0  0.2 0.4 0  0.225 0.4 0  0.25 0.4 0  0.275 0.4 0  0.3 0.4 0  0.325 0.4 0  0.35 0.4 0  0.375 0.4 0  0.4 0.4 0  0.425 0.4 0  0.45 0.4 0  0.475 0.4 0  0.5 0.4 0  0.525 0.4 0  0.55 0.4 0  0.575 0.4 0  0.6 0.4 0  0.625 0.4 0  0.65 0.4 0  0.675 0.4 0  0.7 0.4 0  0.725 0.4 0  0.75 0.4 0  0.775 0.4 0  0.8 0.4 0  0.825 0.4 0  0.85 0.4 0  0.875 0.4 0  0.9 0.4 0  0.925 0.4 0  0.95 0.4 0  0.975 0.4 0  1 0.4 0  0 0.425 0  0.025 0.425 0  0.05 0.425 0  0.075 0.425 0  0.1 0.425 0  0.125 0.425 0  0.15 0.425 0  0.175 0.425 0  0.2 0.425 0  0.225 0.425 0  0.25 0.425 0  0.275 0.425 0  0.3 0.425 0  0.325 0.425 0  0.35 0.425 0  0.375 0.425 0  0.4 0.425 0  0.425 0.425 0  0.45 0.425 0  0.475 0.425 0  0.5 0.425 0  0.525 0.425 0  0.55 0.425 0  0.575 0.425 0  0.6 0.425 0  0.625 0.425 0  0.65 0.425 0  0.675 0.425 0  0.7 0.425 0  0.725 0.425 0  0.75 0.425 0  0.775 0.425 0  0.8 0.425 0  0.825 0.425 0  0.85 0.425 0  0.875 0.425 0  0.9 0.425 0  0.925 0.425 0  0.95 0.425 0  0.975 0.425 0  1 0.425 0  0 0.45 0  0.02
[...]
<PointData  Scalars="ControlVisualisation"> 
<DataArray  type="Float64"  Name="ControlVisualisation"  format="ascii">4.7884870254428467e-02  3.2564212063889132e-02  3.2569925413839282e-02  3.2579698463010780e-02  3.2593460873074659e-02  3.2611173477252418e-02  3.2632775041302776e-02  3.2658195736794494e-02  3.2687357940083206e-02  3.2720177543631372e-02  3.2756565315274197e-02  3.2796427240978476e-02  3.2839663680819121e-02  3.2886166877349299e-02  3.2935816304325814e-02  3.2988471282478907e-02  3.3043960208789989e-02  3.3102065653582091e-02  3.3162504474966353e-02  3.3224901986240445e-02  3.3288759103519618e-02  3.3353411324725489e-02  3.3417978402214971e-02  3.3481303768142699e-02  3.3541883308472249e-02  3.3597784303970951e-02  3.3646557987460503e-02  3.3685153910364550e-02  3.3709853827768879e-02  3.3716261514780896e-02  3.3699414064648603e-02  3.3654123021346988e-02  3.3575717366494645e-02  3.3461396455617090e-02  3.3312317034238620e-02  3.3136147679930360e-02  3.2949029545689831e-02  3.2775081844668284e-02  3.2643342742546440e-02  3.2574166843972296e-02  8.9191818179225182e-02  3.2564214127276794e-02  1.6587052166957470e-02  1.6593974442799107e-02  1.6606274791988389e-02  1.6624126998524506e-02  1.6647499746788405e-02  1.6676348604432217e-02  1.6710628408645404e-02  1.6750289776634921e-02  1.6795281734659714e-02  1.6845553036677629e-02  1.6901052294348025e-02  1.6961726488720907e-02  1.7027517100148125e-02  1.7098353024802539e-02  1.7174139281685898e-02  1.7254740328507413e-02  1.7339956593122770e-02  1.7429492592910687e-02  1.7522914775881325e-02  1.7619597015101140e-02  1.7718651598780433e-02  1.7818843723451577e-02  1.7918488141830329e-02  1.8015328099751701e-02  1.8106399702699304e-02  1.8187890197463075e-02  1.8255007847393860e-02  1.8301898157458626e-02  1.8321666673086885e-02  1.8306606839762641e-02  1.8248791220480346e-02  1.8141250614658662e-02  1.7979943225304211e-02  1.7766600365668118e-02  1.7511988176286169e-02  1.7238440901823707e-02  1.6979419272635115e-02  1.6773500860377228e-02  1.6643161812242107e-02  3.2574385784639781e-02  3.2569949311580221e-02  1.6593993804255826e-02  1.6603302962244808e-02  1.6617992946297212e-02  1.6639375883548645e-02  1.6667458527788635e-02  1.6702209536899302e-02  1.6743593801052857e-02  1.6791575507822853e-02  1.6846121682261326e-02  1.6907203571439343e-02  1.6974797220767866e-02  1.7048882100420916e-02  1.7129436890987511e-02  1.7216431376461436e-02  1.7309813159203626e-02  1.7409487660687683e-02  1.7515289579175732e-02  1.7626943650916084e-02  1.7744012233854779e-02  1.7865826962062039e-02  1.7991401621544605e-02  1.8119323679220801e-02  1.8247622865815757e-02  1.8373617431506270e-02  1.8493742864072002e-02  1.8603374554135275e-02  1.8696668502796287e-02  1.8766462701916346e-02  1.8804303019269282e-02  1.8800711958439256e-02  1.8745875167412735e-02  1.8630942458362922e-02  1.8450130566477950e-02  1.8204012909812342e-02  1.7903524697513766e-02  1.7574245395080710e-02  1.7255701611866910e-02  1.6993836314101320e-02  1.6789680060325694e-02  3.2649473655340294e-02  3.2579811766530742e-02  1.6606382115194347e-02  1.6618091032964768e-02  1.6633011537961238e-02  1.6654601131015304e-02  1.6682947907540165e-02  1.6718029263256159e-02  1.6759808736621452e-02  1.6808251180560056e-02  1.6863325383353518e-02  1.6925006505635998e-02  1.6993277590428214e-02  1.7068129211488609e-02  1.7149556495464305e-02  1.7237552470367089e-02  1.7332096503800198e-02  1.7433136363313631e-02  1.7540562164619484e-02  1.7654170184198379e-02  1.7773614227495686e-02  1.7898342026818233e-02  1.8027514116456388e-02  1.8159902992451991e-02  1.8293771455593581e-02  1.8426731400826703e-02  1.8555588015072719e-02  1.8676181061525500e-02  1.8783246187146076e-02  1.8870322861708349e-02  1.8929766324235982e-02  1.8952966943827896e-02  1.8930800110936449e-02  1.8854445785338524e-02  1.8716979721498207e-02  1.8516141858686216e-02  1.8257146027780415e-02  1.7957602056169884e-02  1.7647364855508531e-02  1.7373393014425902e-02  1.7082094714603993e-02  3.2823089208766427e-02  3.2593811863730053e-02  1.6624482512454533e-02  1.6639753883691849e-02  1.6654881990766882e-02  1.6676541908046204e-02  1.6704963896230211e-02  1.6740132333772612e-02  1.6782008290111290e-02  1.6830555392604713e-02  1.6885742465734269e-02  1.6947547484558515e-02  1.7015960294693350e-02  1.7090983816408695e-02  1.7172632923437691e-02  1.7260930015369387e-02  1.7355896147894401e-02  1.7457536386216863e-02  1.7565817831179276e-02  1.7680638540445996e-02  1.7801785357657498e-02  1.7928878536584467e-02  1.8061301125015704e-02  1.8198111563143809e-02  1.8337939319026074e-02  1.8478865805809718e-02  1.8618296922694746e-02  1.8752842341709101e-02  1.8878218308218016e-02  1.8989198505849663e-02  1.9079700773746291e-02  1.9142937639211145e-02  1.9171667096176678e-02  1.9159114906191169e-02  1.9100133028658300e-02  1.8990539178657555e-02  1.8827105050502422e-02  1.8614750589313542e-02  1.8376420805223895e-02  1.8136707574984715e-02  1.7644881278985641e-02  3.3143577780363510e-02  3.2612024319159279e-02  1.6648397467545241e-02  1.6668452002467613e-02  1.6683846447441468e-02  1.6705581211575282e-02  1.6734080471734029e-02  1.6769335144701754e-02  1.6811303276080346e-02  1.6859946166171359e-02  1.6915232284284647e-02  1.6977142791752751e-02  1.7045675895209909e-02  1.7120850097378893e-02  1.7202705489659059e-02  1.7291302216273140e-02  1.7386715095661337e-02  1.7489023238901641e-02  1.7598293356464911e-02  1.7714555301059313e-02  1.7837768285862785e-02  1.7967776209552141e-02  1.8104250712748304e-02  1.8246621300017887e-02  1.8393993471824722e-02  1.8545058492680028e-02  1.8698005691714099e-02  1.8850454919041963e-02  1.8999425867245876e-02  1.9141427555570686e-02  1.9272656646820114e-02  1.9389129972172889e-02  1.9487849525139433e-02  1.9567836760069068e-02  1.9629061623871794e-02  1.9672181197539860e-02  1.9712296967269255e-02  1.9755940260966928e-02  1.9806512483707305e-02  1.9606844511537158e-02  1.8482528398440116e-02  3.3469846896744843e-02  3.2634535617526030e-02  1.6678260112078611e-02  1.6704358860301114e-02  1.6720087213112508e-02  1.6741906640766503e-02  1.6770489314842901e-02  1.6805835120410478e-02  1.6847898127518961e-02  1.6896636174068672e-02  1.6952016876368090e-02  1.7014024890870626e-02  1.7082668337858306e-02  1.7157984546930120e-02  1.7240044298800414e-02  1.7328953804960377e-02  1.7424853553351785e-02  1.7527913072074533e-02  1.7638320596370265e-02  1.7756266587598605e-02  1.7881920076347205e-02  1.8015396931081732e-02  1.8156719487151595e-02  1.8305767891808131e-02  1.8462224931483147e-02  1.8625520617744609e-02  1.8794792085020245e-02  1.8968875024503441e-02  1.9146394201459235e-02  1.9326049468403866e-02  1.9506851526959385e-02  1.9689269523759042e-02  1.9877296579222239e-02  2.0076410969612792e-02  2.0305107002525243e-02  2.0621208353034302e-02  2.1131719926396741e-02  2.1867213082981889e-02  2.3031032182093798e-02  2.4367203678783127e-02  2.2969281153885884e-02  3.5094209942530492e-02  3.2661458822371238e-02  1.6714249420872872e-02  1.6747698696683081e-02  1.6763826430466085e-02  1.6785734325062685e-02  1.6814398545153937e-02  1.6849829990279640e-02  1.6891977368297173e-02  1.6940793754398966e-02  1.6996245102253647e-02  1.7058319588961257e-02  1.7127036523720683e-02  1.7202455025712427e-02  1.7284681718184050e-02  1.7373876792858133e-02  1.7470257740137832e-02  1.7574100040324968e-02  1.7685734143413158e-02  1.7805538163324836e-02  1.7933925910702378e-02  1.8071330192866070e-02  1.8218181855197819e-02  1.8374885830562231e-02  1.8541796591340545e-02  1.8719202659733977e-02  1.8907329871182370e-02  1.9106401818223546e-02  1.9316888934564260e-02  1.9539851940930632e-02  1.9777794817379471e-02  2.0037747765547047e-02  2.0329238879220442e-02  2.0673076204188873e-02  2.1143361420430103e-02  2.1916141944720191e-02  2.3504142023044638e-02  2.6801007663154595e-02  3.5670732002467877e-02  5.8603322000412766e-02  1.2442403085211615e-01  1.2194119234808448e-01  3.2692936609278390e-02  1.6756591066850377e-02  1.6798755111909140e-02  1.6815346260759916e-02  1.6837338782792786e-02  1.6866071305276332e-02  1.6901567656100926e-02  1.6943769493004138e-02  1.6992623417441882e-02  1.7048092491534758e-02  1.7110168072285971e-02  1.7178881595812052e-02  1.7254316605432057e-02  1.7336620352350434e-02  1.7426014448381967e-02  1.7522804055269559e-02  1.7627385173762604e-02  1.7740249740922642e-02  1.7861988512050925e-02  1.7993292136663046e-02  1.8134951440274508e-02  1.8287858802137340e-02  1.8453012725475192e-02  1.8631529720534903e-02  1.8824670008957958e-02  1.9033873700956064e-02  1.9260913509516558e-02  1.9508136783533910e-02  1.9778935952473632e-02  2.0080338371278140e-02  2.0424835340635418e-02  2.0830847391445854e-02  2.1372716083275834e-02  2.2227596051351231e-02  2.4171578946275488e-02  3.0981724227613350e-02  5.8663604164633544e-02  1.9881455281634000e-01  4.3517005594490393e-01  7.0307571699597549e-01  7.9115669847044778e-01  3.2729146058035001e-02  1.6805566559729781e-02  1.6857882945113964e-02  1.6874999361426668e-02  1.6897062402813148e-02  1.6925834947864832e-02  1.6961355240403431e-02  1.7003555515325623e-02  1.7052373556746516e-02  1.7107767788503116e-02  1.7169731990168292e-02  1.7238310325271393e-02  1.7313613089926589e-02  1.7395832604397331e-02  1.7485258876612078e-02  1.7582294731243939e-02  1.7687470248319032e-02  1.7801456619182893e-02  1.7925079991747184e-02  1.8059336637099493e-02  1.8205411921757411e-02  1.8364706989497256e-02  1.8538877242058691e-02  1.8729890429211079e-02  1.8940093139057628e-02  1.9172301777534321e-02  1.9429983285276755e-02  1.9717165055267782e-02  2.0039876569715075e-02  2.0408264668357649e-02  2.0838834991407564e-02  2.1394115513867912e-02  2.2308135350971703e-02  2.4280711240584223e-02  3.2266597129273072e-02  8.3411357720872076e-02  3.4338465797011941e-01  6.9424750598677998e-01  8.9450960482302289e-01  9.4900935107739970e-01  9.2479391092102337e-01  3.2770305052535843e-02  1.6861523861135756e-02  1.6925521767200812e-02  1.6943223172874437e-02  1.6965330327640301e-02  1.6994095843312334e-02  1.7029573088132553e-02  1.7071681476104713e-02  1.7120346779053875e-02  1.7175520422193655e-02  1.7237197455900025e-02  1.7305435131902917e-02  1.7380372643991952e-02  1.7462251588462870e-02  1.7551436961981460e-02  1.7648438619091256e-02  1.7753933310243681e-02  1.7868787779102967e-02  1.7994084059704998e-02  1.8131149311152266e-02  1.8281594486572378e-02  1.8447368746888820e-02  1.8630839687896219e-02  1.8834911964547379e-02  1.9063155205664855e-02  1.9320023338805500e-02  1.9610785276555236e-02  1.9941490623310291e-02  2.0321031147359808e-02  2.0757424619290341e-02  2.1286077697719345e-02  2.2097058286293058e-02  2.4191921942828293e-02  3.2091172465400643e-02  8.3211362697914876e-02  3.7466860815893294e-01  7.8559979826284509e-01  9.2772867279138560e-01  9.5769851101003112e-01  9.6942505466276063e-01  9.5018522278113360e-01  3.2816679392058151e-02  1.6924890203262523e-02  1.7002213417444765e-02  1.7020558690501824e-02  1.7042669958564120e-02  1.7071359073903378e-02  1.7106693817347696e-02  1.7148575823192312e-02  1.7196914551108947e-02  1.7251651467695660e-02  1.7312781553437361e-02  1.7380375564564874e-02  1.7454603849408761e-02  1.7535761490465963e-02  1.7624294839522353e-02  1.7720829635733005e-02  1.7826201060650727e-02  1.7941486450938304e-02  1.8068042284246057e-02  1.8207548603312050e-02  1.8362066793208096e-02  1.8534121865027068e-02  1.8726831358658453e-02  1.8944101621096072e-02  1.9190899420367419e-02  1.9473685234796423e-02  1.9799981485967000e-02  2.0179996012981923e-02  2.0623517313365137e-02  2.1142612785075315e-02  2.1849446476431739e-02  2.3524831723058925e-02  3.0429984141410207e-02  7.6367405313442729e-02  3.4342981957163121e-01  7.6230178137075599e-01  9.2083227636613507e-01  9.5384315875809300e-01  9.6348261403714752e-01  9.6501635617611969e-01  9.3998139014554316e-01  3.2868590268101669e-02  1.6996187049842685e-02  1.7088623518708809e-02  1.7107674547217615e-02  1.7129737217173049e-02  1.7158255959315648e-02  1.7193309629394641e-02  1.7234774807549907e-02  1.7282539077830700e-02  1.7336530706044375e-02  1.7396743668045864e-02  1.7463263363794026e-02  1.7536294247510846e-02  1.7616189498773010e-02  1.7703483178680333e-02  1.7798925391011657e-02  1.7903520850809027e-02  1.8018571625344620e-02  1.8145726114123503e-02  1.8287037386532472e-02  1.8445037518409563e-02  1.8622841419178120e-02  1.8824318822722643e-02  1.9054381788613697e-02  1.9319549803302034e-02  1.9628648290860619e-02  1.9993113873253570e-02  2.0431126588437865e-02  2.0954891561726068e-02  2.1648030753271229e-02  2.3088673274703143e-02  2.7765204802432563e-02  5.7437933806340061e-02  2.7960011216216213e-01  6.9195369331839229e-01  8.9456912327356197e-01  9.3978461110447575e-01  9.5081573538920905e-01  9.4931316898768714e-01  9.1654118423080855e-01  8.0915722238047572e-01  3.2926420685636587e-02  1.7076046133264581e-02  1.7185566915440320e-02  1.7205397840071451e-02  1.7227352221950099e-02  1.7255582846486650e-02  1.7290171553626565e-02  1.7330959308998084e-02  1.7377805230397635e-02  1.7430621910627740e-02  1.7489403176546552e-02  1.7554252243585360e-02  1.7625412326065619e-02  1.7703300287197552e-02  1.7788544476496315e-02  1.7882027389441064e-02  1.7984933727639495e-02  1.8098804060641290e-02  1.8225596383312278e-02  1.8367758217918157e-02  1.8528315862975858e-02  1.8710980004963455e-02  1.8920325457209942e-02  1.9162138354310760e-02  1.9444393089381663e-02  1.9778419458499789e-02  2.0183556895770071e-02  2.0692796654363237e-02  2.1358744741631960e-02  2.2630808916362963e-02  2.6503900061588332e-02  4.8506809024240587e-02  1.9084781780609744e-01  5.8464490563144877e-01  8.5687667632616293e-01  9.2009314233527995e-01  9.3372491400866886e-01  9.2314768079319742e-01  8.5754636890942137e-01  4.6111595173526221e-01  1.7624933680295418e-01  3.2990617676536702e-02  1.7165223848726565e-02  1.7294036063731196e-02  1.7314753532716397e-02  1.7336548766979917e-02  1.7364357086658181e-02  1.7398246783914575e-02  1.7438008447661066e-02  1.7483466599383265e-02  1.7534519190154977e-02  1.7591165340420229e-02  1.7653533626683652e-02  1.7721914033989219e-02  1.7796794454159735e-02  1.7878904273366289e-02  1.7969265070510321e-02  1.8069251717499547e-02  1.8180656873258479e-02  1.8305764553753559e-02  1.8447443112118014e-02  1.8609257391700277e-02  1.8795549129435721e-02  1.9011546360306650e-02  1.9263585405014990e-02  1.9560426582207711e-02  1.9915193771625213e-02  2.0360262670946091e-02  2.0958972217943725e-02  2.1988857766348145e-02  2.5462907946183274e-02  4.1627318967153201e-02  1.3343557207915624e-01  4.7206691360110642e-01  8.1180790369114009e-01  8.9804762768776247e-01  9.1971972035967298e-01  9.0485184111018491e-01  8.2825026584312345e-01  4.8022434844793771e-01  7.1110894344356482e-02  4.2309767530567324e-02  3.3061683532577775e-02  1.7264607579030856e-02  1.7415229378556815e-02  1.7437015348659254e-02  1.7458645549221288e-02  1.7485900677758463e-02  1.7518804314473911e-02  1.7557078041989905e-02  1.7600511061686763e-02  1.7648997461000324e-02  1.7702556924323553e-02  1.7761359474223838e-02  1.7825755236178915e-02  1.7896312902527755e-02  1.7973868686875304e-02  1.8059587757492650e-02  1.8155044158028689e-02  1.8262293625395009e-02  1.8383958481751429e-02  1.8523363253956864e-02  1.8684687777902945e-02  1.8873075873047054e-02  1.9094476343057127e-02  1.9355353131757801e-02  1.9664134886980190e-02  2.0034586334073807e-02  2.0517432617569279e-02  2.1294628362790186e-02  2.3909358383866069e-02  3.4526186114292354e-02  1.4162817775664166e-01  3.8731850751281194e-01  7.4525763912465759e-01  8.7729599660206103e-01  9.0732298324134719e-01  8.9963943833157456e-01  8.3478781721925721e-01  5.4020554031292023e-01  1.5240921384156017e-01  2.8754020755715579e-02  3.5845117974278001e-02  3.3140141311580280e-02  1.7375199488803093e-02  1.7550572322679193e-02  1.7573773872154336e-02  1.7595355090972323e-02  1.7621971536722365e-02  1.7653546682070566e-02  1.7689716278700432e-02  1.7730252539450351e-02  1.7775080013462920e-02  1.7824273592356086e-02  1.7878073467705504e-02  1.7936909295224238e-02  1.8001446287676422e-02  1.8072630433547905e-02  1.8151773187801559e-02  1.8240636767774373e-02  1.8341578511695527e-02  1.8457554472925221e-02  1.8592322950273833e-02  1.8750720344363269e-02  1.8939276938632055e-02  1.9165195901794583e-02  1.9435656305222381e-02  1.9759553517756327e-02  2.0155827882065821e-02  2.0740081256098782e-02  2.2270355295101876e-02  2.9565962876701598e-02  1.4668684142771649e-01  3.0920909085366954e-01  6.7055720345570713e-01  8.5341237653372581e-01  8.9835459090199032e-01  8.9656359709522826e-01  8.4651763501865818e-01  6.3216992370797398e-01  2.3594044944561282e-01  4.0627932249127419e-02  2.2157302221052923e-02  3.4857556926299736e-02  3.3226443958745834e-02  1.7498046188947961e-02  1.7701716679176669e-02  1.7727035721577165e-02  1.7748963540986581e-02  1.7774980107118039e-02  1.7804817782753331e-02  1.7838032550688547e-02  1.7874452860364060e-02  1.7914122235574613e-02  1.7957236642913370e-02  1.8004143219641815e-02  1.8055393476734252e-02  1.8111767721642243e-02  1.8174309049664050e-02  1.8244477367822816e-02  1.8324138840585247e-02  1.8416160391649297e-02  1.8523639154080392e-02  1.8650646928226749e-02  1.8802759716813087e-02  1.8989245127902121e-02  1.9220528512788632e-02  1.9507676042899564e-02  1.9866385168946482e-02  2.0381137009222339e-02  2.1641353266704928e-02  2.6116056087771483e-02  4.3913302450928032e-02  2.3755003486414555e-01  5.7678222373833765e-01  8.2104807714547412e-01  8.8785982467805769e-01  8.9942376965757809e-01  8.5730882661388408e-01  6.8895763767771290e-01  3.1746983812559565e-01  5.4683993186923227e-02  2.5356757778313577e-02  2.0114277591330606e-02  3.4474012825581685e-02  3.3320751171366791e-02  1.7634037686018150e-02  1.7870485298991136e-02  1.7899384678669177e-02  1.7922654877773746e-02  1.7948375362461064e-02  1.7975952607757497e-02  1.8004948641581010e-02  1.8035483789863107e-02  1.8067918186517672e-02  1.8102676050749934e-02  1.8140232440278823e-02  1.8181363013598559e-02  1.8226855387988326e-02  1.8277946405800070e-02  1.8336299504390145e-02  1.8403664836360096e-02  1.8483801728433162e-02  1.8580091530541097e-02  1.8696672775587675e-02  1.8839363573603957e-02  1.9020500808260780e-02  1.9265257162606242e-02  1.9598727036371312e-02  2.0114537022002641e-02  2.1448942686419985e-02  2.5360092354225618e-02  4.1107425459372751e-02  1.6386047591048411e-01  4.7943294793173019e-01  7.7558064207227684e-01  8.6939436617196597e-01  8.9409164006353836e-01  8.6571796974269943e-01  7.5524010305344358e-01  3.9968376148322510e-01  7.3775798554509400e-02  2.6861421305442158e-02  2.0901428663814871e-02  1.9095228305631727e-02  3.4108404191493934e-02  3.3422404183699253e-02  1.7783445017961762e-02  1.8058735316805078e-02  1.8094334981358130e-02  1.8121180011286039e-02  1.8147368884225419e-02  1.8171843418328403e-02  1.8194501155797065e-02  1.8216455865665077e-02  1.8238728539984109e-02  1.8262191572962307e-02  1.8287294369258838e-02  1.8315194191140013e-02  1.8346630267257646e-02  1.8383600962990798e-02  1.8427852125908948e-02  1.8480964345311778e-02  1.8546211866643285e-02  1.8635190254596687e-02  1.8743061839141477e-02  1.8884907818393477e-02  1.9082069034013591e-02  1.9450433033856841e-02  2.0169185657844139e-02  2.1806657471843533e-02  2.7125193946026596e-02  4.9097877696112971e-02  1.5573575456156857e-01  4.3402770825607162e-01  7.2519595611209176e-01  8.4775106977719472e-01  8.8207736676193627e-01  8.6147397416670601e-01  7.5316438260921059e-01  4.6732300610473593e-01  1.4725397158339787e-01  3.1735143912424921e-02  2.1154445120147140e-02  1.9275531618381636e-02  1.8361640602028616e-02  3.3718563738946529e-02  3.3528843540724267e-02  1.7944761429597111e-02  1.8267963120445645e-02  1.8317026767745971e-02  1.8352090440375116e-02  1.8380229756883065e-02  1.8400047095160584e-02  1.8412604110745971e-02  1.842171885