<?xml version="1.0"?>
<VTKFile type="UnstructuredGrid"  version="0.1"  >
<UnstructuredGrid>
<Piece  NumberOfPoints="1681" NumberOfCells="3200">
<Points>
<DataArray  type="Float64"  NumberOfComponents="3"  format="ascii">0 0 0  0.025 0 0  0.05 0 0  0.075 0 0  0.1 0 0  0.125 0 0  0.15 0 0  0.175 0 0  0.2 0 0  0.225 0 0  0.25 0 0  0.275 0 0  0.3 0 0  0.325 0 0  0.35 0 0  0.375 0 0  0.4 0 0  0.425 0 0  0.45 0 0  0.475 0 0  0.5 0 0  0.525 0 0  0.55 0 0  0.575 0 0  0.6 0 0  0.625 0 0  0.65 0 0  0.675 0 0  0.7 0 0  0.725 0 0  0.75 0 0  0.775 0 0  0.8 0 0  0.825 0 0  0.85 0 0  0.875 0 0  0.9 0 0  0.925 0 0  0.95 0 0  0.975 0 0  1 0 0  0 0.025 0  0.025 0.025 0  0.05 0.025 0  0.075 0.025 0  0.1 0.025 0  0.125 0.025 0  0.15 0.025 0  0.175 0.025 0  0.2 0.025 0  0.225 0.025 0  0.25 0.025 0  0.275 0.025 0  0.3 0.025 0  0.325 0.025 0  0.35 0.025 0  0.375 0.025 0  0.4 0.025 0  0.425 0.025 0  0.45 0.025 0  0.475 0.025 0  0.5 0.025 0  0.525 0.025 0  0.55 0.025 0  0.575 0.025 0  0.6 0.025 0  0.625 0.025 0  0.65 0.025 0  0.675 0.025 0  0.7 0.025 0  0.725 0.025 0  0.75 0.025 0  0.775 0.025 0  0.8 0.025 0  0.825 0.025 0  0.85 0.025 0  0.875 0.025 0  0.9 0.025 0  0.925 0.025 0  0.95 0.025 0  0.975 0.025 0  1 0.025 0  0 0.05 0  0.025 0.05 0  0.05 0.05 0  0.075 0.05 0  0.1 0.05 0  0.125 0.05 0  0.15 0.05 0  0.175 0.05 0  0.2 0.05 0  0.225 0.05 0  0.25 0.05 0  0.275 0.05 0  0.3 0.05 0  0.325 0.05 0  0.35 0.05 0  0.375 0.05 0  0.4 0.05 0  0.425 0.05 0  0.45 0.05 0  0.475 0.05 0  0.5 0.05 0  0.525 0.05 0  0.55 0.05 0  0.575 0.05 0  0.6 0.05 0  0.625 0.05 0  0.65 0.05 0  0.675 0.05 0  0.7 0.05 0  0.725 0.05 0  0.75 0.05 0  0.775 0.05 0  0.8 0.05 0  0.825 0.05 0  0.85 0.05 0  0.875 0.05 0  0.9 0.05 0  0.925 0.05 0  0.95 0.05 0  0.975 0.05 0  1 0.05 0  0 0.075 0  0.025 0.075 0  0.05 0.075 0  0.075 0.075 0  0.1 0.075 0  0.125 0.075 0  0.15 0.075 0  0.175 0.075 0  0.2 0.075 0  0.225 0.075 0  0.25 0.075 0  0.275 0.075 0  0.3 0.075 0  0.325 0.075 0  0.35 0.075 0  0.375 0.075 0  0.4 0.075 0  0.425 0.075 0  0.45 0.075 0  0.475 0.075 0  0.5 0.075 0  0.525 0.075 0  0.55 0.075 0  0.575 0.075 0  0.6 0.075 0  0.625 0.075 0  0.65 0.075 0  0.675 0.075 0  0.7 0.075 0  0.725 0.075 0  0.75 0.075 0  0.775 0.075 0  0.8 0.075 0  0.825 0.075 0  0.85 0.075 0  0.875 0.075 0  0.9 0.075 0  0.925 0.075 0  0.95 0.075 0  0.975 0.075 0  1 0.075 0  0 0.1 0  0.025 0.1 0  0.05 0.1 0  0.075 0.1 0  0.1 0.1 0  0.125 0.1 0  0.15 0.1 0  0.175 0.1 0  0.2 0.1 0  0.225 0.1 0  0.25 0.1 0  0.275 0.1 0  0.3 0.1 0  0.325 0.1 0  0.35 0.1 0  0.375 0.1 0  0.4 0.1 0  0.425 0.1 0  0.45 0.1 0  0.475 0.1 0  0.5 0.1 0  0.525 0.1 0  0.55 0.1 0  0.575 0.1 0  0.6 0.1 0  0.625 0.1 0  0.65 0.1 0  0.675 0.1 0  0.7 0.1 0  0.725 0.1 0  0.75 0.1 0  0.775 0.1 0  0.8 0.1 0  0.825 0.1 0  0.85 0.1 0  0.875 0.1 0  0.9 0.1 0  0.925 0.1 0  0.95 0.1 0  0.975 0.1 0  1 0.1 0  0 0.125 0  0.025 0.125 0  0.05 0.125 0  0.075 0.125 0  0.1 0.125 0  0.125 0.125 0  0.15 0.125 0  0.175 0.125 0  0.2 0.125 0  0.225 0.125 0  0.25 0.125 0  0.275 0.125 0  0.3 0.125 0  0.325 0.125 0  0.35 0.125 0  0.375 0.125 0  0.4 0.125 0  0.425 0.125 0  0.45 0.125 0  0.475 0.125 0  0.5 0.125 0  0.525 0.125 0  0.55 0.125 0  0.575 0.125 0  0.6 0.125 0  0.625 0.125 0  0.65 0.125 0  0.675 0.125 0  0.7 0.125 0  0.725 0.125 0  0.75 0.125 0  0.775 0.125 0  0.8 0.125 0  0.825 0.125 0  0.85 0.125 0  0.875 0.125 0  0.9 0.125 0  0.925 0.125 0  0.95 0.125 0  0.975 0.125 0  1 0.125 0  0 0.15 0  0.025 0.15 0  0.05 0.15 0  0.075 0.15 0  0.1 0.15 0  0.125 0.15 0  0.15 0.15 0  0.175 0.15 0  0.2 0.15 0  0.225 0.15 0  0.25 0.15 0  0.275 0.15 0  0.3 0.15 0  0.325 0.15 0  0.35 0.15 0  0.375 0.15 0  0.4 0.15 0  0.425 0.15 0  0.45 0.15 0  0.475 0.15 0  0.5 0.15 0  0.525 0.15 0  0.55 0.15 0  0.575 0.15 0  0.6 0.15 0  0.625 0.15 0  0.65 0.15 0  0.675 0.15 0  0.7 0.15 0  0.725 0.15 0  0.75 0.15 0  0.775 0.15 0  0.8 0.15 0  0.825 0.15 0  0.85 0.15 0  0.875 0.15 0  0.9 0.15 0  0.925 0.15 0  0.95 0.15 0  0.975 0.15 0  1 0.15 0  0 0.175 0  0.025 0.175 0  0.05 0.175 0  0.075 0.175 0  0.1 0.175 0  0.125 0.175 0  0.15 0.175 0  0.175 0.175 0  0.2 0.175 0  0.225 0.175 0  0.25 0.175 0  0.275 0.175 0  0.3 0.175 0  0.325 0.175 0  0.35 0.175 0  0.375 0.175 0  0.4 0.175 0  0.425 0.175 0  0.45 0.175 0  0.475 0.175 0  0.5 0.175 0  0.525 0.175 0  0.55 0.175 0  0.575 0.175 0  0.6 0.175 0  0.625 0.175 0  0.65 0.175 0  0.675 0.175 0  0.7 0.175 0  0.725 0.175 0  0.75 0.175 0  0.775 0.175 0  0.8 0.175 0  0.825 0.175 0  0.85 0.175 0  0.875 0.175 0  0.9 0.175 0  0.925 0.175 0  0.95 0.175 0  0.975 0.175 0  1 0.175 0  0 0.2 0  0.025 0.2 0  0.05 0.2 0  0.075 0.2 0  0.1 0.2 0  0.125 0.2 0  0.15 0.2 0  0.175 0.2 0  0.2 0.2 0  0.225 0.2 0  0.25 0.2 0  0.275 0.2 0  0.3 0.2 0  0.325 0.2 0  0.35 0.2 0  0.375 0.2 0  0.4 0.2 0  0.425 0.2 0  0.45 0.2 0  0.475 0.2 0  0.5 0.2 0  0.525 0.2 0  0.55 0.2 0  0.575 0.2 0  0.6 0.2 0  0.625 0.2 0  0.65 0.2 0  0.675 0.2 0  0.7 0.2 0  0.725 0.2 0  0.75 0.2 0  0.775 0.2 0  0.8 0.2 0  0.825 0.2 0  0.85 0.2 0  0.875 0.2 0  0.9 0.2 0  0.925 0.2 0  0.95 0.2 0  0.975 0.2 0  1 0.2 0  0 0.225 0  0.025 0.225 0  0.05 0.225 0  0.075 0.225 0  0.1 0.225 0  0.125 0.225 0  0.15 0.225 0  0.175 0.225 0  0.2 0.225 0  0.225 0.225 0  0.25 0.225 0  0.275 0.225 0  0.3 0.225 0  0.325 0.225 0  0.35 0.225 0  0.375 0.225 0  0.4 0.225 0  0.425 0.225 0  0.45 0.225 0  0.475 0.225 0  0.5 0.225 0  0.525 0.225 0  0.55 0.225 0  0.575 0.225 0  0.6 0.225 0  0.625 0.225 0  0.65 0.225 0  0.675 0.225 0  0.7 0.225 0  0.725 0.225 0  0.75 0.225 0  0.775 0.225 0  0.8 0.225 0  0.825 0.225 0  0.85 0.225 0  0.875 0.225 0  0.9 0.225 0  0.925 0.225 0  0.95 0.225 0  0.975 0.225 0  1 0.225 0  0 0.25 0  0.025 0.25 0  0.05 0.25 0  0.075 0.25 0  0.1 0.25 0  0.125 0.25 0  0.15 0.25 0  0.175 0.25 0  0.2 0.25 0  0.225 0.25 0  0.25 0.25 0  0.275 0.25 0  0.3 0.25 0  0.325 0.25 0  0.35 0.25 0  0.375 0.25 0  0.4 0.25 0  0.425 0.25 0  0.45 0.25 0  0.475 0.25 0  0.5 0.25 0  0.525 0.25 0  0.55 0.25 0  0.575 0.25 0  0.6 0.25 0  0.625 0.25 0  0.65 0.25 0  0.675 0.25 0  0.7 0.25 0  0.725 0.25 0  0.75 0.25 0  0.775 0.25 0  0.8 0.25 0  0.825 0.25 0  0.85 0.25 0  0.875 0.25 0  0.9 0.25 0  0.925 0.25 0  0.95 0.25 0  0.975 0.25 0  1 0.25 0  0 0.275 0  0.025 0.275 0  0.05 0.275 0  0.075 0.275 0  0.1 0.275 0  0.125 0.275 0  0.15 0.275 0  0.175 0.275 0  0.2 0.275 0  0.225 0.275 0  0.25 0.275 0  0.275 0.275 0  0.3 0.275 0  0.325 0.275 0  0.35 0.275 0  0.375 0.275 0  0.4 0.275 0  0.425 0.275 0  0.45 0.275 0  0.475 0.275 0  0.5 0.275 0  0.525 0.275 0  0.55 0.275 0  0.575 0.275 0  0.6 0.275 0  0.625 0.275 0  0.65 0.275 0  0.675 0.275 0  0.7 0.275 0  0.725 0.275 0  0.75 0.275 0  0.775 0.275 0  0.8 0.275 0  0.825 0.275 0  0.85 0.275 0  0.875 0.275 0  0.9 0.275 0  0.925 0.275 0  0.95 0.275 0  0.975 0.275 0  1 0.275 0  0 0.3 0  0.025 0.3 0  0.05 0.3 0  0.075 0.3 0  0.1 0.3 0  0.125 0.3 0  0.15 0.3 0  0.175 0.3 0  0.2 0.3 0  0.225 0.3 0  0.25 0.3 0  0.275 0.3 0  0.3 0.3 0  0.325 0.3 0  0.35 0.3 0  0.375 0.3 0  0.4 0.3 0  0.425 0.3 0  0.45 0.3 0  0.475 0.3 0  0.5 0.3 0  0.525 0.3 0  0.55 0.3 0  0.575 0.3 0  0.6 0.3 0  0.625 0.3 0  0.65 0.3 0  0.675 0.3 0  0.7 0.3 0  0.725 0.3 0  0.75 0.3 0  0.775 0.3 0  0.8 0.3 0  0.825 0.3 0  0.85 0.3 0  0.875 0.3 0  0.9 0.3 0  0.925 0.3 0  0.95 0.3 0  0.975 0.3 0  1 0.3 0  0 0.325 0  0.025 0.325 0  0.05 0.325 0  0.075 0.325 0  0.1 0.325 0  0.125 0.325 0  0.15 0.325 0  0.175 0.325 0  0.2 0.325 0  0.225 0.325 0  0.25 0.325 0  0.275 0.325 0  0.3 0.325 0  0.325 0.325 0  0.35 0.325 0  0.375 0.325 0  0.4 0.325 0  0.425 0.325 0  0.45 0.325 0  0.475 0.325 0  0.5 0.325 0  0.525 0.325 0  0.55 0.325 0  0.575 0.325 0  0.6 0.325 0  0.625 0.325 0  0.65 0.325 0  0.675 0.325 0  0.7 0.325 0  0.725 0.325 0  0.75 0.325 0  0.775 0.325 0  0.8 0.325 0  0.825 0.325 0  0.85 0.325 0  0.875 0.325 0  0.9 0.325 0  0.925 0.325 0  0.95 0.325 0  0.975 0.325 0  1 0.325 0  0 0.35 0  0.025 0.35 0  0.05 0.35 0  0.075 0.35 0  0.1 0.35 0  0.125 0.35 0  0.15 0.35 0  0.175 0.35 0  0.2 0.35 0  0.225 0.35 0  0.25 0.35 0  0.275 0.35 0  0.3 0.35 0  0.325 0.35 0  0.35 0.35 0  0.375 0.35 0  0.4 0.35 0  0.425 0.35 0  0.45 0.35 0  0.475 0.35 0  0.5 0.35 0  0.525 0.35 0  0.55 0.35 0  0.575 0.35 0  0.6 0.35 0  0.625 0.35 0  0.65 0.35 0  0.675 0.35 0  0.7 0.35 0  0.725 0.35 0  0.75 0.35 0  0.775 0.35 0  0.8 0.35 0  0.825 0.35 0  0.85 0.35 0  0.875 0.35 0  0.9 0.35 0  0.925 0.35 0  0.95 0.35 0  0.975 0.35 0  1 0.35 0  0 0.375 0  0.025 0.375 0  0.05 0.375 0  0.075 0.375 0  0.1 0.375 0  0.125 0.375 0  0.15 0.375 0  0.175 0.375 0  0.2 0.375 0  0.225 0.375 0  0.25 0.375 0  0.275 0.375 0  0.3 0.375 0  0.325 0.375 0  0.35 0.375 0  0.375 0.375 0  0.4 0.375 0  0.425 0.375 0  0.45 0.375 0  0.475 0.375 0  0.5 0.375 0  0.525 0.375 0  0.55 0.375 0  0.575 0.375 0  0.6 0.375 0  0.625 0.375 0  0.65 0.375 0  0.675 0.375 0  0.7 0.375 0  0.725 0.375 0  0.75 0.375 0  0.775 0.375 0  0.8 0.375 0  0.825 0.375 0  0.85 0.375 0  0.875 0.375 0  0.9 0.375 0  0.925 0.375 0  0.95 0.375 0  0.975 0.375 0  1 0.375 0  0 0.4 0  0.025 0.4 0  0.05 0.4 0  0.075 0.4 0  0.1 0.4 0  0.125 0.4 0  0.15 0.4 0  0.175 0.4 0  0.2 0.4 0  0.225 0.4 0  0.25 0.4 0  0.275 0.4 0  0.3 0.4 0  0.325 0.4 0  0.35 0.4 0  0.375 0.4 0  0.4 0.4 0  0.425 0.4 0  0.45 0.4 0  0.475 0.4 0  0.5 0.4 0  0.525 0.4 0  0.55 0.4 0  0.575 0.4 0  0.6 0.4 0  0.625 0.4 0  0.65 0.4 0  0.675 0.4 0  0.7 0.4 0  0.725 0.4 0  0.75 0.4 0  0.775 0.4 0  0.8 0.4 0  0.825 0.4 0  0.85 0.4 0  0.875 0.4 0  0.9 0.4 0  0.925 0.4 0  0.95 0.4 0  0.975 0.4 0  1 0.4 0  0 0.425 0  0.025 0.425 0  0.05 0.425 0  0.075 0.425 0  0.1 0.425 0  0.125 0.425 0  0.15 0.425 0  0.175 0.425 0  0.2 0.425 0  0.225 0.425 0  0.25 0.425 0  0.275 0.425 0  0.3 0.425 0  0.325 0.425 0  0.35 0.425 0  0.375 0.425 0  0.4 0.425 0  0.425 0.425 0  0.45 0.425 0  0.475 0.425 0  0.5 0.425 0  0.525 0.425 0  0.55 0.425 0  0.575 0.425 0  0.6 0.425 0  0.625 0.425 0  0.65 0.425 0  0.675 0.425 0  0.7 0.425 0  0.725 0.425 0  0.75 0.425 0  0.775 0.425 0  0.8 0.425 0  0.825 0.425 0  0.85 0.425 0  0.875 0.425 0  0.9 0.425 0  0.925 0.425 0  0.95 0.425 0  0.975 0.425 0  1 0.425 0  0 0.45 0  0.02
[...]
<PointData  Scalars="ControlVisualisation"> 
<DataArray  type="Float64"  Name="ControlVisualisation"  format="ascii">1.1463815889549250e-01  7.4178219990709088e-02  7.4210315052243903e-02  7.4274821201956387e-02  7.4370562024081849e-02  7.4496208295454336e-02  7.4650165863099693e-02  7.4830471736818741e-02  7.5034786884220231e-02  7.5260410569676389e-02  7.5504308468318126e-02  7.5763133970444874e-02  7.6033247066552928e-02  7.6310732887755570e-02  7.6591423433111316e-02  7.6870926870826528e-02  7.7144668627921312e-02  7.7407947245726777e-02  7.7656005355125970e-02  7.7884112148114429e-02  7.8087648788856934e-02  7.8262183107497163e-02  7.8403515728614509e-02  7.8507677695197634e-02  7.8570860911867574e-02  7.8589269135483752e-02  7.8558891740449777e-02  7.8475231197120549e-02  7.8333064267776767e-02  7.8126399691751752e-02  7.7848899633552335e-02  7.7495145339637028e-02  7.7063239310713544e-02  7.6558971256652342e-02  7.6001531294058650e-02  7.5429377371203435e-02  7.4900868566295256e-02  7.4485313716667972e-02  7.4240434420510856e-02  7.4169773698390479e-02  2.1472099837621578e-01  7.4178223937176421e-02  3.5358306922557321e-02  3.5445223679522048e-02  3.5609880392781762e-02  3.5857205565199918e-02  3.6185036600748906e-02  3.6589790952167710e-02  3.7067244568892432e-02  3.7612459953311708e-02  3.8219854208753679e-02  3.8883214232438332e-02  3.9595631975042553e-02  4.0349369038143325e-02  4.1135666822933070e-02  4.1944534566168937e-02  4.2764556591627575e-02  4.3582764165211146e-02  4.4384615152529734e-02  4.5154115151006535e-02  4.5874096591129551e-02  4.6526648255465146e-02  4.7093659290639397e-02  4.7557413520354905e-02  4.7901147716924504e-02  4.8109478494831187e-02  4.8168614963148712e-02  4.8066318413501903e-02  4.7791660023731489e-02  4.7334771233214154e-02  4.6686986893414099e-02  4.5841973088169556e-02  4.4798594699906991e-02  4.3566122303088747e-02  4.2171729480665249e-02  4.0669853682363387e-02  3.9149893479550738e-02  3.7737344026312902e-02  3.6581469091209864e-02  3.5803579983937080e-02  3.5406067763542715e-02  7.4169447037447017e-02  7.4210448165980436e-02  3.5445626998614220e-02  3.5620595096467818e-02  3.5885878240513050e-02  3.6278857826943463e-02  3.6802632048594283e-02  3.7454144525741452e-02  3.8229041529212401e-02  3.9122048316688529e-02  4.0127145847890858e-02  4.1237576141849530e-02  4.2445743827830382e-02  4.3742964416382549e-02  4.5119043420203189e-02  4.6561695842772338e-02  4.8055841191564974e-02  4.9582838491870389e-02  5.1119755424398908e-02  5.2638792799340021e-02  5.4107004462158617e-02  5.5486455288628680e-02  5.6734937263908963e-02  5.7807309233512592e-02  5.8657439574078707e-02  5.9240621965365552e-02  5.9516222800802307e-02  5.9450234307309786e-02  5.9017390577291343e-02  5.8202589240608150e-02  5.7001602399904303e-02  5.5421393883794828e-02  5.3481009508333691e-02  5.1214239452289007e-02  4.8676604765637295e-02  4.5958202197754802e-02  4.3199379137885421e-02  4.0606462479595373e-02  3.8433822385192953e-02  3.6872369411041259e-02  3.5798017007586051e-02  7.4233579190140203e-02  7.4275739238718330e-02  3.5612557004862488e-02  3.5889425873703001e-02  3.6187579135588670e-02  3.6611278124292920e-02  3.7174825763328104e-02  3.7877483690749308e-02  3.8715904590704703e-02  3.9685723126509226e-02  4.0781825649406585e-02  4.1998392737559148e-02  4.3328862117447478e-02  4.4765757549550721e-02  4.6300354498510762e-02  4.7922152290959870e-02  4.9618137667185050e-02  5.1371848929189126e-02  5.3162287474754891e-02  5.4962776040607522e-02  5.6739926202796033e-02  5.8452939960536701e-02  6.0053513064296786e-02  6.1486610249440007e-02  6.2692328258004887e-02  6.3608944653462562e-02  6.4177071099444982e-02  6.4344594362547664e-02  6.4071809509933242e-02  6.3335852340482723e-02  6.2133362446110438e-02  6.0480362877935318e-02  5.8409277452501671e-02  5.5963798081799021e-02  5.3196761261365973e-02  5.0172727597645017e-02  4.6990469422925465e-02  4.3824971172905444e-02  4.0944573653976968e-02  3.8634557717284926e-02  3.6587532420618012e-02  7.4456348440720507e-02  7.4373988298667468e-02  3.5867031137259475e-02  3.6293873945262525e-02  3.6623607371529074e-02  3.7063596361880655e-02  3.7644875228201938e-02  3.8369163638630466e-02  3.9233573749679063e-02  4.0234047316708252e-02  4.1365845014515054e-02  4.2623698720104547e-02  4.4001849656496284e-02  4.5493965452880064e-02  4.7092901248011042e-02  4.8790260247782588e-02  5.0575716776305714e-02  5.2436080512908503e-02  5.4354114091125595e-02  5.6307170902531026e-02  5.8265793832588182e-02  6.0192498392408880e-02  6.2041037399347271e-02  6.3756489032889496e-02  6.5276510904252863e-02  6.6534051749874479e-02  6.7461697086520875e-02  6.7997606026448054e-02  6.8092591765400473e-02  6.7717201114232850e-02  6.6866719720156842e-02  6.5561080947142331e-02  6.3837246351673579e-02  6.1733495957329770e-02  5.9274059111154138e-02  5.6456389047443122e-02  5.3275804447761588e-02  4.9738038832485773e-02  4.5968864167571719e-02  4.2268567720030556e-02  3.8055001996320822e-02  7.4870509744638589e-02  7.4505453677343708e-02  3.6211468105171590e-02  3.6844733966986926e-02  3.7216715635590855e-02  3.7675342929727906e-02  3.8274852134035323e-02  3.9020005237297400e-02  3.9908084594406375e-02  4.0934888796019399e-02  4.2095659268905919e-02  4.3385414311005316e-02  4.4799110765346345e-02  4.6331678952189717e-02  4.7977885011606117e-02  4.9731970321151939e-02  5.1587022832007189e-02  5.3534051784710844e-02  5.5560771939480627e-02  5.7650157984428213e-02  5.9778901131222625e-02  6.1915977382815859e-02  6.4021605707684698e-02  6.6046923221119297e-02  6.7934734992959406e-02  6.9621722120647198e-02  7.1042517388621801e-02  7.2136030875255497e-02  7.2854154954225314e-02  7.3172179093290629e-02  7.3098535852396923e-02  7.2678577479443951e-02  7.1984642384686756e-02  7.1083065650051069e-02  6.9981668624022331e-02  6.8559379115990457e-02  6.6549741672576407e-02  6.3433124048156209e-02  5.8651014202984533e-02  5.1177221030144993e-02  4.0592422094638425e-02  7.5222527715562260e-02  7.4670611924337854e-02  3.6648392136900354e-02  3.7549519695406756e-02  3.7978087777478388e-02  3.8460858285171221e-02  3.9082657039985327e-02  3.9852569055013234e-02  4.0768111469884322e-02  4.1824763816327132e-02  4.3017622673515749e-02  4.4342011429304121e-02  4.5793836794188643e-02  4.7369796155440763e-02  4.9067383693881896e-02  5.0884639263355798e-02  5.2819591446611025e-02  5.4869371037462825e-02  5.7029012902558227e-02  5.9290022839404398e-02  6.1638856415992503e-02  6.4055528397669398e-02  6.6512634570092599e-02  6.8975124836931481e-02  7.1401244234770150e-02  7.3745211704111885e-02  7.5962497544320468e-02  7.8019007880987534e-02  7.9905975742270194e-02  8.1662579215776770e-02  8.3407586028158232e-02  8.5378706294854015e-02  8.7973752808620839e-02  9.1776794989032073e-02  9.7541535390935671e-02  1.0597421642788675e-01  1.1706649440081671e-01  1.2786752283396802e-01  1.3141073903716177e-01  1.0833307335867730e-01  5.8957823174848975e-02  7.8429578215683249e-02  7.4869997975975641e-02  3.7181166994293316e-02  3.8417441841962316e-02  3.8919886944498272e-02  3.9433771976745136e-02  4.0082877078616727e-02  4.0882405711262615e-02  4.1830398040017799e-02  4.2922004390852246e-02  4.4152234157002104e-02  4.5516982853282373e-02  4.7013678738182012e-02  4.8641745016981583e-02  5.0402834286379636e-02  5.2300780014570461e-02  5.4341224363513803e-02  5.6530918959438362e-02  5.8876750092341244e-02  6.1384613537807733e-02  6.4058354673015350e-02  6.6899095082976312e-02  6.9905395349459401e-02  7.3074891089002669e-02  7.6408375733421352e-02  7.9917964427308766e-02  8.3642255514812205e-02  8.7673786636770543e-02  9.2208338224956929e-02  9.7633052263856865e-02  1.0468278186348844e-01  1.1471460556807098e-01  1.3017942488665460e-01  1.5536683594995618e-01  1.9725348503873838e-01  2.6510984991770520e-01  3.6654084221787897e-01  4.9818203155716911e-01  6.4575892645494648e-01  7.6566014855264153e-01  7.7992154711305317e-01  3.2128467722100751e-01  7.5104117869543574e-02  3.7813865907073661e-02  3.9459991386521925e-02  4.0057213674486614e-02  4.0610835640701490e-02  4.1293057136920899e-02  4.2127534879829065e-02  4.3113337041810071e-02  4.4245414580183731e-02  4.5518944978579862e-02  4.6930991073943634e-02  4.8481582151150469e-02  5.0174574908766388e-02  5.2018290451277004e-02  5.4025898142291452e-02  5.6215543691581014e-02  5.8610275567041063e-02  6.1237908315747901e-02  6.4131087032758868e-02  6.7328002369383286e-02  7.0874480648599025e-02  7.4828598848189154e-02  7.9269675236753351e-02  8.4314714912028479e-02  9.0147615043772805e-02  9.7070487202461406e-02  1.0559372973101985e-01  1.1659407285893351e-01  1.3158979738279453e-01  1.5320788188724788e-01  1.8592809866076512e-01  2.3707020706929402e-01  3.1731841750223128e-01  4.3821589051452892e-01  6.0277811741565135e-01  7.9021011310966427e-01  9.3939269381060408e-01  9.8751661022256876e-01  9.8524983425224200e-01  9.9054992644413098e-01  9.8125331179670150e-01  7.5373349472010326e-02  3.8551249863227922e-02  4.0691411870378336e-02  4.1408935790278156e-02  4.2013130133736351e-02  4.2735423005193410e-02  4.3610903620275088e-02  4.4640441434389160e-02  4.5819132646853632e-02  4.7142927457478487e-02  4.8611250216700444e-02  5.0228774335413735e-02  5.2006985041140735e-02  5.3965628551252635e-02  5.6134100844596559e-02  5.8552870797786982e-02  6.1275122323674547e-02  6.4368954897677286e-02  6.7920748918090176e-02  7.2040742335304928e-02  7.6872554994249123e-02  8.2609444035989452e-02  8.9521636822333536e-02  9.8001386054130765e-02  1.0863565720447248e-01  1.2232068970764742e-01  1.4043769041549026e-01  1.6511272609385336e-01  1.9957941324803061e-01  2.4862525763642385e-01  3.1894227418960686e-01  4.1864227011872063e-01  5.5383535873454726e-01  7.1879128811291815e-01  8.7828132280166582e-01  9.6537992215845558e-01  9.7945884046909371e-01  9.8558030935099383e-01  9.9003232336576319e-01  9.9361882119815381e-01  9.8936238147543742e-01  7.5677806835181660e-02  3.9398599976713806e-02  4.2129089562113989e-02  4.2998590177006663e-02  4.3667431364511969e-02  4.4438728150063611e-02  4.5362797689704568e-02  4.6443489665684005e-02  4.7676813294266263e-02  4.9060814059894757e-02  5.0599712636613614e-02  5.2306917293457218e-02  5.4208002494184809e-02  5.6343963439921665e-02  5.8774958186707076e-02  6.1584782160766287e-02  6.4886440294918538e-02  6.8829446094065688e-02  7.3609966869382745e-02  7.9485698394417131e-02  8.6798356323579379e-02  9.6007736671187338e-02  1.0774200145540856e-01  1.2286840225518933e-01  1.4258597072480789e-01  1.6853612107459551e-01  2.0291990105305358e-01  2.4860379104484448e-01  3.0917743428351369e-01  3.8883114128245905e-01  4.9158228123484038e-01  6.1858548285318182e-01  7.6134382328844041e-01  8.9068365849595399e-01  9.6128496961306720e-01  9.7676433307983301e-01  9.8336022991085892e-01  9.8841286691807306e-01  9.9251908056663740e-01  9.9498562532902945e-01  9.9104460233133163e-01  7.6017119727095059e-02  4.0361254594797405e-02  4.3793888994410640e-02  4.4855688973339761e-02  4.5608350908604711e-02  4.6441253554793144e-02  4.7424853567536875e-02  4.8567845818276285e-02  4.9868812241518762e-02  5.1330798195861060e-02  5.2968045638612800e-02  5.4811497426612212e-02  5.6914886490148184e-02  5.9362012033934576e-02  6.2275491255731397e-02  6.5827133071920674e-02  7.0250084138661753e-02  7.5853135298624308e-02  8.3038052265395096e-02  9.2321276406954367e-02  1.0436128257537079e-01  1.1999146372077495e-01  1.4025488074876430e-01  1.6643178709728607e-01  2.0004626344931148e-01  2.4284031191871530e-01  2.9671443114778612e-01  3.6363169009197532e-01  4.4540454012658548e-01  5.4305501333252471e-01  6.5508067873249443e-01  7.7381500445017426e-01  8.8060004452293317e-01  9.4841573095704645e-01  9.7118278124278778e-01  9.7857208487027980e-01  9.8399424668882673e-01  9.8840975480180060e-01  9.9158338298180959e-01  9.9379458192763637e-01  9.9066897304927282e-01  7.6390095620555112e-02  4.1443667384864102e-02  4.5710281407812706e-02  4.7017695846858790e-02  4.7881982107597323e-02  4.8796171136769290e-02  4.9857459491848034e-02  5.1082571480210177e-02  5.2476352152440772e-02  5.4053507478532936e-02  5.5850259786546320e-02  5.7935242793215845e-02  6.0422287549166905e-02  6.3485526505356701e-02  6.7376109704870291e-02  7.2438970840113831e-02  7.9127622691094010e-02  8.8015045225514704e-02  9.9799143544201011e-02  1.1530135920611974e-01  1.3545613133004597e-01  1.6128712040209225e-01  1.9386523294846592e-01  2.3424694671454177e-01  2.8340112232232284e-01  3.4214105062602151e-01  4.1106172813495079e-01  4.9040708112099712e-01  5.7965418788347689e-01  6.7648866527432150e-01  7.7501095316926683e-01  8.6398690029112879e-01  9.2844774304410116e-01  9.6021652714380046e-01  9.7074413622751465e-01  9.7651712235959909e-01  9.8087874603352876e-01  9.8465155369428681e-01  9.8881976471962418e-01  9.9127601686162170e-01  9.8467227869161600e-01  7.6794229438048450e-02  4.2647752374090839e-02  4.7906088343185049e-02  4.9533217533900879e-02  5.0552380121259836e-02  5.1581395303870625e-02  5.2753696395397530e-02  5.4100154616155652e-02  5.5640639363003154e-02  5.7417741216595347e-02  5.9518509421236154e-02  6.2096545664520025e-02  6.5396634606300144e-02  6.9779200957007834e-02  7.5738802522110391e-02  8.3909467981186633e-02  9.5050823419176256e-02  1.1001268942622765e-01  1.2968081487030272e-01  1.5491051931040983e-01  1.8645695946042723e-01  2.2491119467645287e-01  2.7065183066182580e-01  3.2382204770621653e-01  3.8433505721752798e-01  4.5188706792570810e-01  5.2590973222635795e-01  6.0533700693033365e-01  6.8804658577413447e-01  7.6998436495184619e-01  8.4448685168526816e-01  9.0320847424435935e-01  9.4027418101860338e-01  9.5788507376571053e-01  9.6536228325838491e-01  9.6977461741460469e-01  9.7296255836798506e-01  9.7676081804951931e-01  9.8513854122890643e-01  9.9768161340050465e-01  6.4355869959021694e-01  7.7225057207456496e-02  4.3970314516522530e-02  5.0411678490921388e-02  5.2467394864846792e-02  5.3713287023285039e-02  5.4917886398211706e-02  5.6266040252097985e-02  5.7816367555641561e-02  5.9626225351615388e-02  6.1807417367898028e-02  6.4567785969130764e-02  6.8250993059534762e-02  7.3369372871441352e-02  8.0615596048327215e-02  9.0837482035659917e-02  1.0496836325324974e-01  1.2392128235428876e-01  1.4847129467906528e-01  1.7915649635180275e-01  2.1622099985825707e-01  2.5960714279036917e-01  3.0898941633096316e-01  3.6383448794917822e-01  4.2346781273461165e-01  4.8712087954327093e-01  5.5392024948127816e-01  6.2276567084617995e-01  6.9205051985119803e-01  7.5924915977289897e-01  8.2060149776258862e-01  8.7146682517921858e-01  9.0802797964369786e-01  9.2994439595176848e-01  9.4120554293497727e-01  9.4684479307532921e-01  9.4910154736848051e-01  9.4745941312184445e-01  9.3576516229372775e-01  8.3837840000022323e-01  2.6122626415352701e-01  1.0403563250284320e-01  7.7675439757503656e-02  4.5399577935681154e-02  5.3258636777702054e-02  5.5911222758869270e-02  5.7509421760164922e-02  5.9004063248417053e-02  6.0659434782331080e-02  6.2596509448972812e-02  6.4970474947927015e-02  6.8066183831380578e-02  7.2367354868398195e-02  7.8597137248185525e-02  8.7703225588113845e-02  1.0076305656006215e-01  1.1881477603023827e-01  1.4266151855268999e-01  1.7271898910867592e-01  2.0895834573743427e-01  2.5094976260573326e-01  2.9797073787750417e-01  3.4913061977001048e-01  4.0347563185126140e-01  4.6005843469458718e-01  5.1796797673736172e-01  5.7631535009892487e-01  6.3416519916754865e-01  6.9040154957246691e-01  7.4353907237614725e-01  7.9155769990237679e-01  8.3195537932268759e-01  8.6229513793973411e-01  8.8130273610071796e-01  8.8980157198937704e-01  8.9003476029924500e-01  8.8275181947425452e-01  8.6306934369266186e-01  8.1357367002744707e-01  6.8655941744516968e-01  4.0517408112010583e-01  8.7927187623272896e-02  8.4144763363990877e-02  7.8135039851429555e-02  4.6911393166646664e-02  5.6478572046765041e-02  5.9997950601078591e-02  6.2175655029870783e-02  6.4183522067703558e-02  6.6426489088645749e-02  6.9182454841980073e-02  7.2861230246935221e-02  7.8148585199413007e-02  8.6056883075653554e-02  9.7844834223772589e-02  1.1478887262112637e-01  1.3786910280516834e-01  1.6750573646541800e-01  2.0346711317272892e-01  2.4496945115466348e-01  2.9088864630499200e-01  3.3997791042560410e-01  3.9102387570219005e-01  4.4292671259467464e-01  4.9472157409043138e-01  5.4556505392930910e-01  5.9470206879957899e-01  6.4141669253077693e-01  6.8496251470952108e-01  7.2446994137744980e-01  7.5884539673639206e-01  7.8671329090988074e-01  8.0649090614539620e-01  8.1667125242329630e-01  8.1622266441833013e-01  8.0468044157386454e-01  7.8125769373161058e-01  7.4250973497235651e-01  6.7877797493150571e-01  5.7159442636694502e-01  4.0073759771868533e-01  1.9184758023787857e-01  6.4664803412792488e-02  8.2150211330099115e-02  7.8590512259079676e-02  4.8466783912554434e-02  6.0104624151416861e-02  6.4933727637310257e-02  6.8114587472499058e-02  7.1095437093958908e-02  7.4573836896499754e-02  7.9232104623902969e-02  8.6071373899597556e-02  9.6496631303058120e-02  1.1211159460404925e-01  1.3426881852912737e-01  1.6359582230026287e-01  1.9977262611693258e-01  2.4166590874939262e-01  2.8768833942357819e-01  3.3616656915704973e-01  3.8558284266363696e-01  4.3467269805686620e-01  4.8242454022344716e-01  5.2803395934380082e-01  5.7084799738376857e-01  6.1031475050839523e-01  6.4593944170562545e-01  6.7723992687552426e-01  7.0369209707022673e-01  7.2465968071343378e-01  7.3931505680345888e-01  7.4657693692796545e-01  7.4510788434196140e-01  7.3340678322778607e-01  7.0997142194485596e-01  6.7340036296572348e-01  6.2222401081893297e-01  5.5433116792912074e-01  4.6639570036273248e-01  3.5551700173556011e-01  2.2835527888053930e-01  1.1941694012567118e-01  5.8539843705343195e-02  8.1073408192731816e-02  7.9027134147857198e-02  5.0013974486541768e-02  6.4183417943677934e-02  7.1064413724935549e-02  7.6078790320734724e-02  8.1069745687159300e-02  8.7398883051488782e-02  9.6656758922863725e-02  1.1080657980396831e-01  1.3178314999465793e-01  1.6074879319057805e-01  1.9754138791011983e-01  2.4072294702795419e-01  2.8812791814129946e-01  3.3749575687878741e-01  3.8688110439042583e-01  4.3479360048907867e-01  4.8016403093010751e-01  5.2224334237506165e-01  5.6049853558129870e-01  5.9453034052345621e-01  6.2401546717726286e-01  6.4866660962444089e-01  6.6819996729097109e-01  6.8229958395530144e-01  6.9056998858794827e-01  6.9247486031162719e-01  6.8727140719767232e-01  6.7396799505590066e-01  6.5135259742128948e-01  6.1815224525463774e-01  5.7337303390467242e-01  5.1681455064290194e-01  4.4961951944018214e-01  3.7451229366015332e-01  2.9539332344353475e-01  2.1698354983365770e-01  1.4637939594655042e-01  9.3477546185210869e-02  5.5845780531638169e-02  8.0520782178966965e-02  7.9432445623901365e-02  5.1499694847604770e-02  6.8819174315942228e-02  7.9054439890214795e-02  8.7682317060204532e-02  9.7237518641731524e-02  1.1039316710734812e-01  1.3000961288653315e-01  1.5832088978171510e-01  1.9588895893708869e-01  2.4124167098009006e-01  2.9152715752014052e-01  3.4359649938821285e-01  3.9479664088041361e-01  4.4325031474394638e-01  4.8778414641215329e-01  5.2772812333269803e-01  5.6272080827626270e-01  5.9256687185142998e-01  6.1714745950278282e-01  6.3636873548526829e-01  6.5013287528413310e-01  6.5831883149153825e-01  6.6076356847960527e-01  6.5723787278372270e-01  6.4741570816073968e-01  6.3084432759798559e-01  6.0693543061195321e-01  5.7501517008622516e-01  5.3448805152657153e-01  4.8517297531056697e-01  4.2782863138709182e-01  3.6475012351654179e-01  3.0005473800033916e-01  2.3902651275642472e-01  1.8620720878852348e-01  1.4332387388402260e-01  1.0922409050614523e-01  8.1570343136504478e-02  5.4256373798375640e-02  8.0152252093982884e-02  7.9802770708981924e-02  5.2896712037087137e-02  7.4310633590739111e-02  9.0429937260710525e-02  1.0686743248853560e-01  1.2715493270584738e-01  1.5517147613611926e-01  1.9343227947141606e-01  2.415289150