<?xml version="1.0"?>
<VTKFile type="UnstructuredGrid"  version="0.1"  >
<UnstructuredGrid>
<Piece  NumberOfPoints="1681" NumberOfCells="3200">
<Points>
<DataArray  type="Float64"  NumberOfComponents="3"  format="ascii">0 0 0  0.025 0 0  0.05 0 0  0.075 0 0  0.1 0 0  0.125 0 0  0.15 0 0  0.175 0 0  0.2 0 0  0.225 0 0  0.25 0 0  0.275 0 0  0.3 0 0  0.325 0 0  0.35 0 0  0.375 0 0  0.4 0 0  0.425 0 0  0.45 0 0  0.475 0 0  0.5 0 0  0.525 0 0  0.55 0 0  0.575 0 0  0.6 0 0  0.625 0 0  0.65 0 0  0.675 0 0  0.7 0 0  0.725 0 0  0.75 0 0  0.775 0 0  0.8 0 0  0.825 0 0  0.85 0 0  0.875 0 0  0.9 0 0  0.925 0 0  0.95 0 0  0.975 0 0  1 0 0  0 0.025 0  0.025 0.025 0  0.05 0.025 0  0.075 0.025 0  0.1 0.025 0  0.125 0.025 0  0.15 0.025 0  0.175 0.025 0  0.2 0.025 0  0.225 0.025 0  0.25 0.025 0  0.275 0.025 0  0.3 0.025 0  0.325 0.025 0  0.35 0.025 0  0.375 0.025 0  0.4 0.025 0  0.425 0.025 0  0.45 0.025 0  0.475 0.025 0  0.5 0.025 0  0.525 0.025 0  0.55 0.025 0  0.575 0.025 0  0.6 0.025 0  0.625 0.025 0  0.65 0.025 0  0.675 0.025 0  0.7 0.025 0  0.725 0.025 0  0.75 0.025 0  0.775 0.025 0  0.8 0.025 0  0.825 0.025 0  0.85 0.025 0  0.875 0.025 0  0.9 0.025 0  0.925 0.025 0  0.95 0.025 0  0.975 0.025 0  1 0.025 0  0 0.05 0  0.025 0.05 0  0.05 0.05 0  0.075 0.05 0  0.1 0.05 0  0.125 0.05 0  0.15 0.05 0  0.175 0.05 0  0.2 0.05 0  0.225 0.05 0  0.25 0.05 0  0.275 0.05 0  0.3 0.05 0  0.325 0.05 0  0.35 0.05 0  0.375 0.05 0  0.4 0.05 0  0.425 0.05 0  0.45 0.05 0  0.475 0.05 0  0.5 0.05 0  0.525 0.05 0  0.55 0.05 0  0.575 0.05 0  0.6 0.05 0  0.625 0.05 0  0.65 0.05 0  0.675 0.05 0  0.7 0.05 0  0.725 0.05 0  0.75 0.05 0  0.775 0.05 0  0.8 0.05 0  0.825 0.05 0  0.85 0.05 0  0.875 0.05 0  0.9 0.05 0  0.925 0.05 0  0.95 0.05 0  0.975 0.05 0  1 0.05 0  0 0.075 0  0.025 0.075 0  0.05 0.075 0  0.075 0.075 0  0.1 0.075 0  0.125 0.075 0  0.15 0.075 0  0.175 0.075 0  0.2 0.075 0  0.225 0.075 0  0.25 0.075 0  0.275 0.075 0  0.3 0.075 0  0.325 0.075 0  0.35 0.075 0  0.375 0.075 0  0.4 0.075 0  0.425 0.075 0  0.45 0.075 0  0.475 0.075 0  0.5 0.075 0  0.525 0.075 0  0.55 0.075 0  0.575 0.075 0  0.6 0.075 0  0.625 0.075 0  0.65 0.075 0  0.675 0.075 0  0.7 0.075 0  0.725 0.075 0  0.75 0.075 0  0.775 0.075 0  0.8 0.075 0  0.825 0.075 0  0.85 0.075 0  0.875 0.075 0  0.9 0.075 0  0.925 0.075 0  0.95 0.075 0  0.975 0.075 0  1 0.075 0  0 0.1 0  0.025 0.1 0  0.05 0.1 0  0.075 0.1 0  0.1 0.1 0  0.125 0.1 0  0.15 0.1 0  0.175 0.1 0  0.2 0.1 0  0.225 0.1 0  0.25 0.1 0  0.275 0.1 0  0.3 0.1 0  0.325 0.1 0  0.35 0.1 0  0.375 0.1 0  0.4 0.1 0  0.425 0.1 0  0.45 0.1 0  0.475 0.1 0  0.5 0.1 0  0.525 0.1 0  0.55 0.1 0  0.575 0.1 0  0.6 0.1 0  0.625 0.1 0  0.65 0.1 0  0.675 0.1 0  0.7 0.1 0  0.725 0.1 0  0.75 0.1 0  0.775 0.1 0  0.8 0.1 0  0.825 0.1 0  0.85 0.1 0  0.875 0.1 0  0.9 0.1 0  0.925 0.1 0  0.95 0.1 0  0.975 0.1 0  1 0.1 0  0 0.125 0  0.025 0.125 0  0.05 0.125 0  0.075 0.125 0  0.1 0.125 0  0.125 0.125 0  0.15 0.125 0  0.175 0.125 0  0.2 0.125 0  0.225 0.125 0  0.25 0.125 0  0.275 0.125 0  0.3 0.125 0  0.325 0.125 0  0.35 0.125 0  0.375 0.125 0  0.4 0.125 0  0.425 0.125 0  0.45 0.125 0  0.475 0.125 0  0.5 0.125 0  0.525 0.125 0  0.55 0.125 0  0.575 0.125 0  0.6 0.125 0  0.625 0.125 0  0.65 0.125 0  0.675 0.125 0  0.7 0.125 0  0.725 0.125 0  0.75 0.125 0  0.775 0.125 0  0.8 0.125 0  0.825 0.125 0  0.85 0.125 0  0.875 0.125 0  0.9 0.125 0  0.925 0.125 0  0.95 0.125 0  0.975 0.125 0  1 0.125 0  0 0.15 0  0.025 0.15 0  0.05 0.15 0  0.075 0.15 0  0.1 0.15 0  0.125 0.15 0  0.15 0.15 0  0.175 0.15 0  0.2 0.15 0  0.225 0.15 0  0.25 0.15 0  0.275 0.15 0  0.3 0.15 0  0.325 0.15 0  0.35 0.15 0  0.375 0.15 0  0.4 0.15 0  0.425 0.15 0  0.45 0.15 0  0.475 0.15 0  0.5 0.15 0  0.525 0.15 0  0.55 0.15 0  0.575 0.15 0  0.6 0.15 0  0.625 0.15 0  0.65 0.15 0  0.675 0.15 0  0.7 0.15 0  0.725 0.15 0  0.75 0.15 0  0.775 0.15 0  0.8 0.15 0  0.825 0.15 0  0.85 0.15 0  0.875 0.15 0  0.9 0.15 0  0.925 0.15 0  0.95 0.15 0  0.975 0.15 0  1 0.15 0  0 0.175 0  0.025 0.175 0  0.05 0.175 0  0.075 0.175 0  0.1 0.175 0  0.125 0.175 0  0.15 0.175 0  0.175 0.175 0  0.2 0.175 0  0.225 0.175 0  0.25 0.175 0  0.275 0.175 0  0.3 0.175 0  0.325 0.175 0  0.35 0.175 0  0.375 0.175 0  0.4 0.175 0  0.425 0.175 0  0.45 0.175 0  0.475 0.175 0  0.5 0.175 0  0.525 0.175 0  0.55 0.175 0  0.575 0.175 0  0.6 0.175 0  0.625 0.175 0  0.65 0.175 0  0.675 0.175 0  0.7 0.175 0  0.725 0.175 0  0.75 0.175 0  0.775 0.175 0  0.8 0.175 0  0.825 0.175 0  0.85 0.175 0  0.875 0.175 0  0.9 0.175 0  0.925 0.175 0  0.95 0.175 0  0.975 0.175 0  1 0.175 0  0 0.2 0  0.025 0.2 0  0.05 0.2 0  0.075 0.2 0  0.1 0.2 0  0.125 0.2 0  0.15 0.2 0  0.175 0.2 0  0.2 0.2 0  0.225 0.2 0  0.25 0.2 0  0.275 0.2 0  0.3 0.2 0  0.325 0.2 0  0.35 0.2 0  0.375 0.2 0  0.4 0.2 0  0.425 0.2 0  0.45 0.2 0  0.475 0.2 0  0.5 0.2 0  0.525 0.2 0  0.55 0.2 0  0.575 0.2 0  0.6 0.2 0  0.625 0.2 0  0.65 0.2 0  0.675 0.2 0  0.7 0.2 0  0.725 0.2 0  0.75 0.2 0  0.775 0.2 0  0.8 0.2 0  0.825 0.2 0  0.85 0.2 0  0.875 0.2 0  0.9 0.2 0  0.925 0.2 0  0.95 0.2 0  0.975 0.2 0  1 0.2 0  0 0.225 0  0.025 0.225 0  0.05 0.225 0  0.075 0.225 0  0.1 0.225 0  0.125 0.225 0  0.15 0.225 0  0.175 0.225 0  0.2 0.225 0  0.225 0.225 0  0.25 0.225 0  0.275 0.225 0  0.3 0.225 0  0.325 0.225 0  0.35 0.225 0  0.375 0.225 0  0.4 0.225 0  0.425 0.225 0  0.45 0.225 0  0.475 0.225 0  0.5 0.225 0  0.525 0.225 0  0.55 0.225 0  0.575 0.225 0  0.6 0.225 0  0.625 0.225 0  0.65 0.225 0  0.675 0.225 0  0.7 0.225 0  0.725 0.225 0  0.75 0.225 0  0.775 0.225 0  0.8 0.225 0  0.825 0.225 0  0.85 0.225 0  0.875 0.225 0  0.9 0.225 0  0.925 0.225 0  0.95 0.225 0  0.975 0.225 0  1 0.225 0  0 0.25 0  0.025 0.25 0  0.05 0.25 0  0.075 0.25 0  0.1 0.25 0  0.125 0.25 0  0.15 0.25 0  0.175 0.25 0  0.2 0.25 0  0.225 0.25 0  0.25 0.25 0  0.275 0.25 0  0.3 0.25 0  0.325 0.25 0  0.35 0.25 0  0.375 0.25 0  0.4 0.25 0  0.425 0.25 0  0.45 0.25 0  0.475 0.25 0  0.5 0.25 0  0.525 0.25 0  0.55 0.25 0  0.575 0.25 0  0.6 0.25 0  0.625 0.25 0  0.65 0.25 0  0.675 0.25 0  0.7 0.25 0  0.725 0.25 0  0.75 0.25 0  0.775 0.25 0  0.8 0.25 0  0.825 0.25 0  0.85 0.25 0  0.875 0.25 0  0.9 0.25 0  0.925 0.25 0  0.95 0.25 0  0.975 0.25 0  1 0.25 0  0 0.275 0  0.025 0.275 0  0.05 0.275 0  0.075 0.275 0  0.1 0.275 0  0.125 0.275 0  0.15 0.275 0  0.175 0.275 0  0.2 0.275 0  0.225 0.275 0  0.25 0.275 0  0.275 0.275 0  0.3 0.275 0  0.325 0.275 0  0.35 0.275 0  0.375 0.275 0  0.4 0.275 0  0.425 0.275 0  0.45 0.275 0  0.475 0.275 0  0.5 0.275 0  0.525 0.275 0  0.55 0.275 0  0.575 0.275 0  0.6 0.275 0  0.625 0.275 0  0.65 0.275 0  0.675 0.275 0  0.7 0.275 0  0.725 0.275 0  0.75 0.275 0  0.775 0.275 0  0.8 0.275 0  0.825 0.275 0  0.85 0.275 0  0.875 0.275 0  0.9 0.275 0  0.925 0.275 0  0.95 0.275 0  0.975 0.275 0  1 0.275 0  0 0.3 0  0.025 0.3 0  0.05 0.3 0  0.075 0.3 0  0.1 0.3 0  0.125 0.3 0  0.15 0.3 0  0.175 0.3 0  0.2 0.3 0  0.225 0.3 0  0.25 0.3 0  0.275 0.3 0  0.3 0.3 0  0.325 0.3 0  0.35 0.3 0  0.375 0.3 0  0.4 0.3 0  0.425 0.3 0  0.45 0.3 0  0.475 0.3 0  0.5 0.3 0  0.525 0.3 0  0.55 0.3 0  0.575 0.3 0  0.6 0.3 0  0.625 0.3 0  0.65 0.3 0  0.675 0.3 0  0.7 0.3 0  0.725 0.3 0  0.75 0.3 0  0.775 0.3 0  0.8 0.3 0  0.825 0.3 0  0.85 0.3 0  0.875 0.3 0  0.9 0.3 0  0.925 0.3 0  0.95 0.3 0  0.975 0.3 0  1 0.3 0  0 0.325 0  0.025 0.325 0  0.05 0.325 0  0.075 0.325 0  0.1 0.325 0  0.125 0.325 0  0.15 0.325 0  0.175 0.325 0  0.2 0.325 0  0.225 0.325 0  0.25 0.325 0  0.275 0.325 0  0.3 0.325 0  0.325 0.325 0  0.35 0.325 0  0.375 0.325 0  0.4 0.325 0  0.425 0.325 0  0.45 0.325 0  0.475 0.325 0  0.5 0.325 0  0.525 0.325 0  0.55 0.325 0  0.575 0.325 0  0.6 0.325 0  0.625 0.325 0  0.65 0.325 0  0.675 0.325 0  0.7 0.325 0  0.725 0.325 0  0.75 0.325 0  0.775 0.325 0  0.8 0.325 0  0.825 0.325 0  0.85 0.325 0  0.875 0.325 0  0.9 0.325 0  0.925 0.325 0  0.95 0.325 0  0.975 0.325 0  1 0.325 0  0 0.35 0  0.025 0.35 0  0.05 0.35 0  0.075 0.35 0  0.1 0.35 0  0.125 0.35 0  0.15 0.35 0  0.175 0.35 0  0.2 0.35 0  0.225 0.35 0  0.25 0.35 0  0.275 0.35 0  0.3 0.35 0  0.325 0.35 0  0.35 0.35 0  0.375 0.35 0  0.4 0.35 0  0.425 0.35 0  0.45 0.35 0  0.475 0.35 0  0.5 0.35 0  0.525 0.35 0  0.55 0.35 0  0.575 0.35 0  0.6 0.35 0  0.625 0.35 0  0.65 0.35 0  0.675 0.35 0  0.7 0.35 0  0.725 0.35 0  0.75 0.35 0  0.775 0.35 0  0.8 0.35 0  0.825 0.35 0  0.85 0.35 0  0.875 0.35 0  0.9 0.35 0  0.925 0.35 0  0.95 0.35 0  0.975 0.35 0  1 0.35 0  0 0.375 0  0.025 0.375 0  0.05 0.375 0  0.075 0.375 0  0.1 0.375 0  0.125 0.375 0  0.15 0.375 0  0.175 0.375 0  0.2 0.375 0  0.225 0.375 0  0.25 0.375 0  0.275 0.375 0  0.3 0.375 0  0.325 0.375 0  0.35 0.375 0  0.375 0.375 0  0.4 0.375 0  0.425 0.375 0  0.45 0.375 0  0.475 0.375 0  0.5 0.375 0  0.525 0.375 0  0.55 0.375 0  0.575 0.375 0  0.6 0.375 0  0.625 0.375 0  0.65 0.375 0  0.675 0.375 0  0.7 0.375 0  0.725 0.375 0  0.75 0.375 0  0.775 0.375 0  0.8 0.375 0  0.825 0.375 0  0.85 0.375 0  0.875 0.375 0  0.9 0.375 0  0.925 0.375 0  0.95 0.375 0  0.975 0.375 0  1 0.375 0  0 0.4 0  0.025 0.4 0  0.05 0.4 0  0.075 0.4 0  0.1 0.4 0  0.125 0.4 0  0.15 0.4 0  0.175 0.4 0  0.2 0.4 0  0.225 0.4 0  0.25 0.4 0  0.275 0.4 0  0.3 0.4 0  0.325 0.4 0  0.35 0.4 0  0.375 0.4 0  0.4 0.4 0  0.425 0.4 0  0.45 0.4 0  0.475 0.4 0  0.5 0.4 0  0.525 0.4 0  0.55 0.4 0  0.575 0.4 0  0.6 0.4 0  0.625 0.4 0  0.65 0.4 0  0.675 0.4 0  0.7 0.4 0  0.725 0.4 0  0.75 0.4 0  0.775 0.4 0  0.8 0.4 0  0.825 0.4 0  0.85 0.4 0  0.875 0.4 0  0.9 0.4 0  0.925 0.4 0  0.95 0.4 0  0.975 0.4 0  1 0.4 0  0 0.425 0  0.025 0.425 0  0.05 0.425 0  0.075 0.425 0  0.1 0.425 0  0.125 0.425 0  0.15 0.425 0  0.175 0.425 0  0.2 0.425 0  0.225 0.425 0  0.25 0.425 0  0.275 0.425 0  0.3 0.425 0  0.325 0.425 0  0.35 0.425 0  0.375 0.425 0  0.4 0.425 0  0.425 0.425 0  0.45 0.425 0  0.475 0.425 0  0.5 0.425 0  0.525 0.425 0  0.55 0.425 0  0.575 0.425 0  0.6 0.425 0  0.625 0.425 0  0.65 0.425 0  0.675 0.425 0  0.7 0.425 0  0.725 0.425 0  0.75 0.425 0  0.775 0.425 0  0.8 0.425 0  0.825 0.425 0  0.85 0.425 0  0.875 0.425 0  0.9 0.425 0  0.925 0.425 0  0.95 0.425 0  0.975 0.425 0  1 0.425 0  0 0.45 0  0.02
[...]
<PointData  Scalars="ControlVisualisation"> 
<DataArray  type="Float64"  Name="ControlVisualisation"  format="ascii">4.3170364285946700e-03  2.8812308295616033e-03  2.8813465709346783e-03  2.8815435366636539e-03  2.8818214701320940e-03  2.8821809475670164e-03  2.8826223736522867e-03  2.8831460863900558e-03  2.8837522870118195e-03  2.8844409777948302e-03  2.8852119201556326e-03  2.8860645971896274e-03  2.8869981725277161e-03  2.8880114291742849e-03  2.8891026656703302e-03  2.8902695206966976e-03  2.8915086904266326e-03  2.8928154951446241e-03  2.8941832424189836e-03  2.8956023231138392e-03  2.8970589645217382e-03  2.8985335562971034e-03  2.8999984710169559e-03  2.9014153252588360e-03  2.9027317548220035e-03  2.9038781188093282e-03  2.9047645820152006e-03  2.9052802131111798e-03  2.9052977692213024e-03  2.9046851267809496e-03  2.9033268379077448e-03  2.9011582984381943e-03  2.8982031327253843e-03  2.8946179653857964e-03  2.8907267176588171e-03  2.8870431605341395e-03  2.8841324477136762e-03  2.8823148265800830e-03  2.8814807382176845e-03  2.8812225649671500e-03  8.6118421077794865e-03  2.8812308095335403e-03  1.4424344421177444e-03  1.4425483338578295e-03  1.4427518958267805e-03  1.4430477362222765e-03  1.4434364220087506e-03  1.4439184717160694e-03  1.4444944118042313e-03  1.4451646397552786e-03  1.4459293651288931e-03  1.4467885599354364e-03  1.4477419169412413e-03  1.4487888076631262e-03  1.4499282222333375e-03  1.4511586667339180e-03  1.4524779863157482e-03  1.4538830746425120e-03  1.4553694213920460e-03  1.4569304391634660e-03  1.4585564986379022e-03  1.4602335867029438e-03  1.4619414904496132e-03  1.4636514057413356e-03  1.4653228932512787e-03  1.4669002466069618e-03  1.4683084700744418e-03  1.4694494110233625e-03  1.4702006451395783e-03  1.4704182368336083e-03  1.4699460895056921e-03  1.4686415689944725e-03  1.4664135867988467e-03  1.4632641765442238e-03  1.4593360173956922e-03  1.4549196690906252e-03  1.4505215124681957e-03  1.4467965891420233e-03  1.4442708196674430e-03  1.4429770256551872e-03  1.4425071170744452e-03  2.8812164866956966e-03  2.8813463373415721e-03  1.4425481637746060e-03  1.4426903112665849e-03  1.4429220896425390e-03  1.4432595880528839e-03  1.4437039302549724e-03  1.4442558166093654e-03  1.4449158972810927e-03  1.4456846741587484e-03  1.4465624399448952e-03  1.4475492223547102e-03  1.4486447474727350e-03  1.4498484076108373e-03  1.4511592134908806e-03  1.4525757031542037e-03  1.4540957720088660e-03  1.4557163802821965e-03  1.4574330851442495e-03  1.4592393342425923e-03  1.4611254445282260e-03  1.4630771751212607e-03  1.4650737857850478e-03  1.4670854552692506e-03  1.4690699677221723e-03  1.4709686198294751e-03  1.4727012376988726e-03  1.4741619010464977e-03  1.4752163796637257e-03  1.4756972144710828e-03  1.4754208831662310e-03  1.4742184421507013e-03  1.4719672031859379e-03  1.4686496415315846e-03  1.4644043512274908e-03  1.4594494798294950e-03  1.4541561890684415e-03  1.4492728404260202e-03  1.4456582143771426e-03  1.4435473830577250e-03  1.4426606108472130e-03  2.8813029342554626e-03  2.8815424225994740e-03  1.4427509465801574e-03  1.4429212339001586e-03  1.4431558258270920e-03  1.4434958416245332e-03  1.4439435557662098e-03  1.4444998195512315e-03  1.4451653094040651e-03  1.4459405399800803e-03  1.4468257953964537e-03  1.4478210872171350e-03  1.4489261396931825e-03  1.4501403878064889e-03  1.4514629687379411e-03  1.4528926791768522e-03  1.4544278640815714e-03  1.4560661959107557e-03  1.4578042966136644e-03  1.4596371472737496e-03  1.4615572214146959e-03  1.4635532668202526e-03  1.4656086399402206e-03  1.4676990823649313e-03  1.4697898120497683e-03  1.4718316142789461e-03  1.4737562618332986e-03  1.4754724873694582e-03  1.4768541623474683e-03  1.4777421788775928e-03  1.4779793767802291e-03  1.4773419786272095e-03  1.4756347384234651e-03  1.4728299275401716e-03  1.4691306243129058e-03  1.4650946987792284e-03  1.4600904840537906e-03  1.4543105977579387e-03  1.4488115340845196e-03  1.4448379963702687e-03  1.4426267465837647e-03  2.8812259569369015e-03  2.8818179990557405e-03  1.4430445767971338e-03  1.4432562900963568e-03  1.4434934236197865e-03  1.4438342757507915e-03  1.4442830747520804e-03  1.4448408314257863e-03  1.4455082480161587e-03  1.4462858324660809e-03  1.4471738292675508e-03  1.4481721998894088e-03  1.4492806400499495e-03  1.4504986230082098e-03  1.4518254485302467e-03  1.4532602701554397e-03  1.4548020681546996e-03  1.4564495312286629e-03  1.4582008064733503e-03  1.4600530745582860e-03  1.4620019056882326e-03  1.4640403500248503e-03  1.4661577052535494e-03  1.4683379018387620e-03  1.4705572704160029e-03  1.4727815549046446e-03  1.4749628057224068e-03  1.4770311703497534e-03  1.4788845047503257e-03  1.4804334462476595e-03  1.4814572946642455e-03  1.4815848601685768e-03  1.4809161280233982e-03  1.4795718094319818e-03  1.4777550483486112e-03  1.4789386261291476e-03  1.4783051793770124e-03  1.4712575684109382e-03  1.4601441137578445e-03  1.4514283064589522e-03  1.4473859453948512e-03  2.8812005614452293e-03  2.8821724700525846e-03  1.4434284051430277e-03  1.4436952679407992e-03  1.4439358962788317e-03  1.4442779800687494e-03  1.4447283729256896e-03  1.4452882514442611e-03  1.4459583284447621e-03  1.4467390664756601e-03  1.4476306200357661e-03  1.4486328445402989e-03  1.4497453577228738e-03  1.4509676434050415e-03  1.4522991753055043e-03  1.4537395335222300e-03  1.4552884829552163e-03  1.4569459811756074e-03  1.4587120834284671e-03  1.4605867154361457e-03  1.4625692954709963e-03  1.4646582004013023e-03  1.4668500994518469e-03  1.4691391621037368e-03  1.4715159700393844e-03  1.4739666904136813e-03  1.4764698168163921e-03  1.4789888777468664e-03  1.4814968400454829e-03  1.4839328129588592e-03  1.4859114885004872e-03  1.4882822989029437e-03  1.4910191171481032e-03  1.4946647499770856e-03  1.5093638665143771e-03  1.5907979640704085e-03  1.6867502814057848e-03  1.7238273279855205e-03  1.7223952899605845e-03  1.5883635614202135e-03  1.5168897223970437e-03  2.9714755365685807e-03  2.8826046356479128e-03  1.4439012795156108e-03  1.4442370652313818e-03  1.4444824555724326e-03  1.4448265707767631e-03  1.4452795440758686e-03  1.4458427255339698e-03  1.4465167893050587e-03  1.4473020784395569e-03  1.4481985693163672e-03  1.4492059184419098e-03  1.4503235820862795e-03  1.4515509961937375e-03  1.4528877916122982e-03  1.4543340166753660e-03  1.4558903380881853e-03  1.4575581925394745e-03  1.4593398647389747e-03  1.4612384739173842e-03  1.4632578759413053e-03  1.4654025156045772e-03  1.4676773993112352e-03  1.4700882827995924e-03  1.4726425811923316e-03  1.4753508237496499e-03  1.4782238471550413e-03  1.4812896666779381e-03  1.4845952134421316e-03  1.4880714865907569e-03  1.4924434987547467e-03  1.5002420515230815e-03  1.5199418965039697e-03  1.6464936755588577e-03  1.9383141992448210e-03  3.1015708996368786e-03  3.7442701748975932e-02  1.8544673871726877e-01  2.4511238485235393e-01  1.3958713169961676e-01  2.6157736212975720e-03  3.1031917685085458e-03  2.8831126543038023e-03  1.4444614684096324e-03  1.4448799482006977e-03  1.4451317091787798e-03  1.4454791389004822e-03  1.4459362579908048e-03  1.4465045489763326e-03  1.4471845441233278e-03  1.4479763381095077e-03  1.4488795861939013e-03  1.4498936031600912e-03  1.4510175574613284e-03  1.4522507432317491e-03  1.4535929019283929e-03  1.4550445641303392e-03  1.4566073845804566e-03  1.4582844502803694e-03  1.4600805411479957e-03  1.4620023280880589e-03  1.4640585302911925e-03  1.4662600918185034e-03  1.4686207415025669e-03  1.4711581120912594e-03  1.4738974491748426e-03  1.4768744434291146e-03  1.4801467431497354e-03  1.4838241384076609e-03  1.4880042660609138e-03  1.4933959533087666e-03  1.5032467893450799e-03  1.5642070288463990e-03  1.8091832258196490e-03  3.1076141434736803e-03  1.3452867218961026e-01  5.8068071401545707e-01  9.8594691593196382e-01  9.9719719945518215e-01  9.9834252261109524e-01  9.9867901888357502e-01  9.9854660848444321e-01  9.4855727973781934e-01  2.8836937090917516e-03  1.4451062718310521e-03  1.4456212208123586e-03  1.4458815310888112e-03  1.4462343391679672e-03  1.4466980775295196e-03  1.4472742396449780e-03  1.4479630272075227e-03  1.4487640724632324e-03  1.4496764890900246e-03  1.4506990431510608e-03  1.4518304396045529e-03  1.4530697010630641e-03  1.4544166081020805e-03  1.4558721670499594e-03  1.4574390841151823e-03  1.4591222337946208e-03  1.4609291064909455e-03  1.4628702290164987e-03  1.4649595398887364e-03  1.4672147577919523e-03  1.4696579605394174e-03  1.4723172857914542e-03  1.4752336889341858e-03  1.4784682977773051e-03  1.4821489241847216e-03  1.4864665214543553e-03  1.4920607654561036e-03  1.5023387606477156e-03  1.5867120695748781e-03  1.9775268647279614e-03  8.0996425063229807e-03  4.1637924237615825e-01  9.9092653335473491e-01  9.9828758153137598e-01  9.9908731169373122e-01  9.9941775636597807e-01  9.9960191105984797e-01  9.9971226385269796e-01  9.9978038368632749e-01  9.9950114290955583e-01  2.8843434944997343e-03  1.4458315240089008e-03  1.4464567506766398e-03  1.4467287188431111e-03  1.4470902228396255e-03  1.4475644869365787e-03  1.4481527538676155e-03  1.4488545654958382e-03  1.4496687489957188e-03  1.4505935505628124e-03  1.4516269043335537e-03  1.4527668271667644e-03  1.4540119140582781e-03  1.4553619020095561e-03  1.4568182618584832e-03  1.4583848024787727e-03  1.4600682869970879e-03  1.4618791309176516e-03  1.4638320727316074e-03  1.4659465843902559e-03  1.4682474799256563e-03  1.4707642071074428e-03  1.4735342507257703e-03  1.4766067425449748e-03  1.4800696582430372e-03  1.4841517147706922e-03  1.4894024346627406e-03  1.4989015212413064e-03  1.5840559342664977e-03  2.0469684001386008e-03  1.9504026122465701e-02  6.1537328793223445e-01  9.9680110020749135e-01  9.9884893457903290e-01  9.9936405661076133e-01  9.9959643898163109e-01  9.9972005450594481e-01  9.9979988919264706e-01  9.9985561513721721e-01  9.9989120806401188e-01  9.9979320465589516e-01  2.8850554371738046e-03  1.4466308223672884e-03  1.4473802334564938e-03  1.4476684984275198e-03  1.4480440444202209e-03  1.4485350083721738e-03  1.4491418802132239e-03  1.4498629876014764e-03  1.4506958209955928e-03  1.4516372969040365e-03  1.4526841541723783e-03  1.4538334652342856e-03  1.4550832381375006e-03  1.4564330920533732e-03  1.4578850045842604e-03  1.4594439698461953e-03  1.4611187134536804e-03  1.4629227381779016e-03  1.4648751371314505e-03  1.4670012175616630e-03  1.4693354316943621e-03  1.4719152612591064e-03  1.4747880617445518e-03  1.4779842125457539e-03  1.4816543959651693e-03  1.4863048198908593e-03  1.4941235230610625e-03  1.5663946564080911e-03  2.0013146873131462e-03  1.9358758158332930e-02  6.6690558760137231e-01  9.9731946212798350e-01  9.9899155572789311e-01  9.9944106679498190e-01  9.9963390335590163e-01  9.9973620762039772e-01  9.9980240186655467e-01  9.9985088505867181e-01  9.9988740541508048e-01  9.9991190284520226e-01  9.9984189102410537e-01  2.8858194824181948e-03  1.4474943348468377e-03  1.4483820877756238e-03  1.4486938254073508e-03  1.4490920565934668e-03  1.4496094898418829e-03  1.4502449490630309e-03  1.4509946356387454e-03  1.4518539034911345e-03  1.4528177099284412e-03  1.4538811775835975e-03  1.4550402296827553e-03  1.4562921674062710e-03  1.4576364625190699e-03  1.4590758102416021e-03  1.4606164306705978e-03  1.4622688866549733e-03  1.4640495698986524e-03  1.4659831569678906e-03  1.4681022956417355e-03  1.4704537469151517e-03  1.4730821886126033e-03  1.4760566147310268e-03  1.4794124955557165e-03  1.4835615969742842e-03  1.4898637366523929e-03  1.5437095388158796e-03  1.9103984848357364e-03  1.0494715366348616e-02  6.1147760989859645e-01  9.9713705136551734e-01  9.9897604139103058e-01  9.9944032617278056e-01  9.9962845279760115e-01  9.9972371592341625e-01  9.9978188662074818e-01  9.9982269503080268e-01  9.9985429776124091e-01  9.9987950780772283e-01  9.9989740121871251e-01  9.9982155693355335e-01  2.8866201966158498e-03  1.4484069516669208e-03  1.4494477942165016e-03  1.4497944243429804e-03  1.4502293730588544e-03  1.4507887496227386e-03  1.4514680948463862e-03  1.4522600291183452e-03  1.4531566320919917e-03  1.4541500696016896e-03  1.4552334759329315e-03  1.4564016399374621e-03  1.4576510357047618e-03  1.4589809193323205e-03  1.4603950728968333e-03  1.4619019302353588e-03  1.4635143304402463e-03  1.4652501538696587e-03  1.4671430719118833e-03  1.4692226396562467e-03  1.4715435776422607e-03  1.4742281943353156e-03  1.4774269656394306e-03  1.4814831572513281e-03  1.4871525105547801e-03  1.5299035714167802e-03  1.8381127108995988e-03  6.0433093583542119e-03  5.1073714539729509e-01  9.9645857507107127e-01  9.9887178014793343e-01  9.9939872534149565e-01  9.9960235505972539e-01  9.9969971754398124e-01  9.9975433663889779e-01  9.9978774213915067e-01  9.9980885467191449e-01  9.9982128864285613e-01  9.9982540777292317e-01  9.9981705697857948e-01  9.9967674436926257e-01  2.8874337921308817e-03  1.4493454107885561e-03  1.4505554040433947e-03  1.4509555142677986e-03  1.4514500860363115e-03  1.4520759730283566e-03  1.4528226069383660e-03  1.4536767866441826e-03  1.4546257267994999e-03  1.4556576638336473e-03  1.4567635723536877e-03  1.4579377877360416e-03  1.4591769671692993e-03  1.4604794989880488e-03  1.4618505336912618e-03  1.4633071274873925e-03  1.4648569452817783e-03  1.4665068929088866e-03  1.4683160381187309e-03  1.4703259786435152e-03  1.4726074966062547e-03  1.4755826747393792e-03  1.4791959428756259e-03  1.4863583057900399e-03  1.5319876168732134e-03  1.8201724542499477e-03  4.7078581422402618e-03  4.2312980092818903e-01  9.9515478277912484e-01  9.9870358810271920e-01  9.9932916945113892e-01  9.9956290845993256e-01  9.9966948198155914e-01  9.9972540174435665e-01  9.9975489659219652e-01  9.9976660888851199e-01  9.9976149177549822e-01  9.9973169147496321e-01  9.9964699350131725e-01  9.9937844833811429e-01  9.9821299015606080e-01  2.8882233940568823e-03  1.4502738014228519e-03  1.4516718880938468e-03  1.4521564230338213e-03  1.4527483282031314e-03  1.4534797377541105e-03  1.4543289579647192e-03  1.4552736726340491e-03  1.4562946583970087e-03  1.4573757694946144e-03  1.4585048827731994e-03  1.4596795074997455e-03  1.4609016755867013e-03  1.4621554557901616e-03  1.4634438213615773e-03  1.4648190904106486e-03  1.4662763629091609e-03  1.4678219639052044e-03  1.4695822052848443e-03  1.4717723452960345e-03  1.4738707163027358e-03  1.4776920557617271e-03  1.4860555880534347e-03  1.5714071283802723e-03  1.8996261745992571e-03  5.1067148863036677e-03  3.9633370457658118e-01  9.9358040686377502e-01  9.9851515095640697e-01  9.9924463428512045e-01  9.9951482394533930e-01  9.9963483570689537e-01  9.9969597152686207e-01  9.9972595909409467e-01  9.9973380863191164e-01  9.9971872350666224e-01  9.9966678658800556e-01  9.9952171193281891e-01  9.9906540101151231e-01  9.2171373153835612e-01  5.1142836669934308e-03  2.8889317304426213e-03  1.4511367735140384e-03  1.4527480811788735e-03  1.4533692257388050e-03  1.4541204494774704e-03  1.4550192026244909e-03  1.4560246044092334e-03  1.4571002634011141e-03  1.4582213122367909e-03  1.4593662352590474e-03  1.4605042225779739e-03  1.4616534466325580e-03  1.4628436084911680e-03  1.4640216362194862e-03  1.4651868346484459e-03  1.4665147423933425e-03  1.4680880624910804e-03  1.4696184992171151e-03  1.4710387402712291e-03  1.4745759887602721e-03  1.4791112987707483e-03  1.5152167779189120e-03  1.6603083298565417e-03  2.1819888535199589e-03  1.6598816954721436e-02  4.8268761275328287e-01  9.9380697375195115e-01  9.9841296614778219e-01  9.9917313488117232e-01  9.9946688776989834e-01  9.9959838414975388e-01  9.9966576239354721e-01  9.9969900482403895e-01  9.9970785218741332e-01  9.9969154719519571e-01  9.9963610574531625e-01  9.9948835759699384e-01  9.9904030062631100e-01  9.9494492205506568e-01  5.1405407384658944e-02  3.2366169213429476e-03  2.8894695278832887e-03  1.4518486321932992e-03  1.4537111947234549e-03  1.4545593683696506e-03  1.4555757264693716e-03  1.4567434931357392e-03  1.4579847094381730e-03  1.4592319316006120e-03  1.4604720121897843e-03  1.4616911723177846e-03  1.4628131370805686e-03  1.4639217511026581e-03  1.4651835456260596e-03  1.4665220863539841e-03  1.4674297750189675e-03  1.4684807338052950e-03  1.4710193142987123e-03  1.4739408645431786e-03  1.4816776271325660e-03  1.5348601395745135e-03  1.6631287302971830e-03  1.9632209543030289e-03  3.9636155256327346e-03  1.5796171361292927e-01  7.1791084711280129e-01  9.9606943462205388e-01  9.9851779609213898e-01  9.9916010246311460e-01  9.9943660406716761e-01  9.9956735597993007e-01  9.9963676348202912e-01  9.9967249392662505e-01  9.9968399636100524e-01  9.9967106765305047e-01  9.9962217356812932e-01  9.9949650182268779e-01  9.9912807066516951e-01  9.9756844832285285e-01  4.6192263783699561e-01  2.4302987705812182e-03  3.1903941490376967e-03  2.8896973074720991e-03  1.4522799075603607e-03  1.4544632320719452e-03  1.4556981350223443e-03  1.4571490127018795e-03  1.4587254484171516e-03  1.4603106022843635e-03  1.4617850110670925e-03  1.4632262279192451e-03  1.4647193101113977e-03  1.4659839592524333e-03  1.4666506093038551e-03  1.4680355950607558e-03  1.4706343746830738e-03  1.4723106222911118e-03  1.4803249021908839e-03  1.5199560578395275e-03  1.6214710873153828e-03  1.7700498379378000e-03  2.2123597403225044e-03  5.7249968959546208e-03  1.6458906421434258e-01  5.5318865531323214e-01  9.8903362814484941e-01  9.9774080089755268e-01  9.9880409511036250e-01  9.9923472899278454e-01  9.9944535539638280e-01  9.9955500990406410e-01  9.9961634258994236e-01  9.9964906799909359e-01  9.9966044069373128e-01  9.9965029686171214e-01  9.9960961116230429e-01  9.9950858426610933e-01  9.9923496466950967e-01  9.9830313806882420e-01  8.7775860563326369e-01  2.8931340663087442e-02  1.7292273262544354e-03  2.9203814275952224e-03  2.8894119568221256e-03  1.4522410843919604e-03  1.4548668487779251e-03  1.4567556256346130e-03  1.4589406930939929e-03  1.4612310106537425e-03  1.4635248011337105e-03  1.4653367368701851e-03  1.4665975149934713e-03  1.4685930340865754e-03  1.4710197207958380e-03  1.4723127600723999e-03  1.4867668902156762e-03  1.5408861070240697e-03  1.6432026679568819e-03  1.7833462594839475e-03  2.1822950323753289e-03  4.2379198889870321e-03  7.7620577102829533e-02  3.3257415064981055e-01  7.0089771118030908e-01  9.9250248524327755e-01  9.9775253667452901e-01  9.9869515107319651e-01  9.9912740451005710e-01  9.9936999827421646e-01  9.9949917972793423e-01  9.9957341437686009e-01  9.9961620341999069e-01  9.9963790830430976e-01  9.9964251067018117e-01  9.9962934145770932e-01  9.9959140670215096e-01  9.9950708323014215e-01  9.9930399400187364e-01  9.9869455370306304e-01  9.9420121164709774e-01  2.7526582418205547e-01  2.3243345954877676e-03  1.5603914904698162e-03  2.9112321567045063e-03  2.8882998059963061e-03  1.4514591161469217e-03  1.4548284957830900e-03  1.4579785914665966e-03  1.4614706550112120e-03  1.4646280003394970e-03  1.4676791506872491e-03  1.4703296878837248e-03  1.4731410867054599e-03  1.4941252033247848e-03  1.5694502936894603e-03  1.6770198820853898e-03  1.8475975361397813e-03  2.4297320074422517e-03  6.2877206889758279e-03  1.1217493730303624e-01  3.4581688395132615e-01  6.5828128376151984e-01  9.8575828113931552e-01  9.9701640065820418e-01  9.9838430658895128e-01  9.9890557650374701e-01  9.9921093153360752e-01  9.9940006766068878e-01  9.9951105342597546e-01  9.9957912413163708e-01  9.9962030220483500e-01  9.9964260991843956e-01  9.9964981337824399e-01  9.9964283590574676e-01  9.9961984480100630e-01  9.9957473527239893e-01  9.9949137869098170e-01  9.9932079595402490e-01  9.9886438276681921e-01  9.9711515569316689e-01  6.2138102618279023e-01  6.4311602911869565e-03  1.7169534028832515e-03  1.4813902805476712e-03  2.9076731410881003e-03  2.8861134305925525e-03  1.4497851702138010e-03  1.4545367105039183e-03  1.4595342468595091e-03  1.4647529317967465e-03  1.4704587408985255e-03  1.4864900730182352e-03  1.5617952231130497e-03  1.677972091