<?xml version="1.0"?>
<VTKFile type="UnstructuredGrid"  version="0.1"  >
<UnstructuredGrid>
<Piece  NumberOfPoints="1681" NumberOfCells="3200">
<Points>
<DataArray  type="Float64"  NumberOfComponents="3"  format="ascii">0 0 0  0.025 0 0  0.05 0 0  0.075 0 0  0.1 0 0  0.125 0 0  0.15 0 0  0.175 0 0  0.2 0 0  0.225 0 0  0.25 0 0  0.275 0 0  0.3 0 0  0.325 0 0  0.35 0 0  0.375 0 0  0.4 0 0  0.425 0 0  0.45 0 0  0.475 0 0  0.5 0 0  0.525 0 0  0.55 0 0  0.575 0 0  0.6 0 0  0.625 0 0  0.65 0 0  0.675 0 0  0.7 0 0  0.725 0 0  0.75 0 0  0.775 0 0  0.8 0 0  0.825 0 0  0.85 0 0  0.875 0 0  0.9 0 0  0.925 0 0  0.95 0 0  0.975 0 0  1 0 0  0 0.025 0  0.025 0.025 0  0.05 0.025 0  0.075 0.025 0  0.1 0.025 0  0.125 0.025 0  0.15 0.025 0  0.175 0.025 0  0.2 0.025 0  0.225 0.025 0  0.25 0.025 0  0.275 0.025 0  0.3 0.025 0  0.325 0.025 0  0.35 0.025 0  0.375 0.025 0  0.4 0.025 0  0.425 0.025 0  0.45 0.025 0  0.475 0.025 0  0.5 0.025 0  0.525 0.025 0  0.55 0.025 0  0.575 0.025 0  0.6 0.025 0  0.625 0.025 0  0.65 0.025 0  0.675 0.025 0  0.7 0.025 0  0.725 0.025 0  0.75 0.025 0  0.775 0.025 0  0.8 0.025 0  0.825 0.025 0  0.85 0.025 0  0.875 0.025 0  0.9 0.025 0  0.925 0.025 0  0.95 0.025 0  0.975 0.025 0  1 0.025 0  0 0.05 0  0.025 0.05 0  0.05 0.05 0  0.075 0.05 0  0.1 0.05 0  0.125 0.05 0  0.15 0.05 0  0.175 0.05 0  0.2 0.05 0  0.225 0.05 0  0.25 0.05 0  0.275 0.05 0  0.3 0.05 0  0.325 0.05 0  0.35 0.05 0  0.375 0.05 0  0.4 0.05 0  0.425 0.05 0  0.45 0.05 0  0.475 0.05 0  0.5 0.05 0  0.525 0.05 0  0.55 0.05 0  0.575 0.05 0  0.6 0.05 0  0.625 0.05 0  0.65 0.05 0  0.675 0.05 0  0.7 0.05 0  0.725 0.05 0  0.75 0.05 0  0.775 0.05 0  0.8 0.05 0  0.825 0.05 0  0.85 0.05 0  0.875 0.05 0  0.9 0.05 0  0.925 0.05 0  0.95 0.05 0  0.975 0.05 0  1 0.05 0  0 0.075 0  0.025 0.075 0  0.05 0.075 0  0.075 0.075 0  0.1 0.075 0  0.125 0.075 0  0.15 0.075 0  0.175 0.075 0  0.2 0.075 0  0.225 0.075 0  0.25 0.075 0  0.275 0.075 0  0.3 0.075 0  0.325 0.075 0  0.35 0.075 0  0.375 0.075 0  0.4 0.075 0  0.425 0.075 0  0.45 0.075 0  0.475 0.075 0  0.5 0.075 0  0.525 0.075 0  0.55 0.075 0  0.575 0.075 0  0.6 0.075 0  0.625 0.075 0  0.65 0.075 0  0.675 0.075 0  0.7 0.075 0  0.725 0.075 0  0.75 0.075 0  0.775 0.075 0  0.8 0.075 0  0.825 0.075 0  0.85 0.075 0  0.875 0.075 0  0.9 0.075 0  0.925 0.075 0  0.95 0.075 0  0.975 0.075 0  1 0.075 0  0 0.1 0  0.025 0.1 0  0.05 0.1 0  0.075 0.1 0  0.1 0.1 0  0.125 0.1 0  0.15 0.1 0  0.175 0.1 0  0.2 0.1 0  0.225 0.1 0  0.25 0.1 0  0.275 0.1 0  0.3 0.1 0  0.325 0.1 0  0.35 0.1 0  0.375 0.1 0  0.4 0.1 0  0.425 0.1 0  0.45 0.1 0  0.475 0.1 0  0.5 0.1 0  0.525 0.1 0  0.55 0.1 0  0.575 0.1 0  0.6 0.1 0  0.625 0.1 0  0.65 0.1 0  0.675 0.1 0  0.7 0.1 0  0.725 0.1 0  0.75 0.1 0  0.775 0.1 0  0.8 0.1 0  0.825 0.1 0  0.85 0.1 0  0.875 0.1 0  0.9 0.1 0  0.925 0.1 0  0.95 0.1 0  0.975 0.1 0  1 0.1 0  0 0.125 0  0.025 0.125 0  0.05 0.125 0  0.075 0.125 0  0.1 0.125 0  0.125 0.125 0  0.15 0.125 0  0.175 0.125 0  0.2 0.125 0  0.225 0.125 0  0.25 0.125 0  0.275 0.125 0  0.3 0.125 0  0.325 0.125 0  0.35 0.125 0  0.375 0.125 0  0.4 0.125 0  0.425 0.125 0  0.45 0.125 0  0.475 0.125 0  0.5 0.125 0  0.525 0.125 0  0.55 0.125 0  0.575 0.125 0  0.6 0.125 0  0.625 0.125 0  0.65 0.125 0  0.675 0.125 0  0.7 0.125 0  0.725 0.125 0  0.75 0.125 0  0.775 0.125 0  0.8 0.125 0  0.825 0.125 0  0.85 0.125 0  0.875 0.125 0  0.9 0.125 0  0.925 0.125 0  0.95 0.125 0  0.975 0.125 0  1 0.125 0  0 0.15 0  0.025 0.15 0  0.05 0.15 0  0.075 0.15 0  0.1 0.15 0  0.125 0.15 0  0.15 0.15 0  0.175 0.15 0  0.2 0.15 0  0.225 0.15 0  0.25 0.15 0  0.275 0.15 0  0.3 0.15 0  0.325 0.15 0  0.35 0.15 0  0.375 0.15 0  0.4 0.15 0  0.425 0.15 0  0.45 0.15 0  0.475 0.15 0  0.5 0.15 0  0.525 0.15 0  0.55 0.15 0  0.575 0.15 0  0.6 0.15 0  0.625 0.15 0  0.65 0.15 0  0.675 0.15 0  0.7 0.15 0  0.725 0.15 0  0.75 0.15 0  0.775 0.15 0  0.8 0.15 0  0.825 0.15 0  0.85 0.15 0  0.875 0.15 0  0.9 0.15 0  0.925 0.15 0  0.95 0.15 0  0.975 0.15 0  1 0.15 0  0 0.175 0  0.025 0.175 0  0.05 0.175 0  0.075 0.175 0  0.1 0.175 0  0.125 0.175 0  0.15 0.175 0  0.175 0.175 0  0.2 0.175 0  0.225 0.175 0  0.25 0.175 0  0.275 0.175 0  0.3 0.175 0  0.325 0.175 0  0.35 0.175 0  0.375 0.175 0  0.4 0.175 0  0.425 0.175 0  0.45 0.175 0  0.475 0.175 0  0.5 0.175 0  0.525 0.175 0  0.55 0.175 0  0.575 0.175 0  0.6 0.175 0  0.625 0.175 0  0.65 0.175 0  0.675 0.175 0  0.7 0.175 0  0.725 0.175 0  0.75 0.175 0  0.775 0.175 0  0.8 0.175 0  0.825 0.175 0  0.85 0.175 0  0.875 0.175 0  0.9 0.175 0  0.925 0.175 0  0.95 0.175 0  0.975 0.175 0  1 0.175 0  0 0.2 0  0.025 0.2 0  0.05 0.2 0  0.075 0.2 0  0.1 0.2 0  0.125 0.2 0  0.15 0.2 0  0.175 0.2 0  0.2 0.2 0  0.225 0.2 0  0.25 0.2 0  0.275 0.2 0  0.3 0.2 0  0.325 0.2 0  0.35 0.2 0  0.375 0.2 0  0.4 0.2 0  0.425 0.2 0  0.45 0.2 0  0.475 0.2 0  0.5 0.2 0  0.525 0.2 0  0.55 0.2 0  0.575 0.2 0  0.6 0.2 0  0.625 0.2 0  0.65 0.2 0  0.675 0.2 0  0.7 0.2 0  0.725 0.2 0  0.75 0.2 0  0.775 0.2 0  0.8 0.2 0  0.825 0.2 0  0.85 0.2 0  0.875 0.2 0  0.9 0.2 0  0.925 0.2 0  0.95 0.2 0  0.975 0.2 0  1 0.2 0  0 0.225 0  0.025 0.225 0  0.05 0.225 0  0.075 0.225 0  0.1 0.225 0  0.125 0.225 0  0.15 0.225 0  0.175 0.225 0  0.2 0.225 0  0.225 0.225 0  0.25 0.225 0  0.275 0.225 0  0.3 0.225 0  0.325 0.225 0  0.35 0.225 0  0.375 0.225 0  0.4 0.225 0  0.425 0.225 0  0.45 0.225 0  0.475 0.225 0  0.5 0.225 0  0.525 0.225 0  0.55 0.225 0  0.575 0.225 0  0.6 0.225 0  0.625 0.225 0  0.65 0.225 0  0.675 0.225 0  0.7 0.225 0  0.725 0.225 0  0.75 0.225 0  0.775 0.225 0  0.8 0.225 0  0.825 0.225 0  0.85 0.225 0  0.875 0.225 0  0.9 0.225 0  0.925 0.225 0  0.95 0.225 0  0.975 0.225 0  1 0.225 0  0 0.25 0  0.025 0.25 0  0.05 0.25 0  0.075 0.25 0  0.1 0.25 0  0.125 0.25 0  0.15 0.25 0  0.175 0.25 0  0.2 0.25 0  0.225 0.25 0  0.25 0.25 0  0.275 0.25 0  0.3 0.25 0  0.325 0.25 0  0.35 0.25 0  0.375 0.25 0  0.4 0.25 0  0.425 0.25 0  0.45 0.25 0  0.475 0.25 0  0.5 0.25 0  0.525 0.25 0  0.55 0.25 0  0.575 0.25 0  0.6 0.25 0  0.625 0.25 0  0.65 0.25 0  0.675 0.25 0  0.7 0.25 0  0.725 0.25 0  0.75 0.25 0  0.775 0.25 0  0.8 0.25 0  0.825 0.25 0  0.85 0.25 0  0.875 0.25 0  0.9 0.25 0  0.925 0.25 0  0.95 0.25 0  0.975 0.25 0  1 0.25 0  0 0.275 0  0.025 0.275 0  0.05 0.275 0  0.075 0.275 0  0.1 0.275 0  0.125 0.275 0  0.15 0.275 0  0.175 0.275 0  0.2 0.275 0  0.225 0.275 0  0.25 0.275 0  0.275 0.275 0  0.3 0.275 0  0.325 0.275 0  0.35 0.275 0  0.375 0.275 0  0.4 0.275 0  0.425 0.275 0  0.45 0.275 0  0.475 0.275 0  0.5 0.275 0  0.525 0.275 0  0.55 0.275 0  0.575 0.275 0  0.6 0.275 0  0.625 0.275 0  0.65 0.275 0  0.675 0.275 0  0.7 0.275 0  0.725 0.275 0  0.75 0.275 0  0.775 0.275 0  0.8 0.275 0  0.825 0.275 0  0.85 0.275 0  0.875 0.275 0  0.9 0.275 0  0.925 0.275 0  0.95 0.275 0  0.975 0.275 0  1 0.275 0  0 0.3 0  0.025 0.3 0  0.05 0.3 0  0.075 0.3 0  0.1 0.3 0  0.125 0.3 0  0.15 0.3 0  0.175 0.3 0  0.2 0.3 0  0.225 0.3 0  0.25 0.3 0  0.275 0.3 0  0.3 0.3 0  0.325 0.3 0  0.35 0.3 0  0.375 0.3 0  0.4 0.3 0  0.425 0.3 0  0.45 0.3 0  0.475 0.3 0  0.5 0.3 0  0.525 0.3 0  0.55 0.3 0  0.575 0.3 0  0.6 0.3 0  0.625 0.3 0  0.65 0.3 0  0.675 0.3 0  0.7 0.3 0  0.725 0.3 0  0.75 0.3 0  0.775 0.3 0  0.8 0.3 0  0.825 0.3 0  0.85 0.3 0  0.875 0.3 0  0.9 0.3 0  0.925 0.3 0  0.95 0.3 0  0.975 0.3 0  1 0.3 0  0 0.325 0  0.025 0.325 0  0.05 0.325 0  0.075 0.325 0  0.1 0.325 0  0.125 0.325 0  0.15 0.325 0  0.175 0.325 0  0.2 0.325 0  0.225 0.325 0  0.25 0.325 0  0.275 0.325 0  0.3 0.325 0  0.325 0.325 0  0.35 0.325 0  0.375 0.325 0  0.4 0.325 0  0.425 0.325 0  0.45 0.325 0  0.475 0.325 0  0.5 0.325 0  0.525 0.325 0  0.55 0.325 0  0.575 0.325 0  0.6 0.325 0  0.625 0.325 0  0.65 0.325 0  0.675 0.325 0  0.7 0.325 0  0.725 0.325 0  0.75 0.325 0  0.775 0.325 0  0.8 0.325 0  0.825 0.325 0  0.85 0.325 0  0.875 0.325 0  0.9 0.325 0  0.925 0.325 0  0.95 0.325 0  0.975 0.325 0  1 0.325 0  0 0.35 0  0.025 0.35 0  0.05 0.35 0  0.075 0.35 0  0.1 0.35 0  0.125 0.35 0  0.15 0.35 0  0.175 0.35 0  0.2 0.35 0  0.225 0.35 0  0.25 0.35 0  0.275 0.35 0  0.3 0.35 0  0.325 0.35 0  0.35 0.35 0  0.375 0.35 0  0.4 0.35 0  0.425 0.35 0  0.45 0.35 0  0.475 0.35 0  0.5 0.35 0  0.525 0.35 0  0.55 0.35 0  0.575 0.35 0  0.6 0.35 0  0.625 0.35 0  0.65 0.35 0  0.675 0.35 0  0.7 0.35 0  0.725 0.35 0  0.75 0.35 0  0.775 0.35 0  0.8 0.35 0  0.825 0.35 0  0.85 0.35 0  0.875 0.35 0  0.9 0.35 0  0.925 0.35 0  0.95 0.35 0  0.975 0.35 0  1 0.35 0  0 0.375 0  0.025 0.375 0  0.05 0.375 0  0.075 0.375 0  0.1 0.375 0  0.125 0.375 0  0.15 0.375 0  0.175 0.375 0  0.2 0.375 0  0.225 0.375 0  0.25 0.375 0  0.275 0.375 0  0.3 0.375 0  0.325 0.375 0  0.35 0.375 0  0.375 0.375 0  0.4 0.375 0  0.425 0.375 0  0.45 0.375 0  0.475 0.375 0  0.5 0.375 0  0.525 0.375 0  0.55 0.375 0  0.575 0.375 0  0.6 0.375 0  0.625 0.375 0  0.65 0.375 0  0.675 0.375 0  0.7 0.375 0  0.725 0.375 0  0.75 0.375 0  0.775 0.375 0  0.8 0.375 0  0.825 0.375 0  0.85 0.375 0  0.875 0.375 0  0.9 0.375 0  0.925 0.375 0  0.95 0.375 0  0.975 0.375 0  1 0.375 0  0 0.4 0  0.025 0.4 0  0.05 0.4 0  0.075 0.4 0  0.1 0.4 0  0.125 0.4 0  0.15 0.4 0  0.175 0.4 0  0.2 0.4 0  0.225 0.4 0  0.25 0.4 0  0.275 0.4 0  0.3 0.4 0  0.325 0.4 0  0.35 0.4 0  0.375 0.4 0  0.4 0.4 0  0.425 0.4 0  0.45 0.4 0  0.475 0.4 0  0.5 0.4 0  0.525 0.4 0  0.55 0.4 0  0.575 0.4 0  0.6 0.4 0  0.625 0.4 0  0.65 0.4 0  0.675 0.4 0  0.7 0.4 0  0.725 0.4 0  0.75 0.4 0  0.775 0.4 0  0.8 0.4 0  0.825 0.4 0  0.85 0.4 0  0.875 0.4 0  0.9 0.4 0  0.925 0.4 0  0.95 0.4 0  0.975 0.4 0  1 0.4 0  0 0.425 0  0.025 0.425 0  0.05 0.425 0  0.075 0.425 0  0.1 0.425 0  0.125 0.425 0  0.15 0.425 0  0.175 0.425 0  0.2 0.425 0  0.225 0.425 0  0.25 0.425 0  0.275 0.425 0  0.3 0.425 0  0.325 0.425 0  0.35 0.425 0  0.375 0.425 0  0.4 0.425 0  0.425 0.425 0  0.45 0.425 0  0.475 0.425 0  0.5 0.425 0  0.525 0.425 0  0.55 0.425 0  0.575 0.425 0  0.6 0.425 0  0.625 0.425 0  0.65 0.425 0  0.675 0.425 0  0.7 0.425 0  0.725 0.425 0  0.75 0.425 0  0.775 0.425 0  0.8 0.425 0  0.825 0.425 0  0.85 0.425 0  0.875 0.425 0  0.9 0.425 0  0.925 0.425 0  0.95 0.425 0  0.975 0.425 0  1 0.425 0  0 0.45 0  0.02
[...]
<PointData  Scalars="ControlVisualisation"> 
<DataArray  type="Float64"  Name="ControlVisualisation"  format="ascii">4.3118464997115883e-03  2.8787149848467442e-03  2.8788307575150205e-03  2.8790277533456421e-03  2.8793056735857895e-03  2.8796650386831483e-03  2.8801061857264649e-03  2.8806293764903298e-03  2.8812347320142282e-03  2.8819221760058543e-03  2.8826913994024132e-03  2.8835418299945998e-03  2.8844725985569275e-03  2.8854824846367361e-03  2.8865698187645391e-03  2.8877323115538045e-03  2.8889667732968469e-03  2.8902686798081625e-03  2.8916315309173886e-03  2.8930459369014231e-03  2.8944983560313291e-03  2.8959693980105459e-03  2.8974316151331950e-03  2.8988467294372997e-03  2.9001623767934809e-03  2.9013087983444093e-03  2.9021959549638031e-03  2.9027127294559956e-03  2.9027318494369734e-03  2.9021215224659912e-03  2.9007669309924545e-03  2.8986042307697622e-03  2.8956572099951092e-03  2.8920819479244892e-03  2.8882003546030488e-03  2.8845238389790264e-03  2.8816167630035636e-03  2.8798000547080919e-03  2.8789655378584811e-03  2.8787068491025443e-03  8.5873329632637791e-03  2.8787149669494507e-03  1.4414630794976372e-03  1.4415770005167716e-03  1.4417806017899546e-03  1.4420764445920305e-03  1.4424650358115924e-03  1.4429468189922545e-03  1.4435222345077234e-03  1.4441915876078689e-03  1.4449549955276276e-03  1.4458123450434282e-03  1.4467632587953289e-03  1.4478070616893068e-03  1.4489427290130244e-03  1.4501687912149470e-03  1.4514831629509188e-03  1.4528828561501319e-03  1.4543635279699874e-03  1.4559188039783887e-03  1.4575393042353594e-03  1.4592112856052874e-03  1.4609148018206682e-03  1.4626212792193407e-03  1.4642904319347783e-03  1.4658665880727647e-03  1.4672746394982063e-03  1.4684161914631810e-03  1.4691685384335866e-03  1.4693876178600291e-03  1.4689176536818451e-03  1.4676166905170191e-03  1.4653946969124384e-03  1.4622539250491800e-03  1.4583372753483291e-03  1.4539328633680849e-03  1.4495438587551165e-03  1.4458241499997054e-03  1.4433003025764832e-03  1.4420065453389901e-03  1.4415361523804021e-03  2.8787007723760157e-03  2.8788305488782620e-03  1.4415768488937550e-03  1.4417190050466423e-03  1.4419507982583115e-03  1.4422882529585446e-03  1.4427324235374152e-03  1.4432839222405657e-03  1.4439432978083136e-03  1.4447109428427816e-03  1.4455870399809247e-03  1.4465715145807834e-03  1.4476640076257798e-03  1.4488638536832132e-03  1.4501700430834528e-03  1.4515811399673107e-03  1.4530951197935967e-03  1.4547090816943477e-03  1.4564187819696341e-03  1.4582179243403288e-03  1.4600971294468099e-03  1.4620424906525613e-03  1.4640336057049148e-03  1.4660409559290137e-03  1.4680225395886245e-03  1.4699197169584981e-03  1.4716521626272068e-03  1.4731135715211003e-03  1.4741691597418322e-03  1.4746511032541969e-03  1.4743759842970479e-03  1.4731757608566251e-03  1.4709297791590330e-03  1.4676210074007164e-03  1.4633895604385528e-03  1.4584518819843121e-03  1.4531726739531613e-03  1.4482973159120342e-03  1.4446865240815103e-03  1.4425770250648747e-03  1.4416903335422561e-03  2.8787878431022116e-03  2.8790267584701212e-03  1.4417797558073573e-03  1.4419500366289187e-03  1.4421846419045683e-03  1.4425246081753694e-03  1.4429721384972062e-03  1.4435279917262762e-03  1.4441927374778609e-03  1.4449667746078596e-03  1.4458502699246224e-03  1.4468431252023912e-03  1.4479449727048718e-03  1.4491551842087729e-03  1.4504728733975801e-03  1.4518968632596017e-03  1.4534255832519708e-03  1.4550568544171589e-03  1.4567875137970220e-03  1.4586128219592073e-03  1.4605255883022822e-03  1.4625149373287368e-03  1.4645646174394076e-03  1.4666507367351940e-03  1.4687387953533173e-03  1.4707796869444262e-03  1.4727049934009722e-03  1.4744228719369395e-03  1.4758061383903945e-03  1.4766946103251662e-03  1.4769299113414906e-03  1.4762911014672760e-03  1.4745844432592200e-03  1.4717867469184317e-03  1.4680889638855005e-03  1.4640828976861938e-03  1.4591036972882961e-03  1.4533307745958305e-03  1.4478347507150522e-03  1.4438647871125921e-03  1.4416564812929364e-03  2.8787118788360889e-03  2.8793025732442483e-03  1.4420736287908749e-03  1.4422853191467886e-03  1.4425224617351405e-03  1.4428632529892632e-03  1.4433118472719773e-03  1.4438691574291079e-03  1.4445357717272577e-03  1.4453120735711440e-03  1.4461981803115097e-03  1.4471939334707654e-03  1.4482989273538849e-03  1.4495125645391245e-03  1.4508341170380520e-03  1.4522627648851786e-03  1.4537975787316643e-03  1.4554374087110539e-03  1.4571806383103616e-03  1.4590247591241459e-03  1.4609657209326194e-03  1.4629970096306461e-03  1.4651083930311308e-03  1.4672842712652177e-03  1.4695013876542067e-03  1.4717257158883338e-03  1.4739092077292039e-03  1.4759812795733132e-03  1.4778379043317591e-03  1.4793871514934076e-03  1.4804044898226450e-03  1.4805249380883509e-03  1.4798356950280634e-03  1.4785078210689609e-03  1.4766218691274621e-03  1.4778872799986909e-03  1.4773023559669421e-03  1.4702228295150896e-03  1.4591195669464089e-03  1.4504387508214762e-03  1.4464042810902848e-03  2.8786828317812567e-03  2.8796574614417913e-03  1.4424578877493992e-03  1.4427247195100479e-03  1.4429653494902619e-03  1.4433073535785540e-03  1.4437575087765963e-03  1.4443168862348268e-03  1.4449860748579301e-03  1.4457654005151067e-03  1.4466548768761944e-03  1.4476542253019926e-03  1.4487629491133909e-03  1.4499804512519219e-03  1.4513061719406437e-03  1.4527397179864491e-03  1.4542809522710668e-03  1.4559300103602498e-03  1.4576872112994643e-03  1.4595528321350167e-03  1.4615267267757430e-03  1.4636077834331979e-03  1.4657932446626681e-03  1.4680778992715510e-03  1.4704529470723148e-03  1.4729050731085568e-03  1.4754131015865283e-03  1.4779397440288704e-03  1.4804560114558213e-03  1.4828958463904988e-03  1.4848627376222376e-03  1.4872016261731661e-03  1.4898631732235732e-03  1.4935878113176908e-03  1.5076947664346323e-03  1.5893957186689140e-03  1.6851913670050242e-03  1.7210572329574940e-03  1.7204528419271510e-03  1.5871356958759172e-03  1.5159230956810457e-03  2.9688597220295415e-03  2.8800903098799169e-03  1.4429314740497944e-03  1.4432672415445535e-03  1.4435126221162575e-03  1.4438566290198077e-03  1.4443093161938694e-03  1.4448719182852980e-03  1.4455449721512271e-03  1.4463286677516782e-03  1.4472228221370799e-03  1.4482269388382894e-03  1.4493403425350085e-03  1.4505623751606687e-03  1.4518926269874470e-03  1.4533311735867235e-03  1.4548787891228393e-03  1.4565371084395424e-03  1.4583087132796625e-03  1.4601971233118567e-03  1.4622066975514142e-03  1.4643424801526294e-03  1.4666101712311190e-03  1.4690163235180889e-03  1.4715692491637743e-03  1.4742805794604667e-03  1.4771621644702776e-03  1.4802420219347120e-03  1.4835683291368896e-03  1.4870575758762030e-03  1.4914177402459144e-03  1.4991032919758230e-03  1.5182654084255536e-03  1.6447588569398616e-03  1.9327079066668467e-03  3.0788902559686173e-03  3.4882973074913538e-02  1.8178833740690753e-01  2.4557988137623568e-01  1.4142907764400911e-01  2.6130107228498939e-03  3.1004744436803271e-03  2.8805993865557190e-03  1.4434927757688608e-03  1.4439112883302702e-03  1.4441630244871957e-03  1.4445103063770676e-03  1.4449670729831526e-03  1.4455346782103575e-03  1.4462134990833729e-03  1.4470034550957717e-03  1.4479040173476605e-03  1.4489143225922801e-03  1.4500333856095234e-03  1.4512603905347068e-03  1.4525950305762896e-03  1.4540378653372520e-03  1.4555906688061323e-03  1.4572567494478858e-03  1.4590412226563869e-03  1.4609512185987088e-03  1.4629960388717136e-03  1.4651873235814778e-03  1.4675396136218490e-03  1.4700714937507346e-03  1.4728094502946400e-03  1.4757909781788277e-03  1.4790753721593249e-03  1.4827768875166722e-03  1.4869966994448096e-03  1.4924240395730063e-03  1.5022939428014316e-03  1.5619863821323876e-03  1.8030358029383837e-03  3.0818819113298253e-03  1.3841591899688291e-01  5.8217131836904423e-01  9.8557065983878400e-01  9.9718577377654216e-01  9.9833848615719412e-01  9.9867728812284651e-01  9.9854486689161914e-01  9.4777331929117803e-01  2.8811820072447212e-03  1.4441392395456974e-03  1.4446543330661333e-03  1.4449146023511514e-03  1.4452672136515735e-03  1.4457305159645060e-03  1.4463058564299510e-03  1.4469932570872210e-03  1.4477921448011867e-03  1.4487014153347303e-03  1.4497196233630334e-03  1.4508452922974305e-03  1.4520773166658066e-03  1.4534154226959774e-03  1.4548606512891642e-03  1.4564158429636674e-03  1.4580861186012208e-03  1.4598793456734303e-03  1.4618065805124740e-03  1.4638824410729550e-03  1.4661254609476765e-03  1.4685586124210653e-03  1.4712110495018389e-03  1.4741252242001352e-03  1.4773643637033458e-03  1.4810594898073358e-03  1.4854112946657678e-03  1.4910460680433045e-03  1.5013331503939027e-03  1.5846004365992668e-03  1.9696940792231546e-03  7.8212396526120814e-03  4.1340109394473107e-01  9.9070096823855014e-01  9.9827947740056278e-01  9.9908492393219361e-01  9.9941697184421863e-01  9.9960160799756448e-01  9.9971213850491725e-01  9.9978033192139348e-01  9.9950101655689338e-01  2.8818340205591965e-03  1.4448668721824150e-03  1.4454924448350902e-03  1.4457643612775120e-03  1.4461256169920323e-03  1.4465993513961459e-03  1.4471866366259651e-03  1.4478868008148103e-03  1.4486984232790583e-03  1.4496194849081684e-03  1.4506476629889402e-03  1.4517807580526727e-03  1.4530172191885616e-03  1.4543567303110893e-03  1.4558008118236553e-03  1.4573534282358780e-03  1.4590216102556047e-03  1.4608161842036070e-03  1.4627524991184121e-03  1.4648508581236921e-03  1.4671370738873074e-03  1.4696414903194093e-03  1.4724025490107661e-03  1.4754704879605324e-03  1.4789353357889490e-03  1.4830310713060968e-03  1.4883029992362462e-03  1.4977461540265594e-03  1.5814393216575617e-03  2.0369408865637921e-03  1.8640255050178103e-02  6.1250709807718506e-01  9.9676153794418920e-01  9.9884354603518188e-01  9.9936252003507653e-01  9.9959593973267091e-01  9.9971987158885156e-01  9.9979981785500149e-01  9.9985558696111565e-01  9.9989119689622485e-01  9.9979318917027926e-01  2.8825490232849333e-03  1.4456694648565232e-03  1.4464195491376008e-03  1.4467077703231575e-03  1.4470830302643484e-03  1.4475733799009696e-03  1.4481791045599583e-03  1.4488982691980236e-03  1.4497280543512632e-03  1.4506650413835564e-03  1.4517056476369247e-03  1.4528466851116606e-03  1.4540860054022293e-03  1.4554231956746956e-03  1.4568603185880450e-03  1.4584025655171042e-03  1.4600589313876382e-03  1.4618433219130117e-03  1.4637755166890748e-03  1.4658819396906728e-03  1.4681983094457607e-03  1.4707632376647587e-03  1.4736246856907815e-03  1.4768117058506309e-03  1.4804775618227734e-03  1.4851280734342932e-03  1.4928907618574922e-03  1.5631411415414479e-03  1.9902629176056699e-03  1.8129836561256728e-02  6.6361992434742445e-01  9.9729269532304499e-01  9.9898724436242103e-01  9.9943962082713311e-01  9.9963341820436702e-01  9.9973602960681440e-01  9.9980233860703138e-01  9.9985086380279165e-01  9.9988739756667300e-01  9.9991189842360850e-01  9.9984188311989564e-01  2.8833171355595465e-03  1.4465373895107350e-03  1.4474263123189827e-03  1.4477380562761717e-03  1.4481360091107343e-03  1.4486527922552971e-03  1.4492869768542552e-03  1.4500344296325010e-03  1.4508900997171703e-03  1.4518485010219853e-03  1.4529043334699967e-03  1.4540531989358284e-03  1.4552922620619593e-03  1.4566210230878140e-03  1.4580423561453666e-03  1.4595627778211198e-03  1.4611930743107539e-03  1.4629498743004338e-03  1.4648584555791450e-03  1.4669531877894710e-03  1.4692826853991740e-03  1.4718945711326187e-03  1.4748553400277750e-03  1.4781944719062321e-03  1.4823185952429930e-03  1.4885599415933994e-03  1.5406275329686331e-03  1.9000142899012462e-03  9.8847022728192156e-03  6.0900574292776777e-01  9.9710290227218190e-01  9.9897120196418909e-01  9.9943869218432402e-01  9.9962790776107457e-01  9.9972352010514220e-01  9.9978182840072649e-01  9.9982269164853532e-01  9.9985431047733286e-01  9.9987951787822826e-01  9.9989740202944188e-01  9.9982154902988374e-01  2.8841230829960924e-03  1.4474557299778890e-03  1.4484984592318271e-03  1.4488452261906322e-03  1.4492800056029236e-03  1.4498388196954215e-03  1.4505168888330495e-03  1.4513063891975751e-03  1.4521988460196550e-03  1.4531858104878989e-03  1.4542598060719686e-03  1.4554152188122733e-03  1.4566484832187372e-03  1.4579590253015905e-03  1.4593510354559951e-03  1.4608333486404667e-03  1.4624192148874240e-03  1.4641259498739780e-03  1.4659871847965457e-03  1.4680356662952099e-03  1.4703290773696795e-03  1.4729963508740064e-03  1.4761796122480511e-03  1.4802150209512128e-03  1.4857682645780333e-03  1.5269039292431822e-03  1.8287384330984687e-03  5.7913261203168505e-03  5.0826164765041371e-01  9.9639524766031351e-01  9.9886508730730172e-01  9.9939655098323299e-01  9.9960165622379571e-01  9.9969947428649886e-01  9.9975427716859477e-01  9.9978776763829191e-01  9.9980891967609709e-01  9.9982136652161679e-01  9.9982547647375231e-01  9.9981708784702361e-01  9.9967672875838176e-01  2.8849431886093600e-03  1.4484013731246685e-03  1.4496142453019327e-03  1.4500147610816713e-03  1.4505094635293178e-03  1.4511351256323646e-03  1.4518807689519700e-03  1.4527325762649034e-03  1.4536769893449097e-03  1.4547013442526332e-03  1.4557956041269635e-03  1.4569535399650483e-03  1.4581719181608029e-03  1.4594499849798206e-03  1.4607934116019382e-03  1.4622198375332770e-03  1.4637397576800469e-03  1.4653552242655890e-03  1.4671228462256037e-03  1.4690887998632691e-03  1.4713319030063125e-03  1.4742798836102217e-03  1.4778932604773488e-03  1.4849786621251313e-03  1.5285571653202035e-03  1.8095425714914767e-03  4.5404660559904180e-03  4.1914856099881120e-01  9.9501596836518436e-01  9.9869318263597939e-01  9.9932597372168364e-01  9.9956188577301064e-01  9.9966911946180959e-01  9.9972530769134649e-01  9.9975493795715997e-01  9.9976673524641180e-01  9.9976168781329455e-01  9.9973196667343267e-01  9.9964724024511165e-01  9.9937878194627494e-01  9.9821313309887716e-01  2.8857405912569439e-03  1.4493384592832636e-03  1.4507407435964301e-03  1.4512261673435521e-03  1.4518188277740738e-03  1.4525508191088946e-03  1.4533999339195430e-03  1.4543429441804484e-03  1.4553595053061262e-03  1.4564320464990671e-03  1.4575468458937623e-03  1.4586998668781180e-03  1.4598939994405768e-03  1.4611176331556959e-03  1.4623708855607091e-03  1.4637081828660155e-03  1.4651335155383876e-03  1.4666403069452888e-03  1.4683405856540568e-03  1.4704549888682557e-03  1.4725092922154754e-03  1.4762220559687196e-03  1.4843711535347498e-03  1.5673631110699440e-03  1.8872919647352530e-03  4.8887304431541566e-03  3.9182589355065783e-01  9.9329723103690770e-01  9.9849913769650478e-01  9.9923993085431129e-01  9.9951327169713100e-01  9.9963424601451811e-01  9.9969577926256981e-01  9.9972597352665571e-01  9.9973396485384469e-01  9.9971902013904956e-01  9.9966729478610727e-01  9.9952271573319385e-01  9.9906744426094785e-01  9.2306123647251925e-01  5.1108141527279371e-03  2.8864578590829491e-03  1.4502115147386513e-03  1.4518287075830458e-03  1.4524515552869482e-03  1.4532046847361018e-03  1.4541055985897279e-03  1.4551128047572105e-03  1.4561885468385638e-03  1.4573060822011448e-03  1.4584425225319607e-03  1.4595652662219819e-03  1.4606839953026731e-03  1.4618336522664655e-03  1.4629730830756152e-03  1.4640901000085985e-03  1.4653615233056502e-03  1.4668893383670226e-03  1.4684360391586252e-03  1.4697445183811128e-03  1.4730739251504373e-03  1.4773595237836251e-03  1.5113313218238689e-03  1.6528684473541529e-03  2.1565421843838055e-03  1.4671585693826643e-02  4.7426459085138684e-01  9.9350042517995318e-01  9.9839141505007278e-01  9.9916672019571195e-01  9.9946463811320807e-01  9.9959745718509785e-01  9.9966539730140846e-01  9.9969893541950505e-01  9.9970798487161494e-01  9.9969188112468654e-01  9.9963674764532473e-01  9.9948973232255345e-01  9.9904361219617199e-01  9.9501562849188507e-01  5.5575684091171369e-02  3.2341868249605322e-03  2.8870053328901033e-03  1.4509344700680423e-03  1.4528049602973694e-03  1.4536560547744103e-03  1.4546760783788987e-03  1.4558486757970620e-03  1.4570958928463555e-03  1.4583485234633551e-03  1.4595873494645381e-03  1.4608004804868922e-03  1.4619086434193530e-03  1.4629666512179758e-03  1.4641528349175230e-03  1.4654311132207378e-03  1.4663348305160543e-03  1.4672533867720573e-03  1.4696276690868387e-03  1.4726960523301013e-03  1.4793389582600984e-03  1.5291450962416041e-03  1.6538046632170286e-03  1.9417460035671982e-03  3.7918605166122050e-03  1.5802189693641852e-01  7.0429176231237256e-01  9.9592912539361111e-01  9.9849653741077338e-01  9.9915256361921445e-01  9.9943364852905769e-01  9.9956601996874506e-01  9.9963616209586093e-01  9.9967229086004683e-01  9.9968405867117949e-01  9.9967137570468789e-01  9.9962283615761138e-01  9.9949795588910872e-01  9.9913123122090708e-01  9.9758522330924682e-01  4.6186392648949076e-01  2.4439220153347021e-03  3.1898346086339682e-03  2.8872426970324903e-03  1.4513769516373586e-03  1.4535705819354366e-03  1.4548104345523437e-03  1.4562681851043424e-03  1.4578540731671667e-03  1.4594524765554188e-03  1.4609418153328719e-03  1.4623766962149167e-03  1.4638587247850748e-03  1.4651320218908581e-03  1.4657828874003688e-03  1.4669379521254219e-03  1.4693668258068551e-03  1.4710898950367546e-03  1.4776568786763543e-03  1.5133770146244128e-03  1.6130681761729352e-03  1.7575754011542385e-03  2.1661676193044104e-03  5.2316539379056648e-03  1.5427990385657037e-01  5.3866751536875201e-01  9.8752207738468145e-01  9.9768178977760913e-01  9.9878685756190189e-01  9.9922737835838582e-01  9.9944196750751768e-01  9.9955328498256546e-01  9.9961546737546736e-01  9.9964869279855040e-01  9.9966040610210150e-01  9.9965055365607547e-01  9.9961023151731365e-01  9.9950993347730177e-01  9.9923879831704010e-01  9.9831698806065483e-01  8.8129430321233182e-01  3.1655892478995820e-02  1.7303408075856972e-03  2.9185117144064979e-03  2.8869655408200194e-03  1.4513483504107511e-03  1.4539876776733865e-03  1.4558833123362546e-03  1.4580785723180582e-03  1.4603777229936028e-03  1.4626891885195479e-03  1.4645569247346486e-03  1.4658388993863288e-03  1.4677413564185625e-03  1.4702026459135075e-03  1.4713582672611549e-03  1.4832649745252521e-03  1.5319023621233410e-03  1.6317346694138500e-03  1.7655152051003623e-03  2.1237468561939549e-03  3.8923042013736392e-03  6.7262031221913085e-02  3.2160932672827530e-01  6.8026889890286912e-01  9.9160524908503744e-01  9.9767665806603612e-01  9.9866906964973168e-01  9.9911504264559137e-01  9.9936391273334535e-01  9.9949581922072639e-01  9.9957145052328222e-01  9.9961506656751098e-01  9.9963732400839689e-01  9.9964234361858861e-01  9.9962954160836603e-01  9.9959201595799108e-01  9.9950835250501757e-01  9.9930703787062858e-01  9.9870308995016532e-01  9.9439057353589644e-01  2.7497249813653973e-01  2.3393856028921306e-03  1.5606927357206834e-03  2.9086583123431693e-03  2.8858581380231895e-03  1.4505725513699779e-03  1.4539574079987074e-03  1.4571127194938837e-03  1.4606386233763915e-03  1.4638114027544368e-03  1.4668619367667092e-03  1.4696164140530427e-03  1.4721991988401867e-03  1.4904671683488471e-03  1.5591672754768082e-03  1.6659525140884535e-03  1.8224189814452568e-03  2.3346574130428195e-03  5.3626029083282019e-03  9.7533857630326917e-02  3.3611680631075364e-01  6.3789763804783517e-01  9.8136595833318385e-01  9.9684879781130387e-01  9.9833865094653607e-01  9.9888278468131331e-01  9.9919770507979999e-01  9.9939270474078323e-01  9.9950654029801089e-01  9.9957619314574464e-01  9.9961834346521594e-01  9.9964131087289698e-01  9.9964901416809460e-01  9.9964246782423483e-01  9.9961990939149525e-01  9.9957531567977242e-01  9.9949272173568349e-01  9.9932371441842682e-01  9.9887078242474259e-01  9.9713791469189927e-01  6.2137541356410375e-01  6.8469979024215902e-03  1.7226725288828847e-03  1.4808742929879363e-03  2.9052852065634968e-03  2.8836664076699963e-03  1.4488971710861994e-03  1.4536777218282330e-03  1.4586804556482966e-03  1.4639642979624294e-03  1.4695068584166674e-03  1.4841740914656426e-03  1.5539171406553432e-03  1.668955589