<?xml version="1.0"?>
<VTKFile type="UnstructuredGrid"  version="0.1"  >
<UnstructuredGrid>
<Piece  NumberOfPoints="1681" NumberOfCells="3200">
<Points>
<DataArray  type="Float64"  NumberOfComponents="3"  format="ascii">0 0 0  0.025 0 0  0.05 0 0  0.075 0 0  0.1 0 0  0.125 0 0  0.15 0 0  0.175 0 0  0.2 0 0  0.225 0 0  0.25 0 0  0.275 0 0  0.3 0 0  0.325 0 0  0.35 0 0  0.375 0 0  0.4 0 0  0.425 0 0  0.45 0 0  0.475 0 0  0.5 0 0  0.525 0 0  0.55 0 0  0.575 0 0  0.6 0 0  0.625 0 0  0.65 0 0  0.675 0 0  0.7 0 0  0.725 0 0  0.75 0 0  0.775 0 0  0.8 0 0  0.825 0 0  0.85 0 0  0.875 0 0  0.9 0 0  0.925 0 0  0.95 0 0  0.975 0 0  1 0 0  0 0.025 0  0.025 0.025 0  0.05 0.025 0  0.075 0.025 0  0.1 0.025 0  0.125 0.025 0  0.15 0.025 0  0.175 0.025 0  0.2 0.025 0  0.225 0.025 0  0.25 0.025 0  0.275 0.025 0  0.3 0.025 0  0.325 0.025 0  0.35 0.025 0  0.375 0.025 0  0.4 0.025 0  0.425 0.025 0  0.45 0.025 0  0.475 0.025 0  0.5 0.025 0  0.525 0.025 0  0.55 0.025 0  0.575 0.025 0  0.6 0.025 0  0.625 0.025 0  0.65 0.025 0  0.675 0.025 0  0.7 0.025 0  0.725 0.025 0  0.75 0.025 0  0.775 0.025 0  0.8 0.025 0  0.825 0.025 0  0.85 0.025 0  0.875 0.025 0  0.9 0.025 0  0.925 0.025 0  0.95 0.025 0  0.975 0.025 0  1 0.025 0  0 0.05 0  0.025 0.05 0  0.05 0.05 0  0.075 0.05 0  0.1 0.05 0  0.125 0.05 0  0.15 0.05 0  0.175 0.05 0  0.2 0.05 0  0.225 0.05 0  0.25 0.05 0  0.275 0.05 0  0.3 0.05 0  0.325 0.05 0  0.35 0.05 0  0.375 0.05 0  0.4 0.05 0  0.425 0.05 0  0.45 0.05 0  0.475 0.05 0  0.5 0.05 0  0.525 0.05 0  0.55 0.05 0  0.575 0.05 0  0.6 0.05 0  0.625 0.05 0  0.65 0.05 0  0.675 0.05 0  0.7 0.05 0  0.725 0.05 0  0.75 0.05 0  0.775 0.05 0  0.8 0.05 0  0.825 0.05 0  0.85 0.05 0  0.875 0.05 0  0.9 0.05 0  0.925 0.05 0  0.95 0.05 0  0.975 0.05 0  1 0.05 0  0 0.075 0  0.025 0.075 0  0.05 0.075 0  0.075 0.075 0  0.1 0.075 0  0.125 0.075 0  0.15 0.075 0  0.175 0.075 0  0.2 0.075 0  0.225 0.075 0  0.25 0.075 0  0.275 0.075 0  0.3 0.075 0  0.325 0.075 0  0.35 0.075 0  0.375 0.075 0  0.4 0.075 0  0.425 0.075 0  0.45 0.075 0  0.475 0.075 0  0.5 0.075 0  0.525 0.075 0  0.55 0.075 0  0.575 0.075 0  0.6 0.075 0  0.625 0.075 0  0.65 0.075 0  0.675 0.075 0  0.7 0.075 0  0.725 0.075 0  0.75 0.075 0  0.775 0.075 0  0.8 0.075 0  0.825 0.075 0  0.85 0.075 0  0.875 0.075 0  0.9 0.075 0  0.925 0.075 0  0.95 0.075 0  0.975 0.075 0  1 0.075 0  0 0.1 0  0.025 0.1 0  0.05 0.1 0  0.075 0.1 0  0.1 0.1 0  0.125 0.1 0  0.15 0.1 0  0.175 0.1 0  0.2 0.1 0  0.225 0.1 0  0.25 0.1 0  0.275 0.1 0  0.3 0.1 0  0.325 0.1 0  0.35 0.1 0  0.375 0.1 0  0.4 0.1 0  0.425 0.1 0  0.45 0.1 0  0.475 0.1 0  0.5 0.1 0  0.525 0.1 0  0.55 0.1 0  0.575 0.1 0  0.6 0.1 0  0.625 0.1 0  0.65 0.1 0  0.675 0.1 0  0.7 0.1 0  0.725 0.1 0  0.75 0.1 0  0.775 0.1 0  0.8 0.1 0  0.825 0.1 0  0.85 0.1 0  0.875 0.1 0  0.9 0.1 0  0.925 0.1 0  0.95 0.1 0  0.975 0.1 0  1 0.1 0  0 0.125 0  0.025 0.125 0  0.05 0.125 0  0.075 0.125 0  0.1 0.125 0  0.125 0.125 0  0.15 0.125 0  0.175 0.125 0  0.2 0.125 0  0.225 0.125 0  0.25 0.125 0  0.275 0.125 0  0.3 0.125 0  0.325 0.125 0  0.35 0.125 0  0.375 0.125 0  0.4 0.125 0  0.425 0.125 0  0.45 0.125 0  0.475 0.125 0  0.5 0.125 0  0.525 0.125 0  0.55 0.125 0  0.575 0.125 0  0.6 0.125 0  0.625 0.125 0  0.65 0.125 0  0.675 0.125 0  0.7 0.125 0  0.725 0.125 0  0.75 0.125 0  0.775 0.125 0  0.8 0.125 0  0.825 0.125 0  0.85 0.125 0  0.875 0.125 0  0.9 0.125 0  0.925 0.125 0  0.95 0.125 0  0.975 0.125 0  1 0.125 0  0 0.15 0  0.025 0.15 0  0.05 0.15 0  0.075 0.15 0  0.1 0.15 0  0.125 0.15 0  0.15 0.15 0  0.175 0.15 0  0.2 0.15 0  0.225 0.15 0  0.25 0.15 0  0.275 0.15 0  0.3 0.15 0  0.325 0.15 0  0.35 0.15 0  0.375 0.15 0  0.4 0.15 0  0.425 0.15 0  0.45 0.15 0  0.475 0.15 0  0.5 0.15 0  0.525 0.15 0  0.55 0.15 0  0.575 0.15 0  0.6 0.15 0  0.625 0.15 0  0.65 0.15 0  0.675 0.15 0  0.7 0.15 0  0.725 0.15 0  0.75 0.15 0  0.775 0.15 0  0.8 0.15 0  0.825 0.15 0  0.85 0.15 0  0.875 0.15 0  0.9 0.15 0  0.925 0.15 0  0.95 0.15 0  0.975 0.15 0  1 0.15 0  0 0.175 0  0.025 0.175 0  0.05 0.175 0  0.075 0.175 0  0.1 0.175 0  0.125 0.175 0  0.15 0.175 0  0.175 0.175 0  0.2 0.175 0  0.225 0.175 0  0.25 0.175 0  0.275 0.175 0  0.3 0.175 0  0.325 0.175 0  0.35 0.175 0  0.375 0.175 0  0.4 0.175 0  0.425 0.175 0  0.45 0.175 0  0.475 0.175 0  0.5 0.175 0  0.525 0.175 0  0.55 0.175 0  0.575 0.175 0  0.6 0.175 0  0.625 0.175 0  0.65 0.175 0  0.675 0.175 0  0.7 0.175 0  0.725 0.175 0  0.75 0.175 0  0.775 0.175 0  0.8 0.175 0  0.825 0.175 0  0.85 0.175 0  0.875 0.175 0  0.9 0.175 0  0.925 0.175 0  0.95 0.175 0  0.975 0.175 0  1 0.175 0  0 0.2 0  0.025 0.2 0  0.05 0.2 0  0.075 0.2 0  0.1 0.2 0  0.125 0.2 0  0.15 0.2 0  0.175 0.2 0  0.2 0.2 0  0.225 0.2 0  0.25 0.2 0  0.275 0.2 0  0.3 0.2 0  0.325 0.2 0  0.35 0.2 0  0.375 0.2 0  0.4 0.2 0  0.425 0.2 0  0.45 0.2 0  0.475 0.2 0  0.5 0.2 0  0.525 0.2 0  0.55 0.2 0  0.575 0.2 0  0.6 0.2 0  0.625 0.2 0  0.65 0.2 0  0.675 0.2 0  0.7 0.2 0  0.725 0.2 0  0.75 0.2 0  0.775 0.2 0  0.8 0.2 0  0.825 0.2 0  0.85 0.2 0  0.875 0.2 0  0.9 0.2 0  0.925 0.2 0  0.95 0.2 0  0.975 0.2 0  1 0.2 0  0 0.225 0  0.025 0.225 0  0.05 0.225 0  0.075 0.225 0  0.1 0.225 0  0.125 0.225 0  0.15 0.225 0  0.175 0.225 0  0.2 0.225 0  0.225 0.225 0  0.25 0.225 0  0.275 0.225 0  0.3 0.225 0  0.325 0.225 0  0.35 0.225 0  0.375 0.225 0  0.4 0.225 0  0.425 0.225 0  0.45 0.225 0  0.475 0.225 0  0.5 0.225 0  0.525 0.225 0  0.55 0.225 0  0.575 0.225 0  0.6 0.225 0  0.625 0.225 0  0.65 0.225 0  0.675 0.225 0  0.7 0.225 0  0.725 0.225 0  0.75 0.225 0  0.775 0.225 0  0.8 0.225 0  0.825 0.225 0  0.85 0.225 0  0.875 0.225 0  0.9 0.225 0  0.925 0.225 0  0.95 0.225 0  0.975 0.225 0  1 0.225 0  0 0.25 0  0.025 0.25 0  0.05 0.25 0  0.075 0.25 0  0.1 0.25 0  0.125 0.25 0  0.15 0.25 0  0.175 0.25 0  0.2 0.25 0  0.225 0.25 0  0.25 0.25 0  0.275 0.25 0  0.3 0.25 0  0.325 0.25 0  0.35 0.25 0  0.375 0.25 0  0.4 0.25 0  0.425 0.25 0  0.45 0.25 0  0.475 0.25 0  0.5 0.25 0  0.525 0.25 0  0.55 0.25 0  0.575 0.25 0  0.6 0.25 0  0.625 0.25 0  0.65 0.25 0  0.675 0.25 0  0.7 0.25 0  0.725 0.25 0  0.75 0.25 0  0.775 0.25 0  0.8 0.25 0  0.825 0.25 0  0.85 0.25 0  0.875 0.25 0  0.9 0.25 0  0.925 0.25 0  0.95 0.25 0  0.975 0.25 0  1 0.25 0  0 0.275 0  0.025 0.275 0  0.05 0.275 0  0.075 0.275 0  0.1 0.275 0  0.125 0.275 0  0.15 0.275 0  0.175 0.275 0  0.2 0.275 0  0.225 0.275 0  0.25 0.275 0  0.275 0.275 0  0.3 0.275 0  0.325 0.275 0  0.35 0.275 0  0.375 0.275 0  0.4 0.275 0  0.425 0.275 0  0.45 0.275 0  0.475 0.275 0  0.5 0.275 0  0.525 0.275 0  0.55 0.275 0  0.575 0.275 0  0.6 0.275 0  0.625 0.275 0  0.65 0.275 0  0.675 0.275 0  0.7 0.275 0  0.725 0.275 0  0.75 0.275 0  0.775 0.275 0  0.8 0.275 0  0.825 0.275 0  0.85 0.275 0  0.875 0.275 0  0.9 0.275 0  0.925 0.275 0  0.95 0.275 0  0.975 0.275 0  1 0.275 0  0 0.3 0  0.025 0.3 0  0.05 0.3 0  0.075 0.3 0  0.1 0.3 0  0.125 0.3 0  0.15 0.3 0  0.175 0.3 0  0.2 0.3 0  0.225 0.3 0  0.25 0.3 0  0.275 0.3 0  0.3 0.3 0  0.325 0.3 0  0.35 0.3 0  0.375 0.3 0  0.4 0.3 0  0.425 0.3 0  0.45 0.3 0  0.475 0.3 0  0.5 0.3 0  0.525 0.3 0  0.55 0.3 0  0.575 0.3 0  0.6 0.3 0  0.625 0.3 0  0.65 0.3 0  0.675 0.3 0  0.7 0.3 0  0.725 0.3 0  0.75 0.3 0  0.775 0.3 0  0.8 0.3 0  0.825 0.3 0  0.85 0.3 0  0.875 0.3 0  0.9 0.3 0  0.925 0.3 0  0.95 0.3 0  0.975 0.3 0  1 0.3 0  0 0.325 0  0.025 0.325 0  0.05 0.325 0  0.075 0.325 0  0.1 0.325 0  0.125 0.325 0  0.15 0.325 0  0.175 0.325 0  0.2 0.325 0  0.225 0.325 0  0.25 0.325 0  0.275 0.325 0  0.3 0.325 0  0.325 0.325 0  0.35 0.325 0  0.375 0.325 0  0.4 0.325 0  0.425 0.325 0  0.45 0.325 0  0.475 0.325 0  0.5 0.325 0  0.525 0.325 0  0.55 0.325 0  0.575 0.325 0  0.6 0.325 0  0.625 0.325 0  0.65 0.325 0  0.675 0.325 0  0.7 0.325 0  0.725 0.325 0  0.75 0.325 0  0.775 0.325 0  0.8 0.325 0  0.825 0.325 0  0.85 0.325 0  0.875 0.325 0  0.9 0.325 0  0.925 0.325 0  0.95 0.325 0  0.975 0.325 0  1 0.325 0  0 0.35 0  0.025 0.35 0  0.05 0.35 0  0.075 0.35 0  0.1 0.35 0  0.125 0.35 0  0.15 0.35 0  0.175 0.35 0  0.2 0.35 0  0.225 0.35 0  0.25 0.35 0  0.275 0.35 0  0.3 0.35 0  0.325 0.35 0  0.35 0.35 0  0.375 0.35 0  0.4 0.35 0  0.425 0.35 0  0.45 0.35 0  0.475 0.35 0  0.5 0.35 0  0.525 0.35 0  0.55 0.35 0  0.575 0.35 0  0.6 0.35 0  0.625 0.35 0  0.65 0.35 0  0.675 0.35 0  0.7 0.35 0  0.725 0.35 0  0.75 0.35 0  0.775 0.35 0  0.8 0.35 0  0.825 0.35 0  0.85 0.35 0  0.875 0.35 0  0.9 0.35 0  0.925 0.35 0  0.95 0.35 0  0.975 0.35 0  1 0.35 0  0 0.375 0  0.025 0.375 0  0.05 0.375 0  0.075 0.375 0  0.1 0.375 0  0.125 0.375 0  0.15 0.375 0  0.175 0.375 0  0.2 0.375 0  0.225 0.375 0  0.25 0.375 0  0.275 0.375 0  0.3 0.375 0  0.325 0.375 0  0.35 0.375 0  0.375 0.375 0  0.4 0.375 0  0.425 0.375 0  0.45 0.375 0  0.475 0.375 0  0.5 0.375 0  0.525 0.375 0  0.55 0.375 0  0.575 0.375 0  0.6 0.375 0  0.625 0.375 0  0.65 0.375 0  0.675 0.375 0  0.7 0.375 0  0.725 0.375 0  0.75 0.375 0  0.775 0.375 0  0.8 0.375 0  0.825 0.375 0  0.85 0.375 0  0.875 0.375 0  0.9 0.375 0  0.925 0.375 0  0.95 0.375 0  0.975 0.375 0  1 0.375 0  0 0.4 0  0.025 0.4 0  0.05 0.4 0  0.075 0.4 0  0.1 0.4 0  0.125 0.4 0  0.15 0.4 0  0.175 0.4 0  0.2 0.4 0  0.225 0.4 0  0.25 0.4 0  0.275 0.4 0  0.3 0.4 0  0.325 0.4 0  0.35 0.4 0  0.375 0.4 0  0.4 0.4 0  0.425 0.4 0  0.45 0.4 0  0.475 0.4 0  0.5 0.4 0  0.525 0.4 0  0.55 0.4 0  0.575 0.4 0  0.6 0.4 0  0.625 0.4 0  0.65 0.4 0  0.675 0.4 0  0.7 0.4 0  0.725 0.4 0  0.75 0.4 0  0.775 0.4 0  0.8 0.4 0  0.825 0.4 0  0.85 0.4 0  0.875 0.4 0  0.9 0.4 0  0.925 0.4 0  0.95 0.4 0  0.975 0.4 0  1 0.4 0  0 0.425 0  0.025 0.425 0  0.05 0.425 0  0.075 0.425 0  0.1 0.425 0  0.125 0.425 0  0.15 0.425 0  0.175 0.425 0  0.2 0.425 0  0.225 0.425 0  0.25 0.425 0  0.275 0.425 0  0.3 0.425 0  0.325 0.425 0  0.35 0.425 0  0.375 0.425 0  0.4 0.425 0  0.425 0.425 0  0.45 0.425 0  0.475 0.425 0  0.5 0.425 0  0.525 0.425 0  0.55 0.425 0  0.575 0.425 0  0.6 0.425 0  0.625 0.425 0  0.65 0.425 0  0.675 0.425 0  0.7 0.425 0  0.725 0.425 0  0.75 0.425 0  0.775 0.425 0  0.8 0.425 0  0.825 0.425 0  0.85 0.425 0  0.875 0.425 0  0.9 0.425 0  0.925 0.425 0  0.95 0.425 0  0.975 0.425 0  1 0.425 0  0 0.45 0  0.02
[...]
<PointData  Scalars="ControlVisualisation"> 
<DataArray  type="Float64"  Name="ControlVisualisation"  format="ascii">1.3294505670576750e-04  8.8636425123698055e-05  8.8639973940113999e-05  8.8646014428033222e-05  8.8654537077627159e-05  8.8665557863699468e-05  8.8679087400636258e-05  8.8695134112669080e-05  8.8713702361299982e-05  8.8734790803246232e-05  8.8758391416919431e-05  8.8784488712085566e-05  8.8813058859656954e-05  8.8844068228493363e-05  8.8877470619001299e-05  8.8913202284910469e-05  8.8951173615734483e-05  8.8991256087701597e-05  8.9033262759480582e-05  8.9076920165380509e-05  8.9121828949368542e-05  8.9167410132969438e-05  8.9212833984866761e-05  8.9256929224126600e-05  8.9298074948142484e-05  8.9334090411097685e-05  8.9362140821529665e-05  8.9378718533955124e-05  8.9379819743305963e-05  8.9361342830984535e-05  8.9319779550253928e-05  8.9253269743766705e-05  8.9162561676405972e-05  8.9052352438534656e-05  8.8932243155548534e-05  8.8817917552514003e-05  8.8727174964134279e-05  8.8670373506369418e-05  8.8644283934602853e-05  8.8636205634589417e-05  2.6578140568916112e-04  8.8636424576779655e-05  4.4317714724841176e-05  4.4321159423820348e-05  4.4327322204009246e-05  4.4336278123402987e-05  4.4348042710877630e-05  4.4362629582274829e-05  4.4380052369104657e-05  4.4400320863391244e-05  4.4423439499275601e-05  4.4449406194714875e-05  4.4478211486785167e-05  4.4509837701825215e-05  4.4544257609983698e-05  4.4581431809391086e-05  4.4621303859913914e-05  4.4663791941179514e-05  4.4708775521787955e-05  4.4756075166821751e-05  4.4805423148195427e-05  4.4856421941344899e-05  4.4908487119866671e-05  4.4960770800208467e-05  4.5012062336373187e-05  4.5060668080410484e-05  4.5104277255769064e-05  4.5139834852742475e-05  4.5163512325033296e-05  4.5170818614684560e-05  4.5156938997843577e-05  4.5117571537174645e-05  4.5050098665807333e-05  4.4954667285175381e-05  4.4835671063367906e-05  4.4701392131289812e-05  4.4566850257495900e-05  4.4452297757277412e-05  4.4374401898105635e-05  4.4334478061129921e-05  4.4320001321355551e-05  8.8636012792970821e-05  8.8639967564972997e-05  4.4321154848903351e-05  4.4325437340100854e-05  4.4332437308119656e-05  4.4342628255398555e-05  4.4356042470608248e-05  4.4372698483869391e-05  4.4392613136748063e-05  4.4415798802803777e-05  4.4442261865245673e-05  4.4472001435444073e-05  4.4505008708274948e-05  4.4541266509165159e-05  4.4580748409543577e-05  4.4623416560081875e-05  4.4669217147696324e-05  4.4718072130967670e-05  4.4769865623777211e-05  4.4824422946797468e-05  4.4881479901294931e-05  4.4940639201132061e-05  4.5001310210865437e-05  4.5062627072884188e-05  4.5123340942467551e-05  4.5181683721809793e-05  4.5235197124918924e-05  4.5280585114577104e-05  4.5313627471326577e-05  4.5329048231005540e-05  4.5321123106235948e-05  4.5284752615479929e-05  4.5216435363045611e-05  4.5116117832647976e-05  4.4988374455200337e-05  4.4839147542317497e-05  4.4678206036044801e-05  4.4528353381702127e-05  4.4416972617912563e-05  4.4351934425823206e-05  4.4324684537567443e-05  8.8638710821838104e-05  8.8645984025586074e-05  4.4327296668333574e-05  4.4332414361404084e-05  4.4339499336180413e-05  4.4349765989429300e-05  4.4363281505139866e-05  4.4380068709453205e-05  4.4400145020539090e-05  4.4423522898584666e-05  4.4450208128957085e-05  4.4480198961799219e-05  4.4513486144663722e-05  4.4550053401737736e-05  4.4589877757448990e-05  4.4632928855963135e-05  4.4679166222577847e-05  4.4728533218534156e-05  4.4780946242717131e-05  4.4836277514918925e-05  4.4894329481629115e-05  4.4954798459878033e-05  4.5017224192125137e-05  4.5080920704850781e-05  4.5144883067684874e-05  4.5207655028489378e-05  4.5267163272643661e-05  4.5320568037713085e-05  4.5363827780524925e-05  4.5391789704421247e-05  4.5399332778515807e-05  4.5379582263446280e-05  4.5326696218301292e-05  4.5241558935855826e-05  4.5128936583730288e-05  4.5012603133546763e-05  4.4863061199403571e-05  4.4685320968260091e-05  4.4514897943690094e-05  4.4392089979245874e-05  4.4323783210358638e-05  8.8636374202312199e-05  8.8654442322429926e-05  4.4336193103691000e-05  4.4342539845343223e-05  4.4349701306085529e-05  4.4359992504934521e-05  4.4373539628574454e-05  4.4390370033036927e-05  4.4410501600222773e-05  4.4433946181944643e-05  4.4460707896380259e-05  4.4490782953706042e-05  4.4524160679261796e-05  4.4560825383593517e-05  4.4600758447462414e-05  4.4643939777393328e-05  4.4690347634254723e-05  4.4739955717310460e-05  4.4792726309176092e-05  4.4848598260524550e-05  4.4907468636745311e-05  4.4969166875015545e-05  4.5033419680878158e-05  4.5099804439138732e-05  4.5167681951871421e-05  4.5236092613767511e-05  4.5303645663174479e-05  4.5368191197010789e-05  4.5426347939808104e-05  4.5475046032852756e-05  4.5506496740435665e-05  4.5508866482725595e-05  4.5484406223972598e-05  4.5441851424980711e-05  4.5376716785695300e-05  4.5441604397723100e-05  4.5434097083505351e-05  4.5210186243409857e-05  4.4863832200416259e-05  4.4595356140826142e-05  4.4474090194136917e-05  8.8636215006639347e-05  8.8665326249200865e-05  4.4347826833353135e-05  4.4355810276491856e-05  4.4363076909182753e-05  4.4373404232249646e-05  4.4386997756371317e-05  4.4403889489546297e-05  4.4424097190412897e-05  4.4447630791944364e-05  4.4474491053887882e-05  4.4504670270960296e-05  4.4538154660965681e-05  4.4574928094520097e-05  4.4614976471336782e-05  4.4658291893407806e-05  4.4704875690473325e-05  4.4754739312665225e-05  4.4807902150733220e-05  4.4864385522520310e-05  4.4924202660622603e-05  4.4987345264017031e-05  4.5053768383293818e-05  4.5123375553500300e-05  4.5195994408763195e-05  4.5271357062818224e-05  4.5349013376693195e-05  4.5427908388443734e-05  4.5507270166895118e-05  4.5584583368403988e-05  4.5645028516571883e-05  4.5714946156141339e-05  4.5788634128437520e-05  4.5890468225479333e-05  4.6266337803451133e-05  4.8962331094207698e-05  5.1932863447697663e-05  5.2842037305356951e-05  5.2853318012038107e-05  4.8817337391581040e-05  4.6708468015505515e-05  9.1544009880060125e-05  8.8678602040231192e-05  4.4362166055568825e-05  4.4372195676762887e-05  4.4379605513909253e-05  4.4389992594602680e-05  4.4403661538869611e-05  4.4420649121634399e-05  4.4440971349605582e-05  4.4464633829253039e-05  4.4491631104263499e-05  4.4521948541781629e-05  4.4555566524002992e-05  4.4592466523069365e-05  4.4632638275393187e-05  4.4676087182056893e-05  4.4722841031453712e-05  4.4772955189191297e-05  4.4826515500900946e-05  4.4883638439292180e-05  4.4944469212393530e-05  4.5009179980043431e-05  4.5077976651651163e-05  4.5151120599410133e-05  4.5228979760661505e-05  4.5312133550857604e-05  4.5401279003145289e-05  4.5497649901038193e-05  4.5603759650717171e-05  4.5714687383461589e-05  4.5853246939948710e-05  4.6087260873192935e-05  4.6625538153687704e-05  5.0465413945336713e-05  5.9123865833882973e-05  9.5038378232391649e-05  2.4088794351041224e-02  1.8160314502929159e-01  2.4561806520216103e-01  1.4003277815295070e-01  8.0617437788834174e-05  9.5619858560075702e-05  8.8694217059921715e-05  4.4379162312494354e-05  4.4391648145117345e-05  4.4399249530691072e-05  4.4409734524667660e-05  4.4423525243579192e-05  4.4440661853990587e-05  4.4461155319036122e-05  4.4485002814610556e-05  4.4512188114166988e-05  4.4542685105264561e-05  4.4576464297100829e-05  4.4613501736908708e-05  4.4653789438901566e-05  4.4697346412282386e-05  4.4744229428487158e-05  4.4794542885672077e-05  4.4848446992059484e-05  4.4906163686830414e-05  4.4967980772638713e-05  4.5034257624068003e-05  4.5105449178046696e-05  4.5182158234493097e-05  4.5265301861834283e-05  4.5356301423734291e-05  4.5457376288684330e-05  4.5573291162904482e-05  4.5708650030743489e-05  4.5883102879879963e-05  4.6202298567629979e-05  4.7966688083860649e-05  5.5230725910559091e-05  9.3719593966227631e-05  1.2899273181581941e-01  5.7828262068517122e-01  9.9949615169042194e-01  9.9991371312155319e-01  9.9994910992361596e-01  9.9995954640042506e-01  9.9995512759967609e-01  9.9334496371658776e-01  8.8712089672160716e-05  4.4398738839571742e-05  4.4414091898817439e-05  4.4421950444008680e-05  4.4432595094029282e-05  4.4446581324719063e-05  4.4463948838928588e-05  4.4484697621388516e-05  4.4508809672936107e-05  4.4536251039385875e-05  4.4566977593075759e-05  4.4600944434004634e-05  4.4638118096382400e-05  4.4678490602386639e-05  4.4722094323092857e-05  4.4769016937057284e-05  4.4819416180092469e-05  4.4873533610483154e-05  4.4931706623865345e-05  4.4994375574113195e-05  4.5062090624325125e-05  4.5135523855027452e-05  4.5215534926759863e-05  4.5303458149252514e-05  4.5401405068856639e-05  4.5513895772135317e-05  4.5649216437892371e-05  4.5825777142761652e-05  4.6143665479582378e-05  4.8777460953064263e-05  6.0315346120017027e-05  2.4689363240598834e-04  4.0586668080446014e-01  9.9968919775600285e-01  9.9994706979887282e-01  9.9997195655839910e-01  9.9998216438728871e-01  9.9998783483202480e-01  9.9999121565766946e-01  9.9999330056188684e-01  9.9998470768284553e-01  8.8732093468928212e-05  4.4420775486820983e-05  4.4439408986358173e-05  4.4447618603988648e-05  4.4458522727955349e-05  4.4472821662088836e-05  4.4490546478067499e-05  4.4511675900967392e-05  4.4536166014644030e-05  4.4563954882047253e-05  4.4594971456246934e-05  4.4629148424522749e-05  4.4666437981217255e-05  4.4706829657726541e-05  4.4750368841427158e-05  4.4797175776478359e-05  4.4847464774334985e-05  4.4901566293230600e-05  4.4959947161279469e-05  4.5023215436858205e-05  4.5092125597317189e-05  4.5167511066106789e-05  4.5250405858973628e-05  4.5342167008012170e-05  4.5445473025208138e-05  4.5567953039291364e-05  4.5726339581543172e-05  4.5999055604123822e-05  4.8600075779168750e-05  6.2345567051726497e-05  1.1993967813629862e-03  6.0694192044322637e-01  9.9989897539930539e-01  9.9996442352658921e-01  9.9998046727124246e-01  9.9998765909928944e-01  9.9999145471490869e-01  9.9999389728520194e-01  9.9999560015548117e-01  9.9999668752214743e-01  9.9999369385723635e-01  8.8754033188340921e-05  4.4445085229030836e-05  4.4467416984017187e-05  4.4476118302494881e-05  4.4487443557836480e-05  4.4502241465269399e-05  4.4520518907409162e-05  4.4542216104709067e-05  4.4567246573946552e-05  4.4595505813369477e-05  4.4626884434688629e-05  4.4661284784895798e-05  4.4698640040771655e-05  4.4738935117090387e-05  4.4782229589850142e-05  4.4828679356312313e-05  4.4878556686537809e-05  4.4932286834897037e-05  4.4990476154514703e-05  4.5053928653630974e-05  4.5123694043914952e-05  4.5200806625173489e-05  4.5286456932923681e-05  4.5380808907143040e-05  4.5488218504783232e-05  4.5623559596173361e-05  4.5841764715173641e-05  4.7892335547861654e-05  6.0683052787139109e-05  9.9906276482676767e-04  6.5776594198759852e-01  9.9991605672193751e-01  9.9996887602036455e-01  9.9998284530524617e-01  9.9998880487150676e-01  9.9999194946509506e-01  9.9999397671823109e-01  9.9999545790542710e-01  9.9999657246382834e-01  9.9999731993827989e-01  9.9999518139980059e-01  8.8777607057534538e-05  4.4471377653711907e-05  4.4497835279481382e-05  4.4507246521734083e-05  4.4519255353640317e-05  4.4534848414109370e-05  4.4553980220948151e-05  4.4576524191793963e-05  4.4602326177391572e-05  4.4631219081469830e-05  4.4663041656594070e-05  4.4697659644360987e-05  4.4734984779553851e-05  4.4774996182262388e-05  4.4817774720811748e-05  4.4863514562177563e-05  4.4912538929923020e-05  4.4965357488196605e-05  4.5022752077877375e-05  4.5085814839001455e-05  4.5156003983681968e-05  4.5234747567029094e-05  4.5323468800379517e-05  4.5421436903913300e-05  4.5539829920354728e-05  4.5713716568304545e-05  4.7197224199511904e-05  5.7827876200002602e-05  3.0849812261466228e-04  5.9927939484960246e-01  9.9990967271413866e-01  9.9996835129087169e-01  9.9998281779498133e-01  9.9998863932322657e-01  9.9999157017130891e-01  9.9999335382194454e-01  9.9999460154170849e-01  9.9999556552462787e-01  9.9999633337281846e-01  9.9999687788427871e-01  9.9999456058810077e-01  8.8802347717011198e-05  4.4499202164842737e-05  4.4530234142912858e-05  4.4540703476682658e-05  4.4553823380538242e-05  4.4570682658586508e-05  4.4591133713112408e-05  4.4614938050442231e-05  4.4641838062442924e-05  4.4671577100152184e-05  4.4703928636392849e-05  4.4738723681720714e-05  4.4775852450231433e-05  4.4815284874965730e-05  4.4857135611445489e-05  4.4901660977919461e-05  4.4949267077826556e-05  4.5000461423112863e-05  4.5056295833403405e-05  4.5117927371378436e-05  4.5187076677507469e-05  4.5268175299963145e-05  4.5364383851183465e-05  4.5484725867963040e-05  4.5635386365879190e-05  4.6790364205877443e-05  5.5679383413653399e-05  1.7079189606130030e-04  4.9489386985561434e-01  9.9988561813894417e-01  9.9996497837564158e-01  9.9998150257232155e-01  9.9998783374365396e-01  9.9999083779162623e-01  9.9999251666007039e-01  9.9999354089916648e-01  9.9999418660046269e-01  9.9999456532735431e-01  9.9999468852244722e-01  9.9999442858365262e-01  9.9999013784344581e-01  8.8827529400291734e-05  4.4527859435753036e-05  4.4563958085560561e-05  4.4576053236205383e-05  4.4590983718153070e-05  4.4609859490253402e-05  4.4632344096056331e-05  4.4658017873374532e-05  4.4686470474823053e-05  4.4717317411478536e-05  4.4750255213688850e-05  4.4785103110755549e-05  4.4821764863973206e-05  4.4860199060366349e-05  4.4900532922915955e-05  4.4943283791078670e-05  4.4988869036993460e-05  4.5037121076048096e-05  4.5089869792849000e-05  4.5148759423608954e-05  4.5216194405099625e-05  4.5306247762124960e-05  4.5417895827710531e-05  4.5632178250712550e-05  4.6813508542652712e-05  5.5069287596089580e-05  1.3344901426840767e-04  4.0361382556464825e-01  9.9983731269558207e-01  9.9995947305832855e-01  9.9997927965599831e-01  9.9998660024192609e-01  9.9998990635902996e-01  9.9999163355513310e-01  9.9999254356404732e-01  9.9999290705791011e-01  9.9999275595629844e-01  9.9999185240375754e-01  9.9998924436841263e-01  9.9998105019282746e-01  9.9994547319500671e-01  8.8852020170847789e-05  4.4556262664392371e-05  4.4598013049088118e-05  4.4612680109924940e-05  4.4630574789819065e-05  4.4652662038310300e-05  4.4678262716531880e-05  4.4706673632906111e-05  4.4737282834024480e-05  4.4769557917114029e-05  4.4803074688156177e-05  4.4837733724073473e-05  4.4873665507538836e-05  4.4910525006214896e-05  4.4948054230014194e-05  4.4987968465587207e-05  4.5030679927220714e-05  4.5075342086066083e-05  4.5125414717170530e-05  4.5188002680035205e-05  4.5249998576698076e-05  4.5356689787690804e-05  4.5587777042722995e-05  4.8093331364278378e-05  5.7419006904034487e-05  1.4090923366560384e-04  3.7404822925066733e-01  9.9977219589422461e-01  9.9995317861442568e-01  9.9997655255990459e-01  9.9998508175187584e-01  9.9998882788479992e-01  9.9999072762499253e-01  9.9999166030552533e-01  9.9999191215174921e-01  9.9999146477402645e-01  9.9998990049267511e-01  9.9998551879226638e-01  9.9997165974780899e-01  9.5317590600772051e-01  1.5819170295072594e-04  8.8874053123915751e-05  4.4582727798877589e-05  4.4630910328858631e-05  4.4649746307009477e-05  4.4672503592851571e-05  4.4699698623600065e-05  4.4730061549410575e-05  4.4762449806751690e-05  4.4796079606009084e-05  4.4830276481460518e-05  4.4863960428943095e-05  4.4897473801096752e-05  4.4932097132852267e-05  4.4966634500725862e-05  4.4999831859379822e-05  4.5037253620429158e-05  4.5082779708259952e-05  4.5130843457316770e-05  4.5165049614222865e-05  4.5259950473653540e-05  4.5380592201039057e-05  4.6286231384829893e-05  5.0451622314631354e-05  6.5228037802457175e-05  5.3792730183529743e-04  4.5715430733929407e-01  9.9977744544885250e-01  9.9994960394771981e-01  9.9997420981710738e-01  9.9998355512528514e-01  9.9998768414453676e-01  9.9998978993036480e-01  9.9999083089939189e-01  9.9999111961576603e-01  9.9999064160833906e-01  9.9998898095651068e-01  9.9998454681897342e-01  9.9997107257292417e-01  9.9985267439057102e-01  5.2871548328182014e-02  9.9904005857957197e-05  8.8890866021807785e-05  4.4604638179098666e-05  4.4660434037921723e-05  4.4686202744388944e-05  4.4717061762262675e-05  4.4752490034703578e-05  4.4790093860932098e-05  4.4827743677975697e-05  4.4864977680636308e-05  4.4901535400180526e-05  4.4934615504845727e-05  4.4965823382235800e-05  4.5001394930575904e-05  4.5040993931212415e-05  4.5069308184825206e-05  4.5092432147278277e-05  4.5159746360716909e-05  4.5259012989378963e-05  4.5405785989211158e-05  4.6798572300998809e-05  5.0568276096036205e-05  5.8855912021945797e-05  1.0883568568306225e-04  1.3783366703522554e-01  6.8953162241309907e-01  9.9986757403925086e-01  9.9995287995317139e-01  9.9997372057273159e-01  9.9998257119210254e-01  9.9998670153322389e-01  9.9998888376139949e-01  9.9999000986391473e-01  9.9999038577169785e-01  9.9999001550676048e-01  9.9998855945696730e-01  9.9998480471876827e-01  9.9997371035667948e-01  9.9992771282428505e-01  4.7574715448108490e-01  7.6827452715306040e-05  9.8941520277501230e-05  8.8898127549668827e-05  4.4618022709826504e-05  4.4683586289425929e-05  4.4721183161409509e-05  4.4765361991780663e-05  4.4813309234335383e-05  4.4861495395465524e-05  4.4906018494997058e-05  4.4948938734562743e-05  4.4994041070159768e-05  4.5032897316604394e-05  4.5049758292832858e-05  4.5082327907121221e-05  4.5157190202548164e-05  4.5211383258887813e-05  4.5360287198426898e-05  4.6333539916225787e-05  4.9425904018322463e-05  5.3634923429242613e-05  6.4839624407600556e-05  1.4832087431680520e-04  1.3875381350372004e-01  5.1961046231023422e-01  9.9944882826424974e-01  9.9992591315642254e-01  9.9996207234419143e-01  9.9997603780300981e-01  9.9998280641408954e-01  9.9998629291581465e-01  9.9998823701301509e-01  9.9998927952118066e-01  9.9998965794061556e-01  9.9998937700363089e-01  9.9998817296955911e-01  9.9998516519132286e-01  9.9997704870447623e-01  9.9994938534118738e-01  9.1128229620136425e-01  2.4324241446159942e-02  5.3443353461133771e-05  8.9878150223324336e-05  8.8889529597151434e-05  4.4617081730396427e-05  4.4696197827954153e-05  4.4753723555152943e-05  4.4820346986586017e-05  4.4889928123836171e-05  4.4960156766716338e-05  4.5015919028116279e-05  4.5052157205170399e-05  4.5110233476758855e-05  4.5187411488944901e-05  4.5199263111147411e-05  4.5520089504305380e-05  4.6899869636695825e-05  5.0005126440163840e-05  5.3865441769210616e-05  6.3671865773255761e-05  1.1173761112150373e-04  5.0130258325265527e-02  3.0904338253176700e-01  6.6317615756118786e-01  9.9967937009747299e-01  9.9992548574786977e-01  9.9995802049455307e-01  9.9997231756247740e-01  9.9998028742006451e-01  9.9998445571535666e-01  9.9998683603092775e-01  9.9998821057574883e-01  9.9998892021116881e-01  9.9998909796904256e-01  9.9998873092174378e-01  9.9998761465580177e-01  9.9998511094202158e-01  9.9997909691244169e-01  9.9996106896796644e-01  9.9983935209081087e-01  2.8589527242559154e-01  7.3023803573682742e-05  4.8162927357630863e-05  8.9578558925411503e-05  8.8855316833271345e-05  4.4593377025393237e-05  4.4695254084119872e-05  4.4791080826306408e-05  4.4898625762949883e-05  4.4994686010520278e-05  4.5087111913006542e-05  4.5167412390627191e-05  4.5222019907258888e-05  4.5742797273691345e-05  4.7831284859311612e-05  5.1004290452747514e-05  5.5383499601124896e-05  6.9771785109085823e-05  1.5388090184263674e-04  8.4642732265430481e-02  3.2427423462562122e-01  6.2082336709093455e-01  9.9872961516035663e-01  9.9989595310680734e-01  9.9994725995286793e-01  9.9996483021781590e-01  9.9997486858555029e-01  9.9998111512371191e-01  9.9998472754695500e-01  9.9998693192205901e-01  9.9998826723272694e-01  9.9998900196295304e-01  9.9998926371258368e-01  9.9998908839064116e-01  9.9998842633153429e-01  9.9998709917444828e-01  9.9998463162316242e-01  9.9997958755902827e-01  9.9996593922506527e-01  9.9991466480272007e-01  6.4745353026665819e-01  2.7423156361462312e-04  5.3286087571616934e-05  4.5518900581007860e-05  8.9458366357253314e-05  8.8787677064838455e-05  4.4542402234214742e-05  4.4687362550063126e-05  4.4838799052131916e-05  4.4999101875318200e-05  4.5162841533986883e-05  4.5584755735158023e-05  4.7734769320813814e-05  5.113735129