<?xml version="1.0"?>
<VTKFile type="UnstructuredGrid"  version="0.1"  >
<UnstructuredGrid>
<Piece  NumberOfPoints="1681" NumberOfCells="3200">
<Points>
<DataArray  type="Float64"  NumberOfComponents="3"  format="ascii">0 0 0  0.025 0 0  0.05 0 0  0.075 0 0  0.1 0 0  0.125 0 0  0.15 0 0  0.175 0 0  0.2 0 0  0.225 0 0  0.25 0 0  0.275 0 0  0.3 0 0  0.325 0 0  0.35 0 0  0.375 0 0  0.4 0 0  0.425 0 0  0.45 0 0  0.475 0 0  0.5 0 0  0.525 0 0  0.55 0 0  0.575 0 0  0.6 0 0  0.625 0 0  0.65 0 0  0.675 0 0  0.7 0 0  0.725 0 0  0.75 0 0  0.775 0 0  0.8 0 0  0.825 0 0  0.85 0 0  0.875 0 0  0.9 0 0  0.925 0 0  0.95 0 0  0.975 0 0  1 0 0  0 0.025 0  0.025 0.025 0  0.05 0.025 0  0.075 0.025 0  0.1 0.025 0  0.125 0.025 0  0.15 0.025 0  0.175 0.025 0  0.2 0.025 0  0.225 0.025 0  0.25 0.025 0  0.275 0.025 0  0.3 0.025 0  0.325 0.025 0  0.35 0.025 0  0.375 0.025 0  0.4 0.025 0  0.425 0.025 0  0.45 0.025 0  0.475 0.025 0  0.5 0.025 0  0.525 0.025 0  0.55 0.025 0  0.575 0.025 0  0.6 0.025 0  0.625 0.025 0  0.65 0.025 0  0.675 0.025 0  0.7 0.025 0  0.725 0.025 0  0.75 0.025 0  0.775 0.025 0  0.8 0.025 0  0.825 0.025 0  0.85 0.025 0  0.875 0.025 0  0.9 0.025 0  0.925 0.025 0  0.95 0.025 0  0.975 0.025 0  1 0.025 0  0 0.05 0  0.025 0.05 0  0.05 0.05 0  0.075 0.05 0  0.1 0.05 0  0.125 0.05 0  0.15 0.05 0  0.175 0.05 0  0.2 0.05 0  0.225 0.05 0  0.25 0.05 0  0.275 0.05 0  0.3 0.05 0  0.325 0.05 0  0.35 0.05 0  0.375 0.05 0  0.4 0.05 0  0.425 0.05 0  0.45 0.05 0  0.475 0.05 0  0.5 0.05 0  0.525 0.05 0  0.55 0.05 0  0.575 0.05 0  0.6 0.05 0  0.625 0.05 0  0.65 0.05 0  0.675 0.05 0  0.7 0.05 0  0.725 0.05 0  0.75 0.05 0  0.775 0.05 0  0.8 0.05 0  0.825 0.05 0  0.85 0.05 0  0.875 0.05 0  0.9 0.05 0  0.925 0.05 0  0.95 0.05 0  0.975 0.05 0  1 0.05 0  0 0.075 0  0.025 0.075 0  0.05 0.075 0  0.075 0.075 0  0.1 0.075 0  0.125 0.075 0  0.15 0.075 0  0.175 0.075 0  0.2 0.075 0  0.225 0.075 0  0.25 0.075 0  0.275 0.075 0  0.3 0.075 0  0.325 0.075 0  0.35 0.075 0  0.375 0.075 0  0.4 0.075 0  0.425 0.075 0  0.45 0.075 0  0.475 0.075 0  0.5 0.075 0  0.525 0.075 0  0.55 0.075 0  0.575 0.075 0  0.6 0.075 0  0.625 0.075 0  0.65 0.075 0  0.675 0.075 0  0.7 0.075 0  0.725 0.075 0  0.75 0.075 0  0.775 0.075 0  0.8 0.075 0  0.825 0.075 0  0.85 0.075 0  0.875 0.075 0  0.9 0.075 0  0.925 0.075 0  0.95 0.075 0  0.975 0.075 0  1 0.075 0  0 0.1 0  0.025 0.1 0  0.05 0.1 0  0.075 0.1 0  0.1 0.1 0  0.125 0.1 0  0.15 0.1 0  0.175 0.1 0  0.2 0.1 0  0.225 0.1 0  0.25 0.1 0  0.275 0.1 0  0.3 0.1 0  0.325 0.1 0  0.35 0.1 0  0.375 0.1 0  0.4 0.1 0  0.425 0.1 0  0.45 0.1 0  0.475 0.1 0  0.5 0.1 0  0.525 0.1 0  0.55 0.1 0  0.575 0.1 0  0.6 0.1 0  0.625 0.1 0  0.65 0.1 0  0.675 0.1 0  0.7 0.1 0  0.725 0.1 0  0.75 0.1 0  0.775 0.1 0  0.8 0.1 0  0.825 0.1 0  0.85 0.1 0  0.875 0.1 0  0.9 0.1 0  0.925 0.1 0  0.95 0.1 0  0.975 0.1 0  1 0.1 0  0 0.125 0  0.025 0.125 0  0.05 0.125 0  0.075 0.125 0  0.1 0.125 0  0.125 0.125 0  0.15 0.125 0  0.175 0.125 0  0.2 0.125 0  0.225 0.125 0  0.25 0.125 0  0.275 0.125 0  0.3 0.125 0  0.325 0.125 0  0.35 0.125 0  0.375 0.125 0  0.4 0.125 0  0.425 0.125 0  0.45 0.125 0  0.475 0.125 0  0.5 0.125 0  0.525 0.125 0  0.55 0.125 0  0.575 0.125 0  0.6 0.125 0  0.625 0.125 0  0.65 0.125 0  0.675 0.125 0  0.7 0.125 0  0.725 0.125 0  0.75 0.125 0  0.775 0.125 0  0.8 0.125 0  0.825 0.125 0  0.85 0.125 0  0.875 0.125 0  0.9 0.125 0  0.925 0.125 0  0.95 0.125 0  0.975 0.125 0  1 0.125 0  0 0.15 0  0.025 0.15 0  0.05 0.15 0  0.075 0.15 0  0.1 0.15 0  0.125 0.15 0  0.15 0.15 0  0.175 0.15 0  0.2 0.15 0  0.225 0.15 0  0.25 0.15 0  0.275 0.15 0  0.3 0.15 0  0.325 0.15 0  0.35 0.15 0  0.375 0.15 0  0.4 0.15 0  0.425 0.15 0  0.45 0.15 0  0.475 0.15 0  0.5 0.15 0  0.525 0.15 0  0.55 0.15 0  0.575 0.15 0  0.6 0.15 0  0.625 0.15 0  0.65 0.15 0  0.675 0.15 0  0.7 0.15 0  0.725 0.15 0  0.75 0.15 0  0.775 0.15 0  0.8 0.15 0  0.825 0.15 0  0.85 0.15 0  0.875 0.15 0  0.9 0.15 0  0.925 0.15 0  0.95 0.15 0  0.975 0.15 0  1 0.15 0  0 0.175 0  0.025 0.175 0  0.05 0.175 0  0.075 0.175 0  0.1 0.175 0  0.125 0.175 0  0.15 0.175 0  0.175 0.175 0  0.2 0.175 0  0.225 0.175 0  0.25 0.175 0  0.275 0.175 0  0.3 0.175 0  0.325 0.175 0  0.35 0.175 0  0.375 0.175 0  0.4 0.175 0  0.425 0.175 0  0.45 0.175 0  0.475 0.175 0  0.5 0.175 0  0.525 0.175 0  0.55 0.175 0  0.575 0.175 0  0.6 0.175 0  0.625 0.175 0  0.65 0.175 0  0.675 0.175 0  0.7 0.175 0  0.725 0.175 0  0.75 0.175 0  0.775 0.175 0  0.8 0.175 0  0.825 0.175 0  0.85 0.175 0  0.875 0.175 0  0.9 0.175 0  0.925 0.175 0  0.95 0.175 0  0.975 0.175 0  1 0.175 0  0 0.2 0  0.025 0.2 0  0.05 0.2 0  0.075 0.2 0  0.1 0.2 0  0.125 0.2 0  0.15 0.2 0  0.175 0.2 0  0.2 0.2 0  0.225 0.2 0  0.25 0.2 0  0.275 0.2 0  0.3 0.2 0  0.325 0.2 0  0.35 0.2 0  0.375 0.2 0  0.4 0.2 0  0.425 0.2 0  0.45 0.2 0  0.475 0.2 0  0.5 0.2 0  0.525 0.2 0  0.55 0.2 0  0.575 0.2 0  0.6 0.2 0  0.625 0.2 0  0.65 0.2 0  0.675 0.2 0  0.7 0.2 0  0.725 0.2 0  0.75 0.2 0  0.775 0.2 0  0.8 0.2 0  0.825 0.2 0  0.85 0.2 0  0.875 0.2 0  0.9 0.2 0  0.925 0.2 0  0.95 0.2 0  0.975 0.2 0  1 0.2 0  0 0.225 0  0.025 0.225 0  0.05 0.225 0  0.075 0.225 0  0.1 0.225 0  0.125 0.225 0  0.15 0.225 0  0.175 0.225 0  0.2 0.225 0  0.225 0.225 0  0.25 0.225 0  0.275 0.225 0  0.3 0.225 0  0.325 0.225 0  0.35 0.225 0  0.375 0.225 0  0.4 0.225 0  0.425 0.225 0  0.45 0.225 0  0.475 0.225 0  0.5 0.225 0  0.525 0.225 0  0.55 0.225 0  0.575 0.225 0  0.6 0.225 0  0.625 0.225 0  0.65 0.225 0  0.675 0.225 0  0.7 0.225 0  0.725 0.225 0  0.75 0.225 0  0.775 0.225 0  0.8 0.225 0  0.825 0.225 0  0.85 0.225 0  0.875 0.225 0  0.9 0.225 0  0.925 0.225 0  0.95 0.225 0  0.975 0.225 0  1 0.225 0  0 0.25 0  0.025 0.25 0  0.05 0.25 0  0.075 0.25 0  0.1 0.25 0  0.125 0.25 0  0.15 0.25 0  0.175 0.25 0  0.2 0.25 0  0.225 0.25 0  0.25 0.25 0  0.275 0.25 0  0.3 0.25 0  0.325 0.25 0  0.35 0.25 0  0.375 0.25 0  0.4 0.25 0  0.425 0.25 0  0.45 0.25 0  0.475 0.25 0  0.5 0.25 0  0.525 0.25 0  0.55 0.25 0  0.575 0.25 0  0.6 0.25 0  0.625 0.25 0  0.65 0.25 0  0.675 0.25 0  0.7 0.25 0  0.725 0.25 0  0.75 0.25 0  0.775 0.25 0  0.8 0.25 0  0.825 0.25 0  0.85 0.25 0  0.875 0.25 0  0.9 0.25 0  0.925 0.25 0  0.95 0.25 0  0.975 0.25 0  1 0.25 0  0 0.275 0  0.025 0.275 0  0.05 0.275 0  0.075 0.275 0  0.1 0.275 0  0.125 0.275 0  0.15 0.275 0  0.175 0.275 0  0.2 0.275 0  0.225 0.275 0  0.25 0.275 0  0.275 0.275 0  0.3 0.275 0  0.325 0.275 0  0.35 0.275 0  0.375 0.275 0  0.4 0.275 0  0.425 0.275 0  0.45 0.275 0  0.475 0.275 0  0.5 0.275 0  0.525 0.275 0  0.55 0.275 0  0.575 0.275 0  0.6 0.275 0  0.625 0.275 0  0.65 0.275 0  0.675 0.275 0  0.7 0.275 0  0.725 0.275 0  0.75 0.275 0  0.775 0.275 0  0.8 0.275 0  0.825 0.275 0  0.85 0.275 0  0.875 0.275 0  0.9 0.275 0  0.925 0.275 0  0.95 0.275 0  0.975 0.275 0  1 0.275 0  0 0.3 0  0.025 0.3 0  0.05 0.3 0  0.075 0.3 0  0.1 0.3 0  0.125 0.3 0  0.15 0.3 0  0.175 0.3 0  0.2 0.3 0  0.225 0.3 0  0.25 0.3 0  0.275 0.3 0  0.3 0.3 0  0.325 0.3 0  0.35 0.3 0  0.375 0.3 0  0.4 0.3 0  0.425 0.3 0  0.45 0.3 0  0.475 0.3 0  0.5 0.3 0  0.525 0.3 0  0.55 0.3 0  0.575 0.3 0  0.6 0.3 0  0.625 0.3 0  0.65 0.3 0  0.675 0.3 0  0.7 0.3 0  0.725 0.3 0  0.75 0.3 0  0.775 0.3 0  0.8 0.3 0  0.825 0.3 0  0.85 0.3 0  0.875 0.3 0  0.9 0.3 0  0.925 0.3 0  0.95 0.3 0  0.975 0.3 0  1 0.3 0  0 0.325 0  0.025 0.325 0  0.05 0.325 0  0.075 0.325 0  0.1 0.325 0  0.125 0.325 0  0.15 0.325 0  0.175 0.325 0  0.2 0.325 0  0.225 0.325 0  0.25 0.325 0  0.275 0.325 0  0.3 0.325 0  0.325 0.325 0  0.35 0.325 0  0.375 0.325 0  0.4 0.325 0  0.425 0.325 0  0.45 0.325 0  0.475 0.325 0  0.5 0.325 0  0.525 0.325 0  0.55 0.325 0  0.575 0.325 0  0.6 0.325 0  0.625 0.325 0  0.65 0.325 0  0.675 0.325 0  0.7 0.325 0  0.725 0.325 0  0.75 0.325 0  0.775 0.325 0  0.8 0.325 0  0.825 0.325 0  0.85 0.325 0  0.875 0.325 0  0.9 0.325 0  0.925 0.325 0  0.95 0.325 0  0.975 0.325 0  1 0.325 0  0 0.35 0  0.025 0.35 0  0.05 0.35 0  0.075 0.35 0  0.1 0.35 0  0.125 0.35 0  0.15 0.35 0  0.175 0.35 0  0.2 0.35 0  0.225 0.35 0  0.25 0.35 0  0.275 0.35 0  0.3 0.35 0  0.325 0.35 0  0.35 0.35 0  0.375 0.35 0  0.4 0.35 0  0.425 0.35 0  0.45 0.35 0  0.475 0.35 0  0.5 0.35 0  0.525 0.35 0  0.55 0.35 0  0.575 0.35 0  0.6 0.35 0  0.625 0.35 0  0.65 0.35 0  0.675 0.35 0  0.7 0.35 0  0.725 0.35 0  0.75 0.35 0  0.775 0.35 0  0.8 0.35 0  0.825 0.35 0  0.85 0.35 0  0.875 0.35 0  0.9 0.35 0  0.925 0.35 0  0.95 0.35 0  0.975 0.35 0  1 0.35 0  0 0.375 0  0.025 0.375 0  0.05 0.375 0  0.075 0.375 0  0.1 0.375 0  0.125 0.375 0  0.15 0.375 0  0.175 0.375 0  0.2 0.375 0  0.225 0.375 0  0.25 0.375 0  0.275 0.375 0  0.3 0.375 0  0.325 0.375 0  0.35 0.375 0  0.375 0.375 0  0.4 0.375 0  0.425 0.375 0  0.45 0.375 0  0.475 0.375 0  0.5 0.375 0  0.525 0.375 0  0.55 0.375 0  0.575 0.375 0  0.6 0.375 0  0.625 0.375 0  0.65 0.375 0  0.675 0.375 0  0.7 0.375 0  0.725 0.375 0  0.75 0.375 0  0.775 0.375 0  0.8 0.375 0  0.825 0.375 0  0.85 0.375 0  0.875 0.375 0  0.9 0.375 0  0.925 0.375 0  0.95 0.375 0  0.975 0.375 0  1 0.375 0  0 0.4 0  0.025 0.4 0  0.05 0.4 0  0.075 0.4 0  0.1 0.4 0  0.125 0.4 0  0.15 0.4 0  0.175 0.4 0  0.2 0.4 0  0.225 0.4 0  0.25 0.4 0  0.275 0.4 0  0.3 0.4 0  0.325 0.4 0  0.35 0.4 0  0.375 0.4 0  0.4 0.4 0  0.425 0.4 0  0.45 0.4 0  0.475 0.4 0  0.5 0.4 0  0.525 0.4 0  0.55 0.4 0  0.575 0.4 0  0.6 0.4 0  0.625 0.4 0  0.65 0.4 0  0.675 0.4 0  0.7 0.4 0  0.725 0.4 0  0.75 0.4 0  0.775 0.4 0  0.8 0.4 0  0.825 0.4 0  0.85 0.4 0  0.875 0.4 0  0.9 0.4 0  0.925 0.4 0  0.95 0.4 0  0.975 0.4 0  1 0.4 0  0 0.425 0  0.025 0.425 0  0.05 0.425 0  0.075 0.425 0  0.1 0.425 0  0.125 0.425 0  0.15 0.425 0  0.175 0.425 0  0.2 0.425 0  0.225 0.425 0  0.25 0.425 0  0.275 0.425 0  0.3 0.425 0  0.325 0.425 0  0.35 0.425 0  0.375 0.425 0  0.4 0.425 0  0.425 0.425 0  0.45 0.425 0  0.475 0.425 0  0.5 0.425 0  0.525 0.425 0  0.55 0.425 0  0.575 0.425 0  0.6 0.425 0  0.625 0.425 0  0.65 0.425 0  0.675 0.425 0  0.7 0.425 0  0.725 0.425 0  0.75 0.425 0  0.775 0.425 0  0.8 0.425 0  0.825 0.425 0  0.85 0.425 0  0.875 0.425 0  0.9 0.425 0  0.925 0.425 0  0.95 0.425 0  0.975 0.425 0  1 0.425 0  0 0.45 0  0.02
[...]
<PointData  Scalars="ControlVisualisation"> 
<DataArray  type="Float64"  Name="ControlVisualisation"  format="ascii">2.2403770427545627e-02  1.5171149357437776e-02  1.5171745573263474e-02  1.5172758603490370e-02  1.5174185935101246e-02  1.5176028601047416e-02  1.5178286021460451e-02  1.5180956650187944e-02  1.5184037550920675e-02  1.5187524058326731e-02  1.5191409555214351e-02  1.5195685285036401e-02  1.5200340166680364e-02  1.5205360534607408e-02  1.5210729698730524e-02  1.5216427192660004e-02  1.5222427553162925e-02  1.5228698447800351e-02  1.5235197941020701e-02  1.5241870661381631e-02  1.5248642611822221e-02  1.5255414363236148e-02  1.5262052385686835e-02  1.5268378399240241e-02  1.5274157024594854e-02  1.5279082867689992e-02  1.5282768231784195e-02  1.5284737798244999e-02  1.5284446433757573e-02  1.5281320179789771e-02  1.5274847153024636e-02  1.5264730557580975e-02  1.5251081722578552e-02  1.5234596114490614e-02  1.5216715900899552e-02  1.5199664473766840e-02  1.5185898110277016e-02  1.5176950730988254e-02  1.5172591587823117e-02  1.5171130965103540e-02  4.2322635022418009e-02  1.5171149321461588e-02  7.6453214151106126e-03  7.6459472158470938e-03  7.6470605428116938e-03  7.6486760911613407e-03  7.6507948289406477e-03  7.6534168243659060e-03  7.6565414900816552e-03  7.6601667466970197e-03  7.6642886795880568e-03  7.6689012418392887e-03  7.6739960158082572e-03  7.6795619947593466e-03  7.6855852939674259e-03  7.6920486689575664e-03  7.6989306845340177e-03  7.7062043453906973e-03  7.7138349659441711e-03  7.7217770229652894e-03  7.7299697006702577e-03  7.7383308128292205e-03  7.7467487715886189e-03  7.7550723048884374e-03  7.7630977946730739e-03  7.7705543688777572e-03  7.7770874154537055e-03  7.7822424737040647e-03  7.7854596093402022e-03  7.7860808491488258e-03  7.7833837159064266e-03  7.7767013147213172e-03  7.7655950387516114e-03  7.7500736777737639e-03  7.7307973056337763e-03  7.7091932424207671e-03  7.6875847042876654e-03  7.6689394504169794e-03  7.6558170208731978e-03  7.6486948961757726e-03  7.6458718373102058e-03  1.5171104063998884e-02  1.5171745150363375e-02  7.6459468444536206e-03  7.6467401874618854e-03  7.6480201300364054e-03  7.6498819521676805e-03  7.6523292722710133e-03  7.6553629344682551e-03  7.6589826186265570e-03  7.6631862948768475e-03  7.6679698480738882e-03  7.6733267284909215e-03  7.6792477297086652e-03  7.6857208133251365e-03  7.6927308769088373e-03  7.7002593235211865e-03  7.7082832526561987e-03  7.7167740568826826e-03  7.7256951731498706e-03  7.7349987012298293e-03  7.7446205671156728e-03  7.7544738799277891e-03  7.7644401104732825e-03  7.7743578328050254e-03  7.7840087968663527e-03  7.7931011416897946e-03  7.8012506367402430e-03  7.8079632627424730e-03  7.8126219081420083e-03  7.8144573185144513e-03  7.8126274980584165e-03  7.8063355627185221e-03  7.7949402121216850e-03  7.7782771191403678e-03  7.7570363809662275e-03  7.7324109042499634e-03  7.7063223767811590e-03  7.6820702685298902e-03  7.6635990236145167e-03  7.6522250370729319e-03  7.6470821923538051e-03  1.5171739254631705e-02  1.5172756575274105e-02  7.6470584607547416e-03  7.6480182119503977e-03  7.6493136072294157e-03  7.6511893888509940e-03  7.6536553603656536e-03  7.6567132654615294e-03  7.6603629150752920e-03  7.6646023444566693e-03  7.6694273626943836e-03  7.6748312791864257e-03  7.6808047962810683e-03  7.6873359924266166e-03  7.6944102952730201e-03  7.7020102997471971e-03  7.7101152529744921e-03  7.7186999986723192e-03  7.7277331460562163e-03  7.7371741986919677e-03  7.7469693521159070e-03  7.7570456373953680e-03  7.7673031275520693e-03  7.7776050179741941e-03  7.7877650238042705e-03  7.7975332308079150e-03  7.8065806475306771e-03  7.8144793393621279e-03  7.8206664175591179e-03  7.8244456727185416e-03  7.8251325836133385e-03  7.8215852680663112e-03  7.8128735440323345e-03  7.7986142568688618e-03  7.7801903653575127e-03  7.7588953469562875e-03  7.7342978582230059e-03  7.7064482080831057e-03  7.6794196233856398e-03  7.6586592245575366e-03  7.6469009060119719e-03  1.5171600785436784e-02  1.5174179569739793e-02  7.6486691308362328e-03  7.6498745655254790e-03  7.6511840853571537e-03  7.6530647291391234e-03  7.6555370307602229e-03  7.6586036784941566e-03  7.6622646525753377e-03  7.6665179759319961e-03  7.6713592413573933e-03  7.6767814598801744e-03  7.6827751214828561e-03  7.6893284186213022e-03  7.6964275219983374e-03  7.7040567603839562e-03  7.7121985306517560e-03  7.7208327457282261e-03  7.7299356107160874e-03  7.7394775008142319e-03  7.7494197011434467e-03  7.7597097442616211e-03  7.7702751795287201e-03  7.7810153517746776e-03  7.7917916576353032e-03  7.8024192616969945e-03  7.8126499683715198e-03  7.8221615543061264e-03  7.8305539569393408e-03  7.8374173121554761e-03  7.8418236203652292e-03  7.8421057166841220e-03  7.8396393063347638e-03  7.8328674072337488e-03  7.8244668953089472e-03  7.8228174298281238e-03  7.8192779667598210e-03  7.7889465756627377e-03  7.7377171570039947e-03  7.6936640646330500e-03  7.6667392853198880e-03  1.5170257943820341e-02  1.5176012862991146e-02  7.6507770346679708e-03  7.6523098548193858e-03  7.6536387955576362e-03  7.6555266050694782e-03  7.6580082360934469e-03  7.6610873550176668e-03  7.6647640458374963e-03  7.6690361108484838e-03  7.6738986497378297e-03  7.6793440585911071e-03  7.6853623258239514e-03  7.6919415802228081e-03  7.6990687640722619e-03  7.7067302776772338e-03  7.7149124261270061e-03  7.7236014948642018e-03  7.7327832769588448e-03  7.7424418966639420e-03  7.7525577444527176e-03  7.7631043336494629e-03  7.7740439014658391e-03  7.7853213874759866e-03  7.7968598886696628e-03  7.8085522131949745e-03  7.8202505726170414e-03  7.8318323515962837e-03  7.8431263434356399e-03  7.8539144808044883e-03  7.8634659143129605e-03  7.8757741591915092e-03  7.8931577677437623e-03  7.9214384697717435e-03  8.0374937398311440e-03  8.4292858115359252e-03  8.9523662067184043e-03  9.2443767689370966e-03  9.2464028394621083e-03  8.4256805429089900e-03  7.9510157444462829e-03  1.5521560337300015e-02  1.5178252413801965e-02  7.6533781530792825e-03  7.6553206883143536e-03  7.6566762014651235e-03  7.6585758155565519e-03  7.6610725254813213e-03  7.6641710439883260e-03  7.6678713002266939e-03  7.6721704700924952e-03  7.6770626685305331e-03  7.6825391485212495e-03  7.6885889127869776e-03  7.6951996758259193e-03  7.7023590278035509e-03  7.7100556349773575e-03  7.7182803120857428e-03  7.7270268140166212e-03  7.7362922298259765e-03  7.7460769071396787e-03  7.7563837250166304e-03  7.7672168507271471e-03  7.7785795738667968e-03  7.7904716365987557e-03  7.8028865603481821e-03  7.8157970732728559e-03  7.8292131945941982e-03  7.8432033744173721e-03  7.8577336448050292e-03  7.8742609469025643e-03  7.8963048843553839e-03  7.9413785771106464e-03  8.1260563229961918e-03  8.9511176808816303e-03  1.0621925196069731e-02  1.6590373395979498e-02  6.5032784345665520e-02  2.0217732248857226e-01  2.7703695407821594e-01  1.5616886913528807e-01  1.3337437863731053e-02  1.6137169810305507e-02  1.5180891291823607e-02  7.6564657595423833e-03  7.6589006262809452e-03  7.6602918160427920e-03  7.6622106388089016e-03  7.6647315178999288e-03  7.6678600119929555e-03  7.6715953374752888e-03  7.6759333318596034e-03  7.6808663197480299e-03  7.6863835931747738e-03  7.6924724359861384e-03  7.6991195966284627e-03  7.7063130315967194e-03  7.7140437333694158e-03  7.7223074864378946e-03  7.7311064222489222e-03  7.7404503417358699e-03  7.7503576978150794e-03  7.7608564841813044e-03  7.7719856354120515e-03  7.7837949699397762e-03  7.7963464839968920e-03  7.8097074992388724e-03  7.8239611654499323e-03  7.8392933335387667e-03  7.8557473942047033e-03  7.8748277443527505e-03  7.9025900230302992e-03  7.9726273703154722e-03  8.4963702581325930e-03  1.0134606040806144e-02  1.9843054782067333e-02  1.9186688927566789e-01  6.1598778921610231e-01  9.5216639140926318e-01  9.8553281902692036e-01  9.9111459685759185e-01  9.9271710285531967e-01  9.9187562408191043e-01  8.6644399900656077e-01  1.5183917846125838e-02  7.6600281545151552e-03  7.6630382932042426e-03  7.6644775163250255e-03  7.6664273988936837e-03  7.6689867520533285e-03  7.6721613469398261e-03  7.6759486592400525e-03  7.6803419939809664e-03  7.6853306284375457e-03  7.6909006918240274e-03  7.6970367173466499e-03  7.7037237284231378e-03  7.7109496388803886e-03  7.7187077479950348e-03  7.7269991821133175e-03  7.7358351915917788e-03  7.7452393593191605e-03  7.7552495522384803e-03  7.7659212577298247e-03  7.7773298294131748e-03  7.7895742759766544e-03  7.8027896066494122e-03  7.8171381440403660e-03  7.8328635723700149e-03  7.8502089121190548e-03  7.8700353256360833e-03  7.8991713982002176e-03  7.9921567830983243e-03  8.7217342941925229e-03  1.1976659508629571e-02  6.0071505482934627e-02  5.3153428061718233e-01  9.7187030497153704e-01  9.9137023904830346e-01  9.9514685732037100e-01  9.9685507445909960e-01  9.9781161055599943e-01  9.9839774211818311e-01  9.9876655766240607e-01  9.9721919212541532e-01  1.5187312966714068e-02  7.6640458422408183e-03  7.6677146174782291e-03  7.6692194711619546e-03  7.6712193484284475e-03  7.6738396630893612e-03  7.6770850119046059e-03  7.6809493252077803e-03  7.6854214448882985e-03  7.6904857121952389e-03  7.6961234095224637e-03  7.7023149670996070e-03  7.7090427588553919e-03  7.7162941926160241e-03  7.7240648837507905e-03  7.7323616754030617e-03  7.7412057181029670e-03  7.7506354393033893e-03  7.7607092280552884e-03  7.7715099073901658e-03  7.7831449044531587e-03  7.7957751345193249e-03  7.8096194196747258e-03  7.8249595306444861e-03  7.8422928918728679e-03  7.8625178125228852e-03  7.8915370148450164e-03  7.9937302392730884e-03  8.7887990675904141e-03  1.3220933535248881e-02  1.1270428395992681e-01  8.0140187798423168e-01  9.8654846055830425e-01  9.9422695011728990e-01  9.9666744132704133e-01  9.9781566444475800e-01  9.9846190235273091e-01  9.9889046856335773e-01  9.9919352477379364e-01  9.9938905620168628e-01  9.9883750404405436e-01  1.5191045959133207e-02  7.6684871678035556e-03  7.6728985633224287e-03  7.6744951740444489e-03  7.6765753554623997e-03  7.6792919977234416e-03  7.6826458526494537e-03  7.6866242557481748e-03  7.6912085547195348e-03  7.6963754070349163e-03  7.7020989889640089e-03  7.7083539951807098e-03  7.7151191593259269e-03  7.7223810641184817e-03  7.7301381076840450e-03  7.7384035018327850e-03  7.7472092132458842e-03  7.7566088658183718e-03  7.7666819029023025e-03  7.7775359570147022e-03  7.7893189134309558e-03  7.8022546100122549e-03  7.8165737205555148e-03  7.8329205664329406e-03  7.8527157065556939e-03  7.8808374640167503e-03  7.9777525173896358e-03  8.7893554229623062e-03  1.3429849302159907e-02  1.2342629608296952e-01  8.9006567938970027e-01  9.8895553851928908e-01  9.9504133546168649e-01  9.9709420351357969e-01  9.9802143873982541e-01  9.9854727220293193e-01  9.9890133642465262e-01  9.9916643215414136e-01  9.9936832387412677e-01  9.9950465369501118e-01  9.9911090437512318e-01  1.5195068176585426e-02  7.6733016301848509e-03  7.6785407667192707e-03  7.6802692419691600e-03  7.6824783729839072e-03  7.6853470170198442e-03  7.6888672309717984e-03  7.6930147206093411e-03  7.6977586960057954e-03  7.7030642427561614e-03  7.7088956162010679e-03  7.7152202404642805e-03  7.7220123856512682e-03  7.7292580172731822e-03  7.7369592913401047e-03  7.7451361982077659e-03  7.7538318830601364e-03  7.7631185502929374e-03  7.7731069294191485e-03  7.7839229395210655e-03  7.7957628006708225e-03  7.8087748259752909e-03  7.8234544213614341e-03  7.8416996018739714e-03  7.8677564451607226e-03  7.9548873511404369e-03  8.7434366956330063e-03  1.3093613009564456e-02  1.1597097587254532e-01  8.9498927983726817e-01  9.8910679276111024e-01  9.9514642777704987e-01  9.9713875597793111e-01  9.9800373267343112e-01  9.9847694051712643e-01  9.9878052449949506e-01  9.9900132386104334e-01  9.9917674703443737e-01  9.9931907818572363e-01  9.9942137403715492e-01  9.9899597424270914e-01  1.5199303166607000e-02  7.6784096294961138e-03  7.6845640427958793e-03  7.6864876052360701e-03  7.6889040256335455e-03  7.6920123709135280e-03  7.6957874698843250e-03  7.7001853509046829e-03  7.7051563179122047e-03  7.7106484971422792e-03  7.7166131079495024e-03  7.7230092519803232e-03  7.7298057004582333e-03  7.7369883777588071e-03  7.7445661019860060e-03  7.7525750981291448e-03  7.7610674358123202e-03  7.7701403755113477e-03  7.7799278813039784e-03  7.7905308424638803e-03  7.8023311167380229e-03  7.8154575690607807e-03  7.8318960101749716e-03  7.8550401416903684e-03  7.9390047763353618e-03  8.6989270479723210e-03  1.2663603384188036e-02  1.0354380341467623e-01  8.6137865114472612e-01  9.8823920174556334e-01  9.9489667521094727e-01  9.9700656107905816e-01  9.9789027590623458e-01  9.9835092879837306e-01  9.9862228511406248e-01  9.9879381208465101e-01  9.9890514659679686e-01  9.9897275338467306e-01  9.9899778724534249e-01  9.9895828900467809e-01  9.9817746116943673e-01  1.5203631404417547e-02  7.6836867018185897e-03  7.6908492500266361e-03  7.6930696753244677e-03  7.6958201266058759e-03  7.6993066312136781e-03  7.7034720397736040e-03  7.7082401778314448e-03  7.7135324965060493e-03  7.7192720830554611e-03  7.7253940836649691e-03  7.7318515474461696e-03  7.7386140402103233e-03  7.7456657061835904e-03  7.7530301621908113e-03  7.7607816104780306e-03  7.7689035225934362e-03  7.7775444718176778e-03  7.7869680096872623e-03  7.7974709302538556e-03  7.8099801834139899e-03  7.8250517825319624e-03  7.8487189120257182e-03  7.9511115613566091e-03  8.7530496470977822e-03  1.2672535417895368e-02  9.5878573940883227e-02  8.1097942352249430e-01  9.8684201535104688e-01  9.9444813210356409e-01  9.9677545215385821e-01  9.9772523895813581e-01  9.9820283611730176e-01  9.9846414140792006e-01  9.9860135404023986e-01  9.9864769786893304e-01  9.9860096345334082e-01  9.9841038234360013e-01  9.9793440132671252e-01  9.9634624329799393e-01  9.8960986172156540e-01  1.5207866233489199e-02  7.6889391405972592e-03  7.6972147909250320e-03  7.6998995527533601e-03  7.7031906246054164e-03  7.7072736263100227e-03  7.7120335765923781e-03  7.7173437319889432e-03  7.7230859009878739e-03  7.7291519996250373e-03  7.7354548978029129e-03  7.7419555496430550e-03  7.7486424504091319e-03  7.7554199015820377e-03  7.7623521258227655e-03  7.7696792839194485e-03  7.7773362005005234e-03  7.7856358328068104e-03  7.7954183401618962e-03  7.8069186450752445e-03  7.8216332515020706e-03  7.8578155161911616e-03  8.0669746162005777e-03  9.0806632225043891e-03  1.3869605957113717e-02  1.1410158034139239e-01  8.0195568060003863e-01  9.8571027809335388e-01  9.9397580792562512e-01  9.9650370814519118e-01  9.9753260535868482e-01  9.9804322291469805e-01  9.9831352182984401e-01  9.9843991225588191e-01  9.9845105644551924e-01  9.9832863349855383e-01  9.9797300029148184e-01  9.9701200822640246e-01  9.9395080162807348e-01  7.5772908978591247e-01  2.4472863840187643e-02  1.5211717228215757e-02  7.6938677552298917e-03  7.7033883654908895e-03  7.7068161401371927e-03  7.7109834357523971e-03  7.7160065041311302e-03  7.7216727174989393e-03  7.7277780396742199e-03  7.7341599439665785e-03  7.7406610222655828e-03  7.7470906979536479e-03  7.7534930544897671e-03  7.7600105768438413e-03  7.7663836826193343e-03  7.7728318030961339e-03  7.7802508351534298e-03  7.7888422736228247e-03  7.7961713385377926e-03  7.8087037244495396e-03  7.8359948466446006e-03  7.9427296524341613e-03  8.5410173449032914e-03  1.0117486788213290e-02  1.9779798034069283e-02  2.1386818722840531e-01  8.7312102965746896e-01  9.8613562176114555e-01  9.9375635845615995e-01  9.9628082530405515e-01  9.9734490680398447e-01  9.9788077383014573e-01  9.9816633038759284e-01  9.9829849128690629e-01  9.9830432359752563e-01  9.9816083463499772e-01  9.9775842072129350e-01  9.9668552397121812e-01  9.9347489180106896e-01  9.4112443519397138e-01  2.7213032351039786e-02  1.6453362549390491e-02  1.5214732054080044e-02  7.6980095148541337e-03  7.7089650325501127e-03  7.7136140552757342e-03  7.7192246748340907e-03  7.7257461478037887e-03  7.7327785441521669e-03  7.7399545970688096e-03  7.7471397006643235e-03  7.7541964573412002e-03  7.7607108557494770e-03  7.7670668881260167e-03  7.7741523900795714e-03  7.7813425705019548e-03  7.7863223690110474e-03  7.7941094313339378e-03  7.8131824987980464e-03  7.8424742318372875e-03  8.0003245278441517e-03  8.5801379341703590e-03  9.7294748631951682e-03  1.4607655363358816e-02  8.5238178191344813e-02  4.8395154864237816e-01  9.5531673492779712e-01  9.8866217298451364e-01  9.9408752345376550e-01  9.9624368167005639e-01  9.9722512512198558e-01  9.9774192778480442e-01  9.9802621488474663e-01  9.9816324734606521e-01  9.9817686718875465e-01  9.9804500344684599e-01  9.9766938972911767e-01  9.9671656996601765e-01  9.9399978038771286e-01  9.7534032395025694e-01  2.5932942222786631e-01  1.0322308238135434e-02  1.5910416469659624e-02  1.5216203955681878e-02  7.7006666125866222e-03  7.7133987865288280e-03  7.7201027735337114e-03  7.7280432407212116e-03  7.7368233821434040e-03  7.7458681645769072e-03  7.7545735765955030e-03  7.7632065294773733e-03  7.7720466195146630e-03  7.7794608736625991e-03  7.7840524916391249e-03  7.7926014991984271e-03  7.8097734460713317e-03  7.8314822610802085e-03  7.9310510313723905e-03  8.3386953932029287e-03  9.0942540048722185e-03  1.0525046752816075e-02  1.7422769733670206e-02  1.0363748382378639e-01  4.2428238459510165e-01  8.8660121371339440e-01  9.8339794751668796e-01  9.9193162410313773e-01  9.9501242457780037e-01  9.9650111499046001e-01  9.9725831635174023e-01  9.9768298930268950e-01  9.9792380636320521e-01  9.9804072365091046e-01  9.9805027504255583e-01  9.9793215483432196e-01  9.9760395795265333e-01  9.9680563277525902e-01  9.9455928929030690e-01  9.8703980903229649e-01  5.6933766131315999e-01  1.7675583687929285e-02  8.6090497955747299e-03  1.5302797669483378e-02  1.5215102157637240e-02  7.7008166271520587e-03  7.7159166334498878e-03  7.7260549213810405e-03  7.7379070569325598e-03  7.7506154060328417e-03  7.7636354310537626e-03  7.7746074552573641e-03  7.7832709129058743e-03  7.7959095873635104e-03  7.8128246567559304e-03  7.8352443478618763e-03  7.9518304098882952e-03  8.3697615918771669e-03  9.0972096798485058e-03  1.0196722779214493e-02  1.4326122869899205e-02  4.8030878032061207e-02  2.7051308423237291e-01  5.8987381718856158e-01  9.3411204082383603e-01  9.8452533063338465e-01  9.9174732840811641e-01  9.9462051071279078e-01  9.9617006761680427e-01  9.9700705734098038e-01  9.9748491668966721e-01  9.9776500734275964e-01  9.9791845373792776e-01  9.9797667721513283e-01  9.9794676589940734e-01  9.9781058502716324e-01  9.9750312053763501e-01  9.9682857782769818e-01  9.9498412345590104e-01  9.8885971275686502e-01  8.4976030045261586e-01  5.3193969398613955e-02  9.8299161294485727e-03  7.9325899353807315e-03  1.5297024237168699e-02  1.5209794545451462e-02  7.6969523062779422e-03  7.7159425819503160e-03  7.7326516892116557e-03  7.7513602394090808e-03  7.7687276068219412e-03  7.7865326022302853e-03  7.8051974874905321e-03  7.8340517223771389e-03  7.9778854377329546e-03  8.4513350580449932e-03  9.1916339058679113e-03  1.0387316276123010e-02  1.5062383298021982e-02  5.2152441566928880e-02  2.7727766113177665e-01  5.4769331855584380e-01  8.8923715079221555e-01  9.7826428946305144e-01  9.8973695493772951e-01  9.9333371403163051e-01  9.9528323181446088e-01  9.9647077696912489e-01  9.9716464717229591e-01  9.9758580534974717e-01  9.9784323168712319e-01  9.9798982821917026e-01  9.9805118185801966e-01  9.9803646276596325e-01  9.9794143506466437e-01  9.9774481675648474e-01  9.9739227210224901e-01  9.9673857040542291e-01  9.9525561071877477e-01  9.9092384655731736e-01  9.0713858778347312e-01  2.8052993771142931e-01  1.2119441068058200e-02  8.3514253208678713e-03  7.8275048335704738e-03  1.5298670560151795e-02  1.5198826028797982e-02  7.6881153058204546e-03  7.7143789735327137e-03  7.7407193976961833e-03  7.7689241165543217e-03  7.8024020457827144e-03  7.9030334016983676e-03  8.3309142376419079e-03  9.050557368