<?xml version="1.0"?>
<VTKFile type="UnstructuredGrid"  version="0.1"  >
<UnstructuredGrid>
<Piece  NumberOfPoints="1681" NumberOfCells="3200">
<Points>
<DataArray  type="Float64"  NumberOfComponents="3"  format="ascii">0 0 0  0.025 0 0  0.05 0 0  0.075 0 0  0.1 0 0  0.125 0 0  0.15 0 0  0.175 0 0  0.2 0 0  0.225 0 0  0.25 0 0  0.275 0 0  0.3 0 0  0.325 0 0  0.35 0 0  0.375 0 0  0.4 0 0  0.425 0 0  0.45 0 0  0.475 0 0  0.5 0 0  0.525 0 0  0.55 0 0  0.575 0 0  0.6 0 0  0.625 0 0  0.65 0 0  0.675 0 0  0.7 0 0  0.725 0 0  0.75 0 0  0.775 0 0  0.8 0 0  0.825 0 0  0.85 0 0  0.875 0 0  0.9 0 0  0.925 0 0  0.95 0 0  0.975 0 0  1 0 0  0 0.025 0  0.025 0.025 0  0.05 0.025 0  0.075 0.025 0  0.1 0.025 0  0.125 0.025 0  0.15 0.025 0  0.175 0.025 0  0.2 0.025 0  0.225 0.025 0  0.25 0.025 0  0.275 0.025 0  0.3 0.025 0  0.325 0.025 0  0.35 0.025 0  0.375 0.025 0  0.4 0.025 0  0.425 0.025 0  0.45 0.025 0  0.475 0.025 0  0.5 0.025 0  0.525 0.025 0  0.55 0.025 0  0.575 0.025 0  0.6 0.025 0  0.625 0.025 0  0.65 0.025 0  0.675 0.025 0  0.7 0.025 0  0.725 0.025 0  0.75 0.025 0  0.775 0.025 0  0.8 0.025 0  0.825 0.025 0  0.85 0.025 0  0.875 0.025 0  0.9 0.025 0  0.925 0.025 0  0.95 0.025 0  0.975 0.025 0  1 0.025 0  0 0.05 0  0.025 0.05 0  0.05 0.05 0  0.075 0.05 0  0.1 0.05 0  0.125 0.05 0  0.15 0.05 0  0.175 0.05 0  0.2 0.05 0  0.225 0.05 0  0.25 0.05 0  0.275 0.05 0  0.3 0.05 0  0.325 0.05 0  0.35 0.05 0  0.375 0.05 0  0.4 0.05 0  0.425 0.05 0  0.45 0.05 0  0.475 0.05 0  0.5 0.05 0  0.525 0.05 0  0.55 0.05 0  0.575 0.05 0  0.6 0.05 0  0.625 0.05 0  0.65 0.05 0  0.675 0.05 0  0.7 0.05 0  0.725 0.05 0  0.75 0.05 0  0.775 0.05 0  0.8 0.05 0  0.825 0.05 0  0.85 0.05 0  0.875 0.05 0  0.9 0.05 0  0.925 0.05 0  0.95 0.05 0  0.975 0.05 0  1 0.05 0  0 0.075 0  0.025 0.075 0  0.05 0.075 0  0.075 0.075 0  0.1 0.075 0  0.125 0.075 0  0.15 0.075 0  0.175 0.075 0  0.2 0.075 0  0.225 0.075 0  0.25 0.075 0  0.275 0.075 0  0.3 0.075 0  0.325 0.075 0  0.35 0.075 0  0.375 0.075 0  0.4 0.075 0  0.425 0.075 0  0.45 0.075 0  0.475 0.075 0  0.5 0.075 0  0.525 0.075 0  0.55 0.075 0  0.575 0.075 0  0.6 0.075 0  0.625 0.075 0  0.65 0.075 0  0.675 0.075 0  0.7 0.075 0  0.725 0.075 0  0.75 0.075 0  0.775 0.075 0  0.8 0.075 0  0.825 0.075 0  0.85 0.075 0  0.875 0.075 0  0.9 0.075 0  0.925 0.075 0  0.95 0.075 0  0.975 0.075 0  1 0.075 0  0 0.1 0  0.025 0.1 0  0.05 0.1 0  0.075 0.1 0  0.1 0.1 0  0.125 0.1 0  0.15 0.1 0  0.175 0.1 0  0.2 0.1 0  0.225 0.1 0  0.25 0.1 0  0.275 0.1 0  0.3 0.1 0  0.325 0.1 0  0.35 0.1 0  0.375 0.1 0  0.4 0.1 0  0.425 0.1 0  0.45 0.1 0  0.475 0.1 0  0.5 0.1 0  0.525 0.1 0  0.55 0.1 0  0.575 0.1 0  0.6 0.1 0  0.625 0.1 0  0.65 0.1 0  0.675 0.1 0  0.7 0.1 0  0.725 0.1 0  0.75 0.1 0  0.775 0.1 0  0.8 0.1 0  0.825 0.1 0  0.85 0.1 0  0.875 0.1 0  0.9 0.1 0  0.925 0.1 0  0.95 0.1 0  0.975 0.1 0  1 0.1 0  0 0.125 0  0.025 0.125 0  0.05 0.125 0  0.075 0.125 0  0.1 0.125 0  0.125 0.125 0  0.15 0.125 0  0.175 0.125 0  0.2 0.125 0  0.225 0.125 0  0.25 0.125 0  0.275 0.125 0  0.3 0.125 0  0.325 0.125 0  0.35 0.125 0  0.375 0.125 0  0.4 0.125 0  0.425 0.125 0  0.45 0.125 0  0.475 0.125 0  0.5 0.125 0  0.525 0.125 0  0.55 0.125 0  0.575 0.125 0  0.6 0.125 0  0.625 0.125 0  0.65 0.125 0  0.675 0.125 0  0.7 0.125 0  0.725 0.125 0  0.75 0.125 0  0.775 0.125 0  0.8 0.125 0  0.825 0.125 0  0.85 0.125 0  0.875 0.125 0  0.9 0.125 0  0.925 0.125 0  0.95 0.125 0  0.975 0.125 0  1 0.125 0  0 0.15 0  0.025 0.15 0  0.05 0.15 0  0.075 0.15 0  0.1 0.15 0  0.125 0.15 0  0.15 0.15 0  0.175 0.15 0  0.2 0.15 0  0.225 0.15 0  0.25 0.15 0  0.275 0.15 0  0.3 0.15 0  0.325 0.15 0  0.35 0.15 0  0.375 0.15 0  0.4 0.15 0  0.425 0.15 0  0.45 0.15 0  0.475 0.15 0  0.5 0.15 0  0.525 0.15 0  0.55 0.15 0  0.575 0.15 0  0.6 0.15 0  0.625 0.15 0  0.65 0.15 0  0.675 0.15 0  0.7 0.15 0  0.725 0.15 0  0.75 0.15 0  0.775 0.15 0  0.8 0.15 0  0.825 0.15 0  0.85 0.15 0  0.875 0.15 0  0.9 0.15 0  0.925 0.15 0  0.95 0.15 0  0.975 0.15 0  1 0.15 0  0 0.175 0  0.025 0.175 0  0.05 0.175 0  0.075 0.175 0  0.1 0.175 0  0.125 0.175 0  0.15 0.175 0  0.175 0.175 0  0.2 0.175 0  0.225 0.175 0  0.25 0.175 0  0.275 0.175 0  0.3 0.175 0  0.325 0.175 0  0.35 0.175 0  0.375 0.175 0  0.4 0.175 0  0.425 0.175 0  0.45 0.175 0  0.475 0.175 0  0.5 0.175 0  0.525 0.175 0  0.55 0.175 0  0.575 0.175 0  0.6 0.175 0  0.625 0.175 0  0.65 0.175 0  0.675 0.175 0  0.7 0.175 0  0.725 0.175 0  0.75 0.175 0  0.775 0.175 0  0.8 0.175 0  0.825 0.175 0  0.85 0.175 0  0.875 0.175 0  0.9 0.175 0  0.925 0.175 0  0.95 0.175 0  0.975 0.175 0  1 0.175 0  0 0.2 0  0.025 0.2 0  0.05 0.2 0  0.075 0.2 0  0.1 0.2 0  0.125 0.2 0  0.15 0.2 0  0.175 0.2 0  0.2 0.2 0  0.225 0.2 0  0.25 0.2 0  0.275 0.2 0  0.3 0.2 0  0.325 0.2 0  0.35 0.2 0  0.375 0.2 0  0.4 0.2 0  0.425 0.2 0  0.45 0.2 0  0.475 0.2 0  0.5 0.2 0  0.525 0.2 0  0.55 0.2 0  0.575 0.2 0  0.6 0.2 0  0.625 0.2 0  0.65 0.2 0  0.675 0.2 0  0.7 0.2 0  0.725 0.2 0  0.75 0.2 0  0.775 0.2 0  0.8 0.2 0  0.825 0.2 0  0.85 0.2 0  0.875 0.2 0  0.9 0.2 0  0.925 0.2 0  0.95 0.2 0  0.975 0.2 0  1 0.2 0  0 0.225 0  0.025 0.225 0  0.05 0.225 0  0.075 0.225 0  0.1 0.225 0  0.125 0.225 0  0.15 0.225 0  0.175 0.225 0  0.2 0.225 0  0.225 0.225 0  0.25 0.225 0  0.275 0.225 0  0.3 0.225 0  0.325 0.225 0  0.35 0.225 0  0.375 0.225 0  0.4 0.225 0  0.425 0.225 0  0.45 0.225 0  0.475 0.225 0  0.5 0.225 0  0.525 0.225 0  0.55 0.225 0  0.575 0.225 0  0.6 0.225 0  0.625 0.225 0  0.65 0.225 0  0.675 0.225 0  0.7 0.225 0  0.725 0.225 0  0.75 0.225 0  0.775 0.225 0  0.8 0.225 0  0.825 0.225 0  0.85 0.225 0  0.875 0.225 0  0.9 0.225 0  0.925 0.225 0  0.95 0.225 0  0.975 0.225 0  1 0.225 0  0 0.25 0  0.025 0.25 0  0.05 0.25 0  0.075 0.25 0  0.1 0.25 0  0.125 0.25 0  0.15 0.25 0  0.175 0.25 0  0.2 0.25 0  0.225 0.25 0  0.25 0.25 0  0.275 0.25 0  0.3 0.25 0  0.325 0.25 0  0.35 0.25 0  0.375 0.25 0  0.4 0.25 0  0.425 0.25 0  0.45 0.25 0  0.475 0.25 0  0.5 0.25 0  0.525 0.25 0  0.55 0.25 0  0.575 0.25 0  0.6 0.25 0  0.625 0.25 0  0.65 0.25 0  0.675 0.25 0  0.7 0.25 0  0.725 0.25 0  0.75 0.25 0  0.775 0.25 0  0.8 0.25 0  0.825 0.25 0  0.85 0.25 0  0.875 0.25 0  0.9 0.25 0  0.925 0.25 0  0.95 0.25 0  0.975 0.25 0  1 0.25 0  0 0.275 0  0.025 0.275 0  0.05 0.275 0  0.075 0.275 0  0.1 0.275 0  0.125 0.275 0  0.15 0.275 0  0.175 0.275 0  0.2 0.275 0  0.225 0.275 0  0.25 0.275 0  0.275 0.275 0  0.3 0.275 0  0.325 0.275 0  0.35 0.275 0  0.375 0.275 0  0.4 0.275 0  0.425 0.275 0  0.45 0.275 0  0.475 0.275 0  0.5 0.275 0  0.525 0.275 0  0.55 0.275 0  0.575 0.275 0  0.6 0.275 0  0.625 0.275 0  0.65 0.275 0  0.675 0.275 0  0.7 0.275 0  0.725 0.275 0  0.75 0.275 0  0.775 0.275 0  0.8 0.275 0  0.825 0.275 0  0.85 0.275 0  0.875 0.275 0  0.9 0.275 0  0.925 0.275 0  0.95 0.275 0  0.975 0.275 0  1 0.275 0  0 0.3 0  0.025 0.3 0  0.05 0.3 0  0.075 0.3 0  0.1 0.3 0  0.125 0.3 0  0.15 0.3 0  0.175 0.3 0  0.2 0.3 0  0.225 0.3 0  0.25 0.3 0  0.275 0.3 0  0.3 0.3 0  0.325 0.3 0  0.35 0.3 0  0.375 0.3 0  0.4 0.3 0  0.425 0.3 0  0.45 0.3 0  0.475 0.3 0  0.5 0.3 0  0.525 0.3 0  0.55 0.3 0  0.575 0.3 0  0.6 0.3 0  0.625 0.3 0  0.65 0.3 0  0.675 0.3 0  0.7 0.3 0  0.725 0.3 0  0.75 0.3 0  0.775 0.3 0  0.8 0.3 0  0.825 0.3 0  0.85 0.3 0  0.875 0.3 0  0.9 0.3 0  0.925 0.3 0  0.95 0.3 0  0.975 0.3 0  1 0.3 0  0 0.325 0  0.025 0.325 0  0.05 0.325 0  0.075 0.325 0  0.1 0.325 0  0.125 0.325 0  0.15 0.325 0  0.175 0.325 0  0.2 0.325 0  0.225 0.325 0  0.25 0.325 0  0.275 0.325 0  0.3 0.325 0  0.325 0.325 0  0.35 0.325 0  0.375 0.325 0  0.4 0.325 0  0.425 0.325 0  0.45 0.325 0  0.475 0.325 0  0.5 0.325 0  0.525 0.325 0  0.55 0.325 0  0.575 0.325 0  0.6 0.325 0  0.625 0.325 0  0.65 0.325 0  0.675 0.325 0  0.7 0.325 0  0.725 0.325 0  0.75 0.325 0  0.775 0.325 0  0.8 0.325 0  0.825 0.325 0  0.85 0.325 0  0.875 0.325 0  0.9 0.325 0  0.925 0.325 0  0.95 0.325 0  0.975 0.325 0  1 0.325 0  0 0.35 0  0.025 0.35 0  0.05 0.35 0  0.075 0.35 0  0.1 0.35 0  0.125 0.35 0  0.15 0.35 0  0.175 0.35 0  0.2 0.35 0  0.225 0.35 0  0.25 0.35 0  0.275 0.35 0  0.3 0.35 0  0.325 0.35 0  0.35 0.35 0  0.375 0.35 0  0.4 0.35 0  0.425 0.35 0  0.45 0.35 0  0.475 0.35 0  0.5 0.35 0  0.525 0.35 0  0.55 0.35 0  0.575 0.35 0  0.6 0.35 0  0.625 0.35 0  0.65 0.35 0  0.675 0.35 0  0.7 0.35 0  0.725 0.35 0  0.75 0.35 0  0.775 0.35 0  0.8 0.35 0  0.825 0.35 0  0.85 0.35 0  0.875 0.35 0  0.9 0.35 0  0.925 0.35 0  0.95 0.35 0  0.975 0.35 0  1 0.35 0  0 0.375 0  0.025 0.375 0  0.05 0.375 0  0.075 0.375 0  0.1 0.375 0  0.125 0.375 0  0.15 0.375 0  0.175 0.375 0  0.2 0.375 0  0.225 0.375 0  0.25 0.375 0  0.275 0.375 0  0.3 0.375 0  0.325 0.375 0  0.35 0.375 0  0.375 0.375 0  0.4 0.375 0  0.425 0.375 0  0.45 0.375 0  0.475 0.375 0  0.5 0.375 0  0.525 0.375 0  0.55 0.375 0  0.575 0.375 0  0.6 0.375 0  0.625 0.375 0  0.65 0.375 0  0.675 0.375 0  0.7 0.375 0  0.725 0.375 0  0.75 0.375 0  0.775 0.375 0  0.8 0.375 0  0.825 0.375 0  0.85 0.375 0  0.875 0.375 0  0.9 0.375 0  0.925 0.375 0  0.95 0.375 0  0.975 0.375 0  1 0.375 0  0 0.4 0  0.025 0.4 0  0.05 0.4 0  0.075 0.4 0  0.1 0.4 0  0.125 0.4 0  0.15 0.4 0  0.175 0.4 0  0.2 0.4 0  0.225 0.4 0  0.25 0.4 0  0.275 0.4 0  0.3 0.4 0  0.325 0.4 0  0.35 0.4 0  0.375 0.4 0  0.4 0.4 0  0.425 0.4 0  0.45 0.4 0  0.475 0.4 0  0.5 0.4 0  0.525 0.4 0  0.55 0.4 0  0.575 0.4 0  0.6 0.4 0  0.625 0.4 0  0.65 0.4 0  0.675 0.4 0  0.7 0.4 0  0.725 0.4 0  0.75 0.4 0  0.775 0.4 0  0.8 0.4 0  0.825 0.4 0  0.85 0.4 0  0.875 0.4 0  0.9 0.4 0  0.925 0.4 0  0.95 0.4 0  0.975 0.4 0  1 0.4 0  0 0.425 0  0.025 0.425 0  0.05 0.425 0  0.075 0.425 0  0.1 0.425 0  0.125 0.425 0  0.15 0.425 0  0.175 0.425 0  0.2 0.425 0  0.225 0.425 0  0.25 0.425 0  0.275 0.425 0  0.3 0.425 0  0.325 0.425 0  0.35 0.425 0  0.375 0.425 0  0.4 0.425 0  0.425 0.425 0  0.45 0.425 0  0.475 0.425 0  0.5 0.425 0  0.525 0.425 0  0.55 0.425 0  0.575 0.425 0  0.6 0.425 0  0.625 0.425 0  0.65 0.425 0  0.675 0.425 0  0.7 0.425 0  0.725 0.425 0  0.75 0.425 0  0.775 0.425 0  0.8 0.425 0  0.825 0.425 0  0.85 0.425 0  0.875 0.425 0  0.9 0.425 0  0.925 0.425 0  0.95 0.425 0  0.975 0.425 0  1 0.425 0  0 0.45 0  0.02
[...]
<PointData  Scalars="ControlVisualisation"> 
<DataArray  type="Float64"  Name="ControlVisualisation"  format="ascii">8.5117383702603550e-02  5.8501145953855291e-02  5.8503830073902544e-02  5.8508409380259072e-02  5.8514859728344339e-02  5.8523171376512216e-02  5.8533322138834734e-02  5.8545282253675474e-02  5.8559012350665726e-02  5.8574462239768234e-02  5.8591570230989896e-02  5.8610262579460289e-02  5.8630453028999538e-02  5.8652042190453224e-02  5.8674916405797098e-02  5.8698945658071197e-02  5.8723979986174520e-02  5.8749843748957649e-02  5.8776326948549923e-02  5.8803172680585734e-02  5.8830059655791682e-02  5.8856578689001633e-02  5.8882202184117459e-02  5.8906246366313891e-02  5.8927827912892007e-02  5.8945817857151861e-02  5.8958799672620632e-02  5.8965052190630377e-02  5.8962591937426895e-02  5.8949284590024187e-02  5.8923110410625257e-02  5.8882680735893408e-02  5.8827995260903203e-02  5.8761406250088938e-02  5.8688621271178229e-02  5.8618871584638188e-02  5.8562312554373455e-02  5.8525283762315583e-02  5.8507033258832705e-02  5.8500905357938893e-02  1.5526125506655969e-01  5.8501146317324677e-02  3.0168776026900299e-02  3.0172275862275222e-02  3.0178455113239109e-02  3.0187416520080959e-02  3.0199144270190312e-02  3.0213611613358018e-02  3.0230783734700964e-02  3.0250612419194488e-02  3.0273034775953736e-02  3.0297971866503053e-02  3.0325327634575280e-02  3.0354988015780050e-02  3.0386819845798673e-02  3.0420669087983854e-02  3.0456357755965169e-02  3.0493678758731626e-02  3.0532387728133589e-02  3.0572190694895942e-02  3.0612726266994468e-02  3.0653540756553271e-02  3.0694054614606593e-02  3.0733518747343598e-02  3.0770960211474123e-02  3.0805118239021524e-02  3.0834374482566488e-02  3.0856693306538532e-02  3.0869594400809781e-02  3.0870177596221966e-02  3.0855244530752324e-02  3.0821711009687423e-02  3.0767236685765267e-02  3.0691239718628416e-02  3.0596127703924419e-02  3.0488641180437783e-02  3.0380762049242883e-02  3.0287605916127343e-02  3.0221896650792973e-02  3.0185943830990616e-02  3.0171263464267871e-02  5.8500813839127190e-02  5.8503834402962251e-02  3.0172279998128666e-02  3.0177068288308902e-02  3.0184530570707899e-02  3.0195388088434045e-02  3.0209640108114690e-02  3.0227261037612391e-02  3.0248211636988199e-02  3.0272436909498317e-02  3.0299864492285840e-02  3.0330402717568095e-02  3.0363939459222972e-02  3.0400341239959140e-02  3.0439452184308970e-02  3.0481092243213603e-02  3.0525053950238201e-02  3.0571096810732213e-02  3.0618938242011569e-02  3.0668239761600841e-02  3.0718586848597650e-02  3.0769460637026843e-02  3.0820199489631005e-02  3.0869948505864643e-02  3.0917595653821663e-02  3.0961694374138159e-02  3.1000381928759018e-02  3.1031307204000436e-02  3.1051562644720417e-02  3.1057682456189818e-02  3.1045863486535388e-02  3.1012393353308902e-02  3.0953920021554157e-02  3.0869043935635238e-02  3.0759312693631712e-02  3.0629737333804068e-02  3.0491485648113985e-02  3.0363293494250859e-02  3.0265939357966596e-02  3.0206277863233631e-02  3.0178463013550830e-02  5.8503766596798845e-02  5.8508430199344395e-02  3.0178478338848142e-02  3.0184552818403342e-02  3.0192127844878621e-02  3.0203085487080499e-02  3.0217467920065740e-02  3.0235256502565516e-02  3.0256412293548286e-02  3.0280880711708487e-02  3.0308588980477918e-02  3.0339444669330716e-02  3.0373335039845680e-02  3.0410126817829234e-02  3.0449666026345856e-02  3.0491777292766677e-02  3.0536261929453141e-02  3.0582893971843304e-02  3.0631413219579552e-02  3.0681514125845456e-02  3.0732829133560950e-02  3.0784904834388855e-02  3.0837168939162038e-02  3.0888885644402155e-02  3.0939098221345551e-02  3.0986558553731301e-02  3.1029650396819888e-02  3.1066280216708535e-02  3.1093823613007891e-02  3.1109258183974312e-02  3.1109276814694900e-02  3.1089745748922148e-02  3.1046712681826440e-02  3.0978621763574580e-02  3.0887598863138837e-02  3.0773948085027359e-02  3.0637498592640540e-02  3.0486622277304434e-02  3.0343880740712571e-02  3.0236153225857498e-02  3.0178042010592567e-02  5.8503379631358848e-02  5.8514924568325230e-02  3.0187493818770360e-02  3.0195474561255889e-02  3.0203150908374513e-02  3.0214141175863029e-02  3.0228562800623710e-02  3.0246404229039715e-02  3.0267627463644836e-02  3.0292178210216070e-02  3.0319982903353519e-02  3.0350947980523745e-02  3.0384959920334957e-02  3.0421886058826644e-02  3.0461575728174376e-02  3.0503861141866009e-02  3.0548557394046078e-02  3.0595460894820195e-02  3.0644345484479103e-02  3.0694955351221874e-02  3.0746993735704078e-02  3.0800105976649228e-02  3.0853854875949400e-02  3.0907687301440667e-02  3.0960890311748493e-02  3.1012528882826768e-02  3.1061366982123938e-02  3.1105771187521499e-02  3.1143872320858232e-02  3.1173211928684250e-02  3.1190709425349863e-02  3.1193386424653372e-02  3.1184863231504323e-02  3.1161208646884521e-02  3.1141517336303111e-02  3.1133518596672315e-02  3.1088066629231581e-02  3.0914967630223906e-02  3.0636938583539528e-02  3.0383995244802980e-02  3.0227980414865754e-02  5.8492924091441974e-02  5.8523328275721889e-02  3.0199339132073347e-02  3.0209868249110160e-02  3.0217679725996406e-02  3.0228713200412271e-02  3.0243187510457334e-02  3.0261098405151766e-02  3.0282408781168293e-02  3.0307063684800732e-02  3.0334987619428204e-02  3.0366084561938213e-02  3.0400238998652920e-02  3.0437318140934859e-02  3.0477174744049391e-02  3.0519649970378173e-02  3.0564575744374850e-02  3.0611776095804857e-02  3.0661067035412239e-02  3.0712254589567157e-02  3.0765130271032115e-02  3.0819462832992053e-02  3.0874986085024602e-02  3.0931381999758093e-02  3.0988250030887832e-02  3.1045069190052718e-02  3.1101175009958282e-02  3.1155721841269180e-02  3.1207678646735151e-02  3.1255073107185845e-02  3.1301808756998797e-02  3.1359057017465060e-02  3.1464728536305359e-02  3.1672398669196966e-02  3.2336362531550873e-02  3.3795464541423903e-02  3.5456419719389703e-02  3.6223177101220472e-02  3.5702926200735077e-02  3.2760207546746821e-02  3.0801137445455259e-02  5.9136132851703285e-02  5.8533643706142738e-02  3.0214022951965958e-02  3.0227753685265132e-02  3.0235746007287834e-02  3.0246846896854234e-02  3.0261402960189809e-02  3.0279418519899078e-02  3.0300856315034319e-02  3.0325658909118255e-02  3.0353746751706042e-02  3.0385019092088739e-02  3.0419356378941362e-02  3.0456624225829065e-02  3.0496678249226323e-02  3.0539369201486172e-02  3.0584547928034680e-02  3.0632069879848355e-02  3.0681799242088366e-02  3.0733612724828285e-02  3.0787402623602786e-02  3.0843080301948371e-02  3.0900579421470828e-02  3.0959853212554563e-02  3.1020876029891179e-02  3.1083693237366549e-02  3.1148416400169548e-02  3.1215296765066382e-02  3.1285638343839871e-02  3.1366095538969581e-02  3.1488266032805891e-02  3.1771720049231365e-02  3.2921420273751188e-02  3.6089102848716796e-02  4.3577217092509085e-02  6.4696570846106471e-02  1.2147218157701964e-01  1.9090897975600060e-01  2.2294277595457970e-01  1.5315128619389284e-01  4.5950914338061415e-02  6.0843556435753697e-02  5.8545866759876379e-02  3.0231549358120589e-02  3.0249143805181407e-02  3.0257372138218518e-02  3.0268577831826248e-02  3.0283260824335623e-02  3.0301433944450423e-02  3.0323057277623723e-02  3.0348067731889011e-02  3.0376378168968592e-02  3.0407879589096704e-02  3.0442445320993924e-02  3.0479937107716508e-02  3.0520212237442966e-02  3.0563131082650977e-02  3.0608564654568876e-02  3.0656402232391321e-02  3.0706559666342271e-02  3.0758988743675338e-02  3.0813690151328586e-02  3.0870730761747969e-02  3.0930256602633308e-02  3.0992519775534584e-02  3.1057955656038215e-02  3.1127279863445181e-02  3.1201774626672847e-02  3.1285542484257127e-02  3.1391715278001969e-02  3.1579663839236140e-02  3.2217302162020491e-02  3.4776578803150202e-02  4.3384637808287337e-02  7.7998702466390513e-02  2.2636089244489901e-01  6.2178649623438798e-01  8.6457999727809276e-01  9.3608957530825021e-01  9.5742873007037610e-01  9.6434350661225565e-01  9.6142447461142344e-01  7.2490737115399972e-01  5.8559979334184969e-02  3.0251905871775689e-02  3.0274036108700934e-02  3.0282571755686938e-02  3.0293940967357814e-02  3.0308820974680684e-02  3.0327231057209799e-02  3.0349124004003789e-02  3.0374425693756937e-02  3.0403035852121802e-02  3.0434832072113647e-02  3.0469676302567611e-02  3.0507423430372896e-02  3.0547930881146178e-02  3.0591068481147860e-02  3.0636728179527273e-02  3.0684834120548513e-02  3.0735354216806031e-02  3.0788315818449680e-02  3.0843830489119609e-02  3.0902116502386438e-02  3.0963540165804854e-02  3.1028708954825394e-02  3.1098558016971648e-02  3.1174839013773072e-02  3.1262925883286143e-02  3.1382242022179055e-02  3.1636014970883850e-02  3.2694531979812910e-02  3.7093165662581813e-02  5.3758743177007927e-02  1.4602790335123744e-01  5.6688056935321696e-01  9.0964163318793601e-01  9.6425130405581594e-01  9.7888917071527615e-01  9.8568277007305949e-01  9.8975398580024376e-01  9.9241350040337206e-01  9.9414402608701236e-01  9.8712292334895924e-01  5.8575938736512241e-02  3.0275050586181757e-02  3.0302399429229583e-02  3.0311339234747263e-02  3.0322964445894145e-02  3.0338150570005010e-02  3.0356917704406440e-02  3.0379203023335404e-02  3.0404912603853695e-02  3.0433924684209246e-02  3.0466096281918272e-02  3.0501272576890653e-02  3.0539298294352049e-02  3.0580029739479115e-02  3.0623346503264925e-02  3.0669162547582833e-02  3.0717437618439963e-02  3.0768190380796749e-02  3.0821519244309890e-02  3.0877630308123762e-02  3.0936883312960704e-02  3.0999930662490512e-02  3.1067767124435357e-02  3.1142208827108681e-02  3.1228930887013475e-02  3.1350455832324375e-02  3.1651017554736156e-02  3.3025056724859031e-02  3.9116239102998933e-02  6.5487393166489480e-02  2.3105422791199515e-01  7.8503462852969752e-01  9.5328488270309086e-01  9.7684356868759015e-01  9.8560036589761946e-01  9.9014978654042529e-01  9.9288541043026046e-01  9.9478812066344291e-01  9.9618025544521249e-01  9.9709704061794424e-01  9.9449626512163247e-01  5.8593661694107291e-02  3.0300891614244811e-02  3.0334152663970972e-02  3.0343634852515067e-02  3.0355662978794197e-02  3.0371325896036080e-02  3.0390632691843680e-02  3.0413490650252048e-02  3.0439772199401711e-02  3.0469321975713892e-02  3.0501966991017444e-02  3.0537529445048530e-02  3.0575841049772335e-02  3.0616757221724866e-02  3.0660170036567642e-02  3.0706019621790079e-02  3.0754302794684659e-02  3.0805082982795887e-02  3.0858513559958778e-02  3.0914873331526940e-02  3.0974709632272421e-02  3.1038983601831979e-02  3.1109458480340146e-02  3.1192184120416553e-02  3.1310937022118950e-02  3.1634013510420812e-02  3.3177202408192996e-02  4.0237608237336603e-02  7.0788033403355183e-02  2.9381590934228502e-01  8.7596323004259102e-01  9.6333771325458029e-01  9.8066265199212643e-01  9.8770950979203620e-01  9.9123186106509820e-01  9.9336704731061187e-01  9.9488128030630230e-01  9.9606771153905371e-01  9.9700147481594770e-01  9.9764487456004780e-01  9.9578586909582922e-01  5.8612999415872905e-02  3.0329255283347949e-02  3.0369132895945478e-02  3.0379363437335521e-02  3.0392029556027149e-02  3.0408437455493896e-02  3.0428562690238536e-02  3.0452258753967929e-02  3.0479343084702435e-02  3.0509609781293696e-02  3.0542844324277299e-02  3.0578840205670116e-02  3.0617416269354630e-02  3.0658431164665653e-02  3.0701795877520945e-02  3.0747482750225409e-02  3.0795527712815414e-02  3.0846044458081055e-02  3.0899242907356014e-02  3.0955452415821313e-02  3.1015378438015107e-02  3.1080570202726109e-02  3.1157434130048470e-02  3.1271774231504408e-02  3.1600025369852833e-02  3.3200392179572963e-02  4.0560323353117295e-02  6.9875607411969978e-02  2.9216086984313361e-01  8.9712612742948439e-01  9.6674729796809555e-01  9.8199126217253452e-01  9.8825267445552922e-01  9.9132521443608546e-01  9.9312788744907454e-01  9.9434768031984633e-01  9.9528434373958785e-01  9.9607108412284484e-01  9.9674012708404147e-01  9.9723821410426772e-01  9.9523781463697192e-01  5.8633698656534457e-02  3.0359836762038496e-02  3.0407046998440448e-02  3.0418344066905311e-02  3.0432027105390336e-02  3.0449603142117407e-02  3.0470973139563279e-02  3.0495897583345092e-02  3.0524107305895418e-02  3.0555324314217491e-02  3.0589280532088300e-02  3.0625737529635474e-02  3.0664505417009227e-02  3.0705452906922517e-02  3.0748523508211788e-02  3.0793748238003779e-02  3.0841241109437267e-02  3.0891176809591733e-02  3.0943764633380916e-02  3.0999375428370477e-02  3.1059416659367518e-02  3.1129475954981140e-02  3.1237295540826080e-02  3.1563744502787400e-02  3.3185380214579230e-02  4.0611347292163716e-02  6.7240315227050526e-02  2.6482000527555305e-01  8.9886964786355350e-01  9.6707811457643866e-01  9.8209871074486077e-01  9.8816122895855019e-01  9.9106348080682694e-01  9.9267691032131911e-01  9.9365664930469744e-01  9.9428653074633710e-01  9.9470437980802473e-01  9.9497006046119640e-01  9.9508618831287432e-01  9.9496039705928097e-01  9.9135085889651275e-01  5.8655340707705762e-02  3.0392123091497029e-02  3.0447398284877376e-02  3.0460267913010802e-02  3.0475582927019906e-02  3.0494997392608372e-02  3.0518265307203814e-02  3.0544990886753911e-02  3.0574772792807313e-02  3.0607234898246110e-02  3.0642043082111360e-02  3.0678929885248007e-02  3.0717718146457192e-02  3.0758326720397272e-02  3.0800761693057069e-02  3.0845136775905443e-02  3.0891641635634511e-02  3.0940443303552504e-02  3.0992217110715217e-02  3.1048773148786471e-02  3.1115384467269407e-02  3.1218913529815304e-02  3.1555950003978095e-02  3.3261384818797354e-02  4.0848574898301071e-02  6.6628792692046412e-02  2.5948740186591629e-01  8.9357417294102159e-01  9.6587837997336634e-01  9.8152535390036122e-01  9.8774087187912496e-01  9.9065512632967612e-01  9.9219796653577874e-01  9.9302406175293900e-01  9.9339032954125284e-01  9.9337984500369736e-01  9.9293963075046598e-01  9.9179187934371771e-01  9.8944615107139811e-01  9.8104732332073141e-01  9.4937563820778248e-01  5.8677244060264012e-02  3.0425271607734814e-02  3.0489375561128247e-02  3.0504644376045217e-02  3.0522600008928695e-02  3.0544920302465590e-02  3.0571083763075366e-02  3.0600434764390002e-02  3.0632379459009262e-02  3.0666430470966236e-02  3.0702203313451876e-02  3.0739422974716907e-02  3.0777961664180471e-02  3.0817830570654604e-02  3.0858961955873856e-02  3.0901671950586053e-02  3.0946790115824824e-02  3.0995219966663653e-02  3.1050138419316732e-02  3.1119232049981207e-02  3.1237216255421633e-02  3.1657342056781126e-02  3.3693661888306276e-02  4.1835343674937846e-02  7.0688499588532294e-02  2.7075578748320617e-01  8.8895056041536102e-01  9.6425584854749757e-01  9.8061523361212599e-01  9.8712625949738664e-01  9.9015918509403966e-01  9.9172808706432525e-01  9.9250218496736287e-01  9.9272001411092836e-01  9.9240806284582106e-01  9.9137655967082805e-01  9.8897787238699197e-01  9.8332746093764545e-01  9.6318526975185781e-01  5.5956839913361378e-01  8.2002247964160987e-02  5.8698310963624808e-02  3.0457923297679049e-02  3.0531694733028074e-02  3.0550741078067826e-02  3.0572995085096314e-02  3.0599911714500251e-02  3.0630485641612550e-02  3.0663655587173114e-02  3.0698561662557633e-02  3.0734621012259801e-02  3.0771427999860525e-02  3.0808573050488810e-02  3.0846066932561662e-02  3.0884510573054063e-02  3.0924005941816858e-02  3.0965875663661095e-02  3.1013261709457129e-02  3.1068854765093974e-02  3.1147623978011404e-02  3.1336958055581836e-02  3.2080340792354466e-02  3.5173620198495160e-02  4.5256766418454039e-02  8.5581171806739187e-02  2.9108580279844204e-01  8.9431787013663722e-01  9.6352552876002406e-01  9.7978434097030298e-01  9.8645446470582054e-01  9.8960488561575188e-01  9.9124454796746597e-01  9.9204394256800443e-01  9.9223052090165886e-01  9.9179784881433941e-01  9.9047328590903849e-01  9.8736995332187494e-01  9.7972417591759386e-01  9.5430420656607096e-01  6.7516857004788711e-01  5.1695285253932952e-02  6.1110869952497635e-02  5.8716785288210685e-02  3.0487900729142980e-02  3.0572347364305769e-02  3.0597519778461028e-02  3.0626859417765415e-02  3.0661123562844030e-02  3.0698457672905861e-02  3.0737105260996222e-02  3.0775706448808792e-02  3.0813811859324733e-02  3.0851549292670883e-02  3.0888413594146433e-02  3.0925152832755869e-02  3.0964641796191246e-02  3.1007260634793817e-02  3.1052913164303138e-02  3.1125325319341819e-02  3.1283959415169635e-02  3.1777583286700058e-02  3.3636038730942688e-02  3.9172574158907701e-02  5.7630751598007485e-02  1.4630372981120945e-01  4.4365858272654884e-01  9.1473643326558962e-01  9.6525602506132391e-01  9.7966895651557173e-01  9.8597825086873214e-01  9.8908047452292003e-01  9.9074319970896529e-01  9.9158187684169519e-01  9.9180398130948866e-01  9.9138693889249352e-01  9.9003547145751303e-01  9.8677026701435344e-01  9.7861535320277360e-01  9.5224480840591486e-01  7.4465043011870902e-01  8.6466811852829575e-02  3.4780078364353796e-02  5.9308402660930216e-02  5.8729834843384225e-02  3.0511765668069336e-02  3.0608391364075803e-02  3.0643845885013767e-02  3.0684911047539735e-02  3.0730632631632910e-02  3.0777894650967547e-02  3.0824294582277204e-02  3.0867882326208716e-02  3.0909347735584045e-02  3.0951306031503544e-02  3.0991983311516671e-02  3.1029714350862953e-02  3.1082310577942224e-02  3.1183107803153788e-02  3.1387383659441104e-02  3.2066656014639469e-02  3.4102163639323654e-02  3.8619829917055107e-02  5.2261848736355705e-02  1.1892011662621867e-01  3.7554455849934598e-01  7.8777923515779857e-01  9.4222199746616331e-01  9.7014617459780472e-01  9.8093336170238932e-01  9.8609488905635301e-01  9.8880611646023187e-01  9.9032022379767926e-01  9.9111251106330500e-01  9.9134611373617809e-01  9.9098621999549330e-01  9.8974902631888906e-01  9.8670258293020940e-01  9.7934517444562796e-01  9.5520869140881381e-01  8.1326992851574653e-01  1.2844248812403752e-01  3.9918977799499815e-02  3.1837766596485233e-02  5.8894659177735446e-02  5.8733132149816257e-02  3.0524281252322850e-02  3.0635536398353536e-02  3.0688242556984487e-02  3.0748847477814777e-02  3.0813292087601155e-02  3.0877166724093436e-02  3.0938040749115672e-02  3.0990426573615969e-02  3.1034883147103575e-02  3.1094244952916780e-02  3.1192247302574343e-02  3.1366081324135958e-02  3.1874922672179833e-02  3.3369468534713800e-02  3.6263671810494905e-02  4.2100436755095311e-02  6.2424260786602827e-02  1.6438390433344383e-01  4.2698627049236476e-01  7.6374530625268200e-01  9.2941194220623957e-01  9.6414717342344047e-01  9.7699894026328338e-01  9.8362268802511899e-01  9.8712198101569892e-01  9.8909414487781921e-01  9.9022000865526028e-01  9.9078783426816130e-01  9.9089745596761791e-01  9.9050232931410342e-01  9.8934994140116084e-01  9.8665979316807284e-01  9.8068851059011497e-01  9.6240713096307262e-01  8.7775048447857118e-01  2.0515104837642661e-01  4.4641715288059082e-02  3.3282112215229892e-02  3.1057540969947658e-02  5.8947586229398490e-02  5.8719637170671447e-02  3.0517183470023895e-02  3.0648501669383422e-02  3.0732850114929950e-02  3.0829301511274918e-02  3.0923954477776974e-02  3.1009571706571395e-02  3.1101490167122558e-02  3.1214532805596960e-02  3.1405501329464763e-02  3.1985422007763616e-02  3.3553561677030878e-02  3.6398168109307780e-02  4.1310181189758571e-02  5.6163957906508570e-02  1.2253441199625832e-01  3.7051805698185392e-01  6.1769801702676197e-01  8.6393332605335016e-01  9.4224681635730512e-01  9.6680339008109173e-01  9.7751148188123638e-01  9.8347778057222468e-01  9.8691866966637554e-01  9.8891701823160449e-01  9.9008340278902462e-01  9.9070526736127085e-01  9.9091104661715013e-01  9.9073408272247887e-01  9.9011088777235834e-01  9.8882576502494368e-01  9.8624817975641588e-01  9.8113861746333375e-01  9.6720333524726410e-01  9.2673508149992212e-01  4.5729180132779246e-01  5.2432547142494977e-02  3.4691713442295352e-02  3.1498068995984625e-02  3.0901603591447113e-02  5.8950858300415576e-02  5.8680313352767563e-02  3.0481913756262365e-02  3.0646794808082693e-02  3.0783955363054252e-02  3.0937805762674183e-02  3.1102515332922298e-02  3.1332937212670532e-02  3.1972956478542043e-02  3.368922301