<?xml version="1.0"?>
<VTKFile type="UnstructuredGrid"  version="0.1"  >
<UnstructuredGrid>
<Piece  NumberOfPoints="1681" NumberOfCells="3200">
<Points>
<DataArray  type="Float64"  NumberOfComponents="3"  format="ascii">0 0 0  0.025 0 0  0.05 0 0  0.075 0 0  0.1 0 0  0.125 0 0  0.15 0 0  0.175 0 0  0.2 0 0  0.225 0 0  0.25 0 0  0.275 0 0  0.3 0 0  0.325 0 0  0.35 0 0  0.375 0 0  0.4 0 0  0.425 0 0  0.45 0 0  0.475 0 0  0.5 0 0  0.525 0 0  0.55 0 0  0.575 0 0  0.6 0 0  0.625 0 0  0.65 0 0  0.675 0 0  0.7 0 0  0.725 0 0  0.75 0 0  0.775 0 0  0.8 0 0  0.825 0 0  0.85 0 0  0.875 0 0  0.9 0 0  0.925 0 0  0.95 0 0  0.975 0 0  1 0 0  0 0.025 0  0.025 0.025 0  0.05 0.025 0  0.075 0.025 0  0.1 0.025 0  0.125 0.025 0  0.15 0.025 0  0.175 0.025 0  0.2 0.025 0  0.225 0.025 0  0.25 0.025 0  0.275 0.025 0  0.3 0.025 0  0.325 0.025 0  0.35 0.025 0  0.375 0.025 0  0.4 0.025 0  0.425 0.025 0  0.45 0.025 0  0.475 0.025 0  0.5 0.025 0  0.525 0.025 0  0.55 0.025 0  0.575 0.025 0  0.6 0.025 0  0.625 0.025 0  0.65 0.025 0  0.675 0.025 0  0.7 0.025 0  0.725 0.025 0  0.75 0.025 0  0.775 0.025 0  0.8 0.025 0  0.825 0.025 0  0.85 0.025 0  0.875 0.025 0  0.9 0.025 0  0.925 0.025 0  0.95 0.025 0  0.975 0.025 0  1 0.025 0  0 0.05 0  0.025 0.05 0  0.05 0.05 0  0.075 0.05 0  0.1 0.05 0  0.125 0.05 0  0.15 0.05 0  0.175 0.05 0  0.2 0.05 0  0.225 0.05 0  0.25 0.05 0  0.275 0.05 0  0.3 0.05 0  0.325 0.05 0  0.35 0.05 0  0.375 0.05 0  0.4 0.05 0  0.425 0.05 0  0.45 0.05 0  0.475 0.05 0  0.5 0.05 0  0.525 0.05 0  0.55 0.05 0  0.575 0.05 0  0.6 0.05 0  0.625 0.05 0  0.65 0.05 0  0.675 0.05 0  0.7 0.05 0  0.725 0.05 0  0.75 0.05 0  0.775 0.05 0  0.8 0.05 0  0.825 0.05 0  0.85 0.05 0  0.875 0.05 0  0.9 0.05 0  0.925 0.05 0  0.95 0.05 0  0.975 0.05 0  1 0.05 0  0 0.075 0  0.025 0.075 0  0.05 0.075 0  0.075 0.075 0  0.1 0.075 0  0.125 0.075 0  0.15 0.075 0  0.175 0.075 0  0.2 0.075 0  0.225 0.075 0  0.25 0.075 0  0.275 0.075 0  0.3 0.075 0  0.325 0.075 0  0.35 0.075 0  0.375 0.075 0  0.4 0.075 0  0.425 0.075 0  0.45 0.075 0  0.475 0.075 0  0.5 0.075 0  0.525 0.075 0  0.55 0.075 0  0.575 0.075 0  0.6 0.075 0  0.625 0.075 0  0.65 0.075 0  0.675 0.075 0  0.7 0.075 0  0.725 0.075 0  0.75 0.075 0  0.775 0.075 0  0.8 0.075 0  0.825 0.075 0  0.85 0.075 0  0.875 0.075 0  0.9 0.075 0  0.925 0.075 0  0.95 0.075 0  0.975 0.075 0  1 0.075 0  0 0.1 0  0.025 0.1 0  0.05 0.1 0  0.075 0.1 0  0.1 0.1 0  0.125 0.1 0  0.15 0.1 0  0.175 0.1 0  0.2 0.1 0  0.225 0.1 0  0.25 0.1 0  0.275 0.1 0  0.3 0.1 0  0.325 0.1 0  0.35 0.1 0  0.375 0.1 0  0.4 0.1 0  0.425 0.1 0  0.45 0.1 0  0.475 0.1 0  0.5 0.1 0  0.525 0.1 0  0.55 0.1 0  0.575 0.1 0  0.6 0.1 0  0.625 0.1 0  0.65 0.1 0  0.675 0.1 0  0.7 0.1 0  0.725 0.1 0  0.75 0.1 0  0.775 0.1 0  0.8 0.1 0  0.825 0.1 0  0.85 0.1 0  0.875 0.1 0  0.9 0.1 0  0.925 0.1 0  0.95 0.1 0  0.975 0.1 0  1 0.1 0  0 0.125 0  0.025 0.125 0  0.05 0.125 0  0.075 0.125 0  0.1 0.125 0  0.125 0.125 0  0.15 0.125 0  0.175 0.125 0  0.2 0.125 0  0.225 0.125 0  0.25 0.125 0  0.275 0.125 0  0.3 0.125 0  0.325 0.125 0  0.35 0.125 0  0.375 0.125 0  0.4 0.125 0  0.425 0.125 0  0.45 0.125 0  0.475 0.125 0  0.5 0.125 0  0.525 0.125 0  0.55 0.125 0  0.575 0.125 0  0.6 0.125 0  0.625 0.125 0  0.65 0.125 0  0.675 0.125 0  0.7 0.125 0  0.725 0.125 0  0.75 0.125 0  0.775 0.125 0  0.8 0.125 0  0.825 0.125 0  0.85 0.125 0  0.875 0.125 0  0.9 0.125 0  0.925 0.125 0  0.95 0.125 0  0.975 0.125 0  1 0.125 0  0 0.15 0  0.025 0.15 0  0.05 0.15 0  0.075 0.15 0  0.1 0.15 0  0.125 0.15 0  0.15 0.15 0  0.175 0.15 0  0.2 0.15 0  0.225 0.15 0  0.25 0.15 0  0.275 0.15 0  0.3 0.15 0  0.325 0.15 0  0.35 0.15 0  0.375 0.15 0  0.4 0.15 0  0.425 0.15 0  0.45 0.15 0  0.475 0.15 0  0.5 0.15 0  0.525 0.15 0  0.55 0.15 0  0.575 0.15 0  0.6 0.15 0  0.625 0.15 0  0.65 0.15 0  0.675 0.15 0  0.7 0.15 0  0.725 0.15 0  0.75 0.15 0  0.775 0.15 0  0.8 0.15 0  0.825 0.15 0  0.85 0.15 0  0.875 0.15 0  0.9 0.15 0  0.925 0.15 0  0.95 0.15 0  0.975 0.15 0  1 0.15 0  0 0.175 0  0.025 0.175 0  0.05 0.175 0  0.075 0.175 0  0.1 0.175 0  0.125 0.175 0  0.15 0.175 0  0.175 0.175 0  0.2 0.175 0  0.225 0.175 0  0.25 0.175 0  0.275 0.175 0  0.3 0.175 0  0.325 0.175 0  0.35 0.175 0  0.375 0.175 0  0.4 0.175 0  0.425 0.175 0  0.45 0.175 0  0.475 0.175 0  0.5 0.175 0  0.525 0.175 0  0.55 0.175 0  0.575 0.175 0  0.6 0.175 0  0.625 0.175 0  0.65 0.175 0  0.675 0.175 0  0.7 0.175 0  0.725 0.175 0  0.75 0.175 0  0.775 0.175 0  0.8 0.175 0  0.825 0.175 0  0.85 0.175 0  0.875 0.175 0  0.9 0.175 0  0.925 0.175 0  0.95 0.175 0  0.975 0.175 0  1 0.175 0  0 0.2 0  0.025 0.2 0  0.05 0.2 0  0.075 0.2 0  0.1 0.2 0  0.125 0.2 0  0.15 0.2 0  0.175 0.2 0  0.2 0.2 0  0.225 0.2 0  0.25 0.2 0  0.275 0.2 0  0.3 0.2 0  0.325 0.2 0  0.35 0.2 0  0.375 0.2 0  0.4 0.2 0  0.425 0.2 0  0.45 0.2 0  0.475 0.2 0  0.5 0.2 0  0.525 0.2 0  0.55 0.2 0  0.575 0.2 0  0.6 0.2 0  0.625 0.2 0  0.65 0.2 0  0.675 0.2 0  0.7 0.2 0  0.725 0.2 0  0.75 0.2 0  0.775 0.2 0  0.8 0.2 0  0.825 0.2 0  0.85 0.2 0  0.875 0.2 0  0.9 0.2 0  0.925 0.2 0  0.95 0.2 0  0.975 0.2 0  1 0.2 0  0 0.225 0  0.025 0.225 0  0.05 0.225 0  0.075 0.225 0  0.1 0.225 0  0.125 0.225 0  0.15 0.225 0  0.175 0.225 0  0.2 0.225 0  0.225 0.225 0  0.25 0.225 0  0.275 0.225 0  0.3 0.225 0  0.325 0.225 0  0.35 0.225 0  0.375 0.225 0  0.4 0.225 0  0.425 0.225 0  0.45 0.225 0  0.475 0.225 0  0.5 0.225 0  0.525 0.225 0  0.55 0.225 0  0.575 0.225 0  0.6 0.225 0  0.625 0.225 0  0.65 0.225 0  0.675 0.225 0  0.7 0.225 0  0.725 0.225 0  0.75 0.225 0  0.775 0.225 0  0.8 0.225 0  0.825 0.225 0  0.85 0.225 0  0.875 0.225 0  0.9 0.225 0  0.925 0.225 0  0.95 0.225 0  0.975 0.225 0  1 0.225 0  0 0.25 0  0.025 0.25 0  0.05 0.25 0  0.075 0.25 0  0.1 0.25 0  0.125 0.25 0  0.15 0.25 0  0.175 0.25 0  0.2 0.25 0  0.225 0.25 0  0.25 0.25 0  0.275 0.25 0  0.3 0.25 0  0.325 0.25 0  0.35 0.25 0  0.375 0.25 0  0.4 0.25 0  0.425 0.25 0  0.45 0.25 0  0.475 0.25 0  0.5 0.25 0  0.525 0.25 0  0.55 0.25 0  0.575 0.25 0  0.6 0.25 0  0.625 0.25 0  0.65 0.25 0  0.675 0.25 0  0.7 0.25 0  0.725 0.25 0  0.75 0.25 0  0.775 0.25 0  0.8 0.25 0  0.825 0.25 0  0.85 0.25 0  0.875 0.25 0  0.9 0.25 0  0.925 0.25 0  0.95 0.25 0  0.975 0.25 0  1 0.25 0  0 0.275 0  0.025 0.275 0  0.05 0.275 0  0.075 0.275 0  0.1 0.275 0  0.125 0.275 0  0.15 0.275 0  0.175 0.275 0  0.2 0.275 0  0.225 0.275 0  0.25 0.275 0  0.275 0.275 0  0.3 0.275 0  0.325 0.275 0  0.35 0.275 0  0.375 0.275 0  0.4 0.275 0  0.425 0.275 0  0.45 0.275 0  0.475 0.275 0  0.5 0.275 0  0.525 0.275 0  0.55 0.275 0  0.575 0.275 0  0.6 0.275 0  0.625 0.275 0  0.65 0.275 0  0.675 0.275 0  0.7 0.275 0  0.725 0.275 0  0.75 0.275 0  0.775 0.275 0  0.8 0.275 0  0.825 0.275 0  0.85 0.275 0  0.875 0.275 0  0.9 0.275 0  0.925 0.275 0  0.95 0.275 0  0.975 0.275 0  1 0.275 0  0 0.3 0  0.025 0.3 0  0.05 0.3 0  0.075 0.3 0  0.1 0.3 0  0.125 0.3 0  0.15 0.3 0  0.175 0.3 0  0.2 0.3 0  0.225 0.3 0  0.25 0.3 0  0.275 0.3 0  0.3 0.3 0  0.325 0.3 0  0.35 0.3 0  0.375 0.3 0  0.4 0.3 0  0.425 0.3 0  0.45 0.3 0  0.475 0.3 0  0.5 0.3 0  0.525 0.3 0  0.55 0.3 0  0.575 0.3 0  0.6 0.3 0  0.625 0.3 0  0.65 0.3 0  0.675 0.3 0  0.7 0.3 0  0.725 0.3 0  0.75 0.3 0  0.775 0.3 0  0.8 0.3 0  0.825 0.3 0  0.85 0.3 0  0.875 0.3 0  0.9 0.3 0  0.925 0.3 0  0.95 0.3 0  0.975 0.3 0  1 0.3 0  0 0.325 0  0.025 0.325 0  0.05 0.325 0  0.075 0.325 0  0.1 0.325 0  0.125 0.325 0  0.15 0.325 0  0.175 0.325 0  0.2 0.325 0  0.225 0.325 0  0.25 0.325 0  0.275 0.325 0  0.3 0.325 0  0.325 0.325 0  0.35 0.325 0  0.375 0.325 0  0.4 0.325 0  0.425 0.325 0  0.45 0.325 0  0.475 0.325 0  0.5 0.325 0  0.525 0.325 0  0.55 0.325 0  0.575 0.325 0  0.6 0.325 0  0.625 0.325 0  0.65 0.325 0  0.675 0.325 0  0.7 0.325 0  0.725 0.325 0  0.75 0.325 0  0.775 0.325 0  0.8 0.325 0  0.825 0.325 0  0.85 0.325 0  0.875 0.325 0  0.9 0.325 0  0.925 0.325 0  0.95 0.325 0  0.975 0.325 0  1 0.325 0  0 0.35 0  0.025 0.35 0  0.05 0.35 0  0.075 0.35 0  0.1 0.35 0  0.125 0.35 0  0.15 0.35 0  0.175 0.35 0  0.2 0.35 0  0.225 0.35 0  0.25 0.35 0  0.275 0.35 0  0.3 0.35 0  0.325 0.35 0  0.35 0.35 0  0.375 0.35 0  0.4 0.35 0  0.425 0.35 0  0.45 0.35 0  0.475 0.35 0  0.5 0.35 0  0.525 0.35 0  0.55 0.35 0  0.575 0.35 0  0.6 0.35 0  0.625 0.35 0  0.65 0.35 0  0.675 0.35 0  0.7 0.35 0  0.725 0.35 0  0.75 0.35 0  0.775 0.35 0  0.8 0.35 0  0.825 0.35 0  0.85 0.35 0  0.875 0.35 0  0.9 0.35 0  0.925 0.35 0  0.95 0.35 0  0.975 0.35 0  1 0.35 0  0 0.375 0  0.025 0.375 0  0.05 0.375 0  0.075 0.375 0  0.1 0.375 0  0.125 0.375 0  0.15 0.375 0  0.175 0.375 0  0.2 0.375 0  0.225 0.375 0  0.25 0.375 0  0.275 0.375 0  0.3 0.375 0  0.325 0.375 0  0.35 0.375 0  0.375 0.375 0  0.4 0.375 0  0.425 0.375 0  0.45 0.375 0  0.475 0.375 0  0.5 0.375 0  0.525 0.375 0  0.55 0.375 0  0.575 0.375 0  0.6 0.375 0  0.625 0.375 0  0.65 0.375 0  0.675 0.375 0  0.7 0.375 0  0.725 0.375 0  0.75 0.375 0  0.775 0.375 0  0.8 0.375 0  0.825 0.375 0  0.85 0.375 0  0.875 0.375 0  0.9 0.375 0  0.925 0.375 0  0.95 0.375 0  0.975 0.375 0  1 0.375 0  0 0.4 0  0.025 0.4 0  0.05 0.4 0  0.075 0.4 0  0.1 0.4 0  0.125 0.4 0  0.15 0.4 0  0.175 0.4 0  0.2 0.4 0  0.225 0.4 0  0.25 0.4 0  0.275 0.4 0  0.3 0.4 0  0.325 0.4 0  0.35 0.4 0  0.375 0.4 0  0.4 0.4 0  0.425 0.4 0  0.45 0.4 0  0.475 0.4 0  0.5 0.4 0  0.525 0.4 0  0.55 0.4 0  0.575 0.4 0  0.6 0.4 0  0.625 0.4 0  0.65 0.4 0  0.675 0.4 0  0.7 0.4 0  0.725 0.4 0  0.75 0.4 0  0.775 0.4 0  0.8 0.4 0  0.825 0.4 0  0.85 0.4 0  0.875 0.4 0  0.9 0.4 0  0.925 0.4 0  0.95 0.4 0  0.975 0.4 0  1 0.4 0  0 0.425 0  0.025 0.425 0  0.05 0.425 0  0.075 0.425 0  0.1 0.425 0  0.125 0.425 0  0.15 0.425 0  0.175 0.425 0  0.2 0.425 0  0.225 0.425 0  0.25 0.425 0  0.275 0.425 0  0.3 0.425 0  0.325 0.425 0  0.35 0.425 0  0.375 0.425 0  0.4 0.425 0  0.425 0.425 0  0.45 0.425 0  0.475 0.425 0  0.5 0.425 0  0.525 0.425 0  0.55 0.425 0  0.575 0.425 0  0.6 0.425 0  0.625 0.425 0  0.65 0.425 0  0.675 0.425 0  0.7 0.425 0  0.725 0.425 0  0.75 0.425 0  0.775 0.425 0  0.8 0.425 0  0.825 0.425 0  0.85 0.425 0  0.875 0.425 0  0.9 0.425 0  0.925 0.425 0  0.95 0.425 0  0.975 0.425 0  1 0.425 0  0 0.45 0  0.02
[...]
<PointData  Scalars="ControlVisualisation"> 
<DataArray  type="Float64"  Name="ControlVisualisation"  format="ascii">3.9776994617780681e-01  3.6916416057516299e-01  3.6916757159091890e-01  3.6918488985684617e-01  3.6921822624218625e-01  3.6926674415972832e-01  3.6932932163009596e-01  3.6940483943192748e-01  3.6949211158136336e-01  3.6958984377915510e-01  3.6969665307360827e-01  3.6981110738836193e-01  3.6993176757245538e-01  3.7005722416798553e-01  3.7018612515971139e-01  3.7031719265717172e-01  3.7044922694619925e-01  3.7058109641998455e-01  3.7071171162024835e-01  3.7083998097997839e-01  3.7096474485941028e-01  3.7108468314837556e-01  3.7119819022622919e-01  3.7130320982125836e-01  3.7139702216429293e-01  3.7147597861039383e-01  3.7153518803449953e-01  3.7156818142385240e-01  3.7156662608607660e-01  3.7152024606920397e-01  3.7141724750164817e-01  3.7124573553695450e-01  3.7099684836167290e-01  3.7067021280280538e-01  3.7028156076970570e-01  3.6987045403238239e-01  3.6950052703500680e-01  3.6924467637451880e-01  3.6914515249879992e-01  3.6915509965360677e-01  4.2699836279395414e-01  3.6916414852672041e-01  2.8860539720888989e-01  2.8870092305248879e-01  2.8892805915885900e-01  2.8931483112309225e-01  2.8986057342592803e-01  2.9055519099791616e-01  2.9138668969149129e-01  2.9234195734808233e-01  2.9340678696198508e-01  2.9456612712330182e-01  2.9580447160756118e-01  2.9710627827591934e-01  2.9845633823052364e-01  2.9984005629449634e-01  3.0124362063525112e-01  3.0265404628259390e-01  3.0405907955988276e-01  3.0544694900865632e-01  3.0680594364739922e-01  3.0812379154035147e-01  3.0938680124608869e-01  3.1057871726159958e-01  3.1167923149136600e-01  3.1266209314423565e-01  3.1349278345657255e-01  3.1412579552696862e-01  3.1450173149937610e-01  3.1454477306309153e-01  3.1416172456817415e-01  3.1324486724279477e-01  3.1168240437949657e-01  3.0938206136789637e-01  3.0631333704065095e-01  3.0257105035917103e-01  2.9844542513570815e-01  2.9445043171270957e-01  2.9123870663012685e-01  2.8929565123842449e-01  2.8858350355979606e-01  3.6915475350790805e-01  3.6916749183626374e-01  2.8870126162356879e-01  2.8902947891813036e-01  2.8959653236152161e-01  2.9047217911122242e-01  2.9167903117893751e-01  2.9320601156599302e-01  2.9503054412780977e-01  2.9712513154757669e-01  2.9945940372302760e-01  3.0200105408142325e-01  3.0471672589497051e-01  3.0757288760523138e-01  3.1053660791966364e-01  3.1357616132037358e-01  3.1666141345679860e-01  3.1976395104901778e-01  3.2285692730807458e-01  3.2591459308427967e-01  3.2891147654243974e-01  3.3182116055465360e-01  3.3461458846855630e-01  3.3725780837736241e-01  3.3970904984582256e-01  3.4191502796279094e-01  3.4380641221496544e-01  3.4529252650885311e-01  3.4625564137018461e-01  3.4654580137793106e-01  3.4597820870846741e-01  3.4433691713053505e-01  3.4139138359051630e-01  3.3693545725640522e-01  3.3086083767543911e-01  3.2327489060823023e-01  3.1464168962577804e-01  3.0588158703936164e-01  2.9822785904930016e-01  2.9260701134811851e-01  2.8926913323774173e-01  3.6913663842970401e-01  3.6918480659719366e-01  2.8893157514042012e-01  2.8960470382804959e-01  2.9044953985777783e-01  2.9159863532176367e-01  2.9313117805104705e-01  2.9505602862300173e-01  2.9735314539878976e-01  2.9999116451359553e-01  3.0293353571487958e-01  3.0614078856163812e-01  3.0957194214688383e-01  3.1318564544272365e-01  3.1694115596095945e-01  3.2079911797104560e-01  3.2472208870271124e-01  3.2867477022997293e-01  3.3262391163748950e-01  3.3653784715159762e-01  3.4038562969987485e-01  3.4413570608661342e-01  3.4775406089288258e-01  3.5120173431295704e-01  3.5443160062231316e-01  3.5738429088436779e-01  3.5998317818427922e-01  3.6212845553092526e-01  3.6369059400415638e-01  3.6450397220949438e-01  3.6436240237997630e-01  3.6301977503677263e-01  3.6020168653858753e-01  3.5563676598629818e-01  3.4912252850997105e-01  3.4063827126788127e-01  3.3050348190526252e-01  3.1953038722025523e-01  3.0884409174952721e-01  2.9924214071436622e-01  2.9131824327364841e-01  3.6920055420939757e-01  3.6921874245745867e-01  2.8933094389274899e-01  2.9051110554564147e-01  2.9163739138607653e-01  2.9295087779238616e-01  2.9462502751440856e-01  2.9670485263046897e-01  2.9918091997327456e-01  3.0202370721830096e-01  3.0519554819405365e-01  3.0865487226661747e-01  3.1235827388865750e-01  3.1626190974090618e-01  3.2032262430074271e-01  3.2449884254539391e-01  3.2875120599512475e-01  3.3304291959660359e-01  3.3733978225105721e-01  3.4160987703721640e-01  3.4582289446100911e-01  3.4994905304652907e-01  3.5395756718342736e-01  3.5781459464679644e-01  3.6148057987967902e-01  3.6490690156368877e-01  3.6803174695181740e-01  3.7077519177860918e-01  3.7303359549435344e-01  3.7467366895914223e-01  3.7552702240823765e-01  3.7538665675469496e-01  3.7400823817080986e-01  3.7112019342062580e-01  3.6645257064246567e-01  3.5978820820317226e-01  3.5105675075776888e-01  3.4037543978761714e-01  3.2778041979286771e-01  3.1271077484252230e-01  2.9588939236383865e-01  3.6942016170439262e-01  3.6926947173864350e-01  2.8991023132346339e-01  2.9179687667075260e-01  2.9327072852897107e-01  2.9473285912170505e-01  2.9649260698109658e-01  2.9864594398434013e-01  3.0119883183611340e-01  3.0412544766427319e-01  3.0738816429447224e-01  3.1094440423229075e-01  3.1474955634882912e-01  3.1875870916331706e-01  3.2292794838379463e-01  3.2721537176433635e-01  3.3158183962965099e-01  3.3599145106347272e-01  3.4041173993639029e-01  3.4481359113157078e-01  3.4917088007615343e-01  3.5345983696150540e-01  3.5765813182664713e-01  3.6174367005326558e-01  3.6569308264669986e-01  3.6947989566072237e-01  3.7307237249276798e-01  3.7643104502564251e-01  3.7950598261943341e-01  3.8223387774625250e-01  3.8453501692217129e-01  3.8631000329546289e-01  3.8743587289001741e-01  3.8775947032320779e-01  3.8708643507549245e-01  3.8514629843062931e-01  3.8151395642444519e-01  3.7520646098378663e-01  3.6371622368401180e-01  3.4104455476980450e-01  3.0527864333922011e-01  3.6971245590901047e-01  3.6933733589227075e-01  2.9067571645471768e-01  2.9348757840169670e-01  2.9540516490719354e-01  2.9703965886257810e-01  2.9887912800824551e-01  3.0108656466759254e-01  3.0368800066463641e-01  3.0666225740449310e-01  3.0997171780312843e-01  3.1357260129231135e-01  3.1741898711104277e-01  3.2146497692052628e-01  3.2566620322997275e-01  3.2998098492036165e-01  3.3437119903213536e-01  3.3880289069832031e-01  3.4324664568546293e-01  3.4767776012769208e-01  3.5207625162692074e-01  3.5642676369910559e-01  3.6071842364594781e-01  3.6494472555201807e-01  3.6910352925724849e-01  3.7319729725849160e-01  3.7723373865772886e-01  3.8122709381325526e-01  3.8520036728395718e-01  3.8918887243438549e-01  3.9324539598525404e-01  3.9744693555692845e-01  4.0190193824122883e-01  4.0675321196133141e-01  4.1216607524122667e-01  4.1825459267402643e-01  4.2484385734274249e-01  4.3057230982383976e-01  4.3062353638951761e-01  4.0967764768006371e-01  3.4274181884422572e-01  3.7195634929301380e-01  3.6942312080922118e-01  2.9163644073622152e-01  2.9560790648337104e-01  2.9808187755929921e-01  2.9992929097404197e-01  3.0186071133633491e-01  3.0412353936024594e-01  3.0676931378975514e-01  3.0978268031499051e-01  3.1312591312069848e-01  3.1675360937408159e-01  3.2061816227107293e-01  3.2467246414285861e-01  3.2887166341776386e-01  3.3317446670184941e-01  3.3754412139342965e-01  3.4194914098773338e-01  3.4636383387907760e-01  3.5076871031654672e-01  3.5515085841390909e-01  3.5950439806625295e-01  3.6383114536908173e-01  3.6814165571417828e-01  3.7245686943618544e-01  3.7681067080347280e-01  3.8125380462197805e-01  3.8585979536750753e-01  3.9073380788487772e-01  3.9602580277842520e-01  4.0194986729734311e-01  4.0881217185307328e-01  4.1704993244544170e-01  4.2728122549867675e-01  4.4035502338438803e-01  4.5733795165524682e-01  4.7927813219891929e-01  5.0612973174128606e-01  5.3408712432296035e-01  5.4729577733137447e-01  5.1709420496325276e-01  4.2485417038063578e-01  3.6952797469006160e-01  2.9280483388527340e-01  2.9818802928587046e-01  3.0134490971333638e-01  3.0345623999701998e-01  3.0550010512341513e-01  3.0782699268962249e-01  3.1052031502579808e-01  3.1357220544375047e-01  3.1694489380755003e-01  3.2059099735538732e-01  3.2446086810227726e-01  3.2850597550858601e-01  3.3268094523992575e-01  3.3694499392890703e-01  3.4126298589207815e-01  3.4560622421135923e-01  3.4995307869611086e-01  3.5428956793249727e-01  3.5861003301603933e-01  3.6291806669077259e-01  3.6722789985561777e-01  3.7156650765764965e-01  3.7597679410687695e-01  3.8052236901392478e-01  3.8529467837156339e-01  3.9042364434054549e-01  3.9609360299184398e-01  4.0256733321054716e-01  4.1022253605749653e-01  4.1960739116086715e-01  4.3152423309818760e-01  4.4715055999652537e-01  4.6818958819216894e-01  4.9697069293286023e-01  5.3622349616799325e-01  5.8771843129448476e-01  6.4949619358819211e-01  7.0837474228521891e-01  7.7548219793162709e-01  6.3561548663216960e-01  3.6965335153298051e-01  2.9419658628687084e-01  3.0126555265680099e-01  3.0524755177860385e-01  3.0768380036926540e-01  3.0986666992622669e-01  3.1226993144157289e-01  3.1501624669592221e-01  3.1810742021455080e-01  3.2150594440587976e-01  3.2516223458237503e-01  3.2902436046818972e-01  3.3304227631983846e-01  3.3717016656472976e-01  3.4136797458211104e-01  3.4560246456061272e-01  3.4984799325408383e-01  3.5408714156953075e-01  3.5831136535263319e-01  3.6252184407112376e-01  3.6673073525887540e-01  3.7096308979919684e-01  3.7525976171503150e-01  3.7968177603455489e-01  3.8431683106254300e-01  3.8928895938150382e-01  3.9477294397252610e-01  4.0101603246630513e-01  4.0837106058992634e-01  4.1734765439343158e-01  4.2869207544916416e-01  4.4351109241196535e-01  4.6345634134467589e-01  4.9095933838115818e-01  5.2939207010943945e-01  5.8262805024410702e-01  6.5280940457321701e-01  7.3574820609698599e-01  8.1195196410789416e-01  8.8048981613635535e-01  7.7951384075577290e-01  3.6980101664511117e-01  2.9583077194203311e-01  3.0488651672715916e-01  3.0985525975551365e-01  3.1268950624191999e-01  3.1504458514123335e-01  3.1753954812822682e-01  3.2034488885116164e-01  3.2347488690895937e-01  3.2689291034693180e-01  3.3054715252810940e-01  3.3438335933851221e-01  3.3835009978292629e-01  3.4240142762863723e-01  3.4649843276646758e-01  3.5061020166778978e-01  3.5471444811484154e-01  3.5879801793277422e-01  3.6285746615846526e-01  3.6689991549113499e-01  3.7094442915744408e-01  3.7502417823463552e-01  3.7918976760117745e-01  3.8351422814422553e-01  3.8810042137896567e-01  3.9309199650284782e-01  3.9868969282846567e-01  4.0517586967273361e-01  4.1295196424129404e-01  4.2259655810399138e-01  4.3495628460467350e-01  4.5128734138462756e-01  4.7346525374481546e-01  5.0424639953085892e-01  5.4740084164181890e-01  6.0698988918069818e-01  6.8430649259467480e-01  7.7154947207444491e-01  8.4572814946460184e-01  9.0249030683294618e-01  8.1526536172477027e-01  3.6997307526419576e-01  2.9773016325934348e-01  3.0910656296871508e-01  3.1524821830766764e-01  3.1856921700399593e-01  3.2113825147740493e-01  3.2374372339831697e-01  3.2661404738487260e-01  3.2977960094364456e-01  3.3320568986164706e-01  3.3683860633518592e-01  3.4062208212943290e-01  3.4450381194954860e-01  3.4843841198808517e-01  3.5238887890630566e-01  3.5632730039479932e-01  3.6023518953899186e-01  3.6410370721935709e-01  3.6793400380645724e-01  3.7173790304093818e-01  3.7553916127126735e-01  3.7937557108021380e-01  3.8330225240684529e-01  3.8739660593170971e-01  3.9176562432724321e-01  3.9655662041165551e-01  4.0197302860579043e-01  4.0829792110227470e-01  4.1592949986990679e-01  4.2543542416571045e-01  4.3763667709483034e-01  4.5373588821937993e-01  4.7550303672653077e-01  5.0549604420673022e-01  5.4712665169072972e-01  6.0388705766290340e-01  6.7633780532584897e-01  7.5630799277062211e-01  8.2599567809358465e-01  8.8104610288015528e-01  7.9040191583721964e-01  3.7017200716219489e-01  2.9992164668903459e-01  3.1399240088275376e-01  3.2152433519848794e-01  3.2544165392362645e-01  3.2827794848479536e-01  3.3101727569617434e-01  3.3395795322686894e-01  3.3715123467544383e-01  3.4056615701163057e-01  3.4414804265847743e-01  3.4783953967626580e-01  3.5158861774775424e-01  3.5535175837040189e-01  3.5909515133225789e-01  3.6279496430564911e-01  3.6643720193308504e-01  3.7001748428244641e-01  3.7354099770803095e-01  3.7702283380517254e-01  3.8048892062802742e-01  3.8397776656013594e-01  3.8754328840894203e-01  3.9125909342855930e-01  3.9522475026650095e-01  3.9957485067180371e-01  4.0449208963493544e-01  4.1022626862365136e-01  4.1712219048321292e-01  4.2566102136965894e-01  4.3652184010827783e-01  4.5067175668416803e-01  4.6948893877305842e-01  4.9489211041538972e-01  5.2932310611326705e-01  5.7507524170157676e-01  6.3188977616868736e-01  6.9290557288484589e-01  7.4511088177057017e-01  7.7071051837727722e-01  6.7973936760606479e-01  3.7040069545201093e-01  3.0243665186779256e-01  3.1962356197102260e-01  3.2880304313127945e-01  3.3345426364782049e-01  3.3662708594370622e-01  3.3952973166877254e-01  3.4254479197063509e-01  3.4575087688183936e-01  3.4912379107462810e-01  3.5260991527803803e-01  3.5615281879349686e-01  3.5970293114770491e-01  3.6322083045164871e-01  3.6667794494246164e-01  3.7005615772373551e-01  3.7334701110316837e-01  3.7655090478094511e-01  3.7967654347174767e-01  3.8274081545795535e-01  3.8576924705684712e-01  3.8879717206884618e-01  3.9187177884449098e-01  3.9505525266117070e-01  3.9842932356202132e-01  4.0210167115085899e-01  4.0621484636082938e-01  4.1095867020892207e-01  4.1658748161908277e-01  4.2344410540012362e-01  4.3199277032162425e-01  4.4286243727304098e-01  4.5689635221409475e-01  4.7517937171135527e-01  4.9892941803912577e-01  5.2889156120412428e-01  5.6339400171891052e-01  5.9437572023898899e-01  6.0061267490887282e-01  5.3125377115798456e-01  4.7437132445941704e-01  3.7066243435896606e-01  3.0531150489105158e-01  3.2609442948515660e-01  3.3723023031751032e-01  3.4279114377903697e-01  3.4639209229267343e-01  3.4949578893190464e-01  3.5258651944925379e-01  3.5577934860844485e-01  3.5906204358253335e-01  3.6238601416884753e-01  3.6569956271121745e-01  3.6895937960576591e-01  3.7213371145713392e-01  3.7520228404734501e-01  3.7815501893744663e-01  3.8099044867809356e-01  3.8371427267690639e-01  3.8633827941799148e-01  3.8887974873138220e-01  3.9136139123365787e-01  3.9381186052668510e-01  3.9626687604546301e-01  3.9877101292837835e-01  4.0138024404399292e-01  4.0416535248726876e-01  4.0721636152736956e-01  4.1064813441801667e-01  4.1460723564379526e-01  4.1927991398065845e-01  4.2490040751145192e-01  4.3175696413021397e-01  4.4018774308554653e-01  4.5054232477534589e-01  4.6303103459043526e-01  4.7721754001891403e-01  4.9052682223071914e-01  4.9464419762940076e-01  4.6835523454626082e-01  3.8122903534768726e-01  3.8187580429847656e-01  3.7096088878895511e-01  3.0858756625540934e-01  3.3351654917819479e-01  3.4698480736724180e-01  3.5368409841492737e-01  3.5783631128272941e-01  3.6118978711161409e-01  3.6435195885955579e-01  3.6748767035589003e-01  3.7060564151605419e-01  3.7366966085024861e-01  3.7663951499587334e-01  3.7948436471748825e-01  3.8218550812359214e-01  3.8473525003959269e-01  3.8713458824608715e-01  3.8939083237603150e-01  3.9151560136055596e-01  3.9352334502344488e-01  3.9543039634538524e-01  3.9725450013861319e-01  3.9901474289420052e-01  4.0073180600929953e-01  4.0242846635330110e-01  4.0413026306303063e-01  4.0586622598425293e-01  4.0766950390465201e-01  4.0957761587202396e-01  4.1163183794898034e-01  4.1387486929542194e-01  4.1634529544790333e-01  4.1906625249678059e-01  4.2202332324730041e-01  4.2511969070985289e-01  4.2807098425448886e-01  4.3011411231440905e-01  4.2917702197375684e-01  4.1983007484921359e-01  3.9029987543870376e-01  3.3216058539527743e-01  3.7233156425821079e-01  3.7129995257632875e-01  3.1231092507742420e-01  3.4202133199509466e-01  3.5828790054042675e-01  3.6642864997728175e-01  3.7130003055634025e-01  3.7496597684576183e-01  3.7818423310146548e-01  3.8118991507279570e-01  3.8402839882911094e-01  3.8668894459925651e-01  3.8915416694350519e-01  3.9141528448471608e-01  3.9347425362536176e-01  3.9534148376582207e-01  3.9703259427294890e-01  3.9856549054232687e-01  3.9995812861926183e-01  4.0122696790779783e-01  4.0238597311220803e-01  4.0344598862745285e-01  4.0441431105835457e-01  4.0529429919795967e-01  4.0608487054815101e-01  4.0677973114460020e-01  4.0736616586701246e-01  4.0782317635333515e-01  4.0811869319047755e-01  4.0820551829563306e-01  4.0801561432612432e-01  4.0745245737608116e-01  4.0638162642872860e-01  4.0462085464226061e-01  4.0193142371878560e-01  3.9800621993199431e-01  3.9241000293767792e-01  3.8429506425456611e-01  3.7150486391915860e-01  3.4923309014894893e-01  3.1391705850248730e-01  3.7127209648116788e-01  3.7168341044172248e-01  3.1653134740621003e-01  3.5176367473918391e-01  3.7141683571384970e-01  3.8140837152148666e-01  3.8723005761467322e-01  3.9128698751312008e-01  3.9452342628604053e-01  3.9727794177859194e-01  3.9966008620814530e-01  4.0170712919408852e-01  4.0344263942879244e-01  4.0489380656375151e-01  4.0609316204266310e-01  4.0707557470628519e-01  4.0787470507523993e-01  4.0852024281692340e-01  4.0903611456379130e-01  4.0943945376729152e-01  4.0974003087769928e-01  4.0993985966989843e-01  4.1003274319527239e-01  4.1000356923207010e-01  4.0982720113789983e-01  4.0946683775959675e-01  4.0887174485703814e-01  4.0797430855823463e-01  4.0668646134546727e-01  4.0489574617633861e-01  4.0246173495122595e-01  3.9921441669376001e-01  3.9495788942239896e-01  3.8948554053635814e-01  3.8261615452338038e-01  3.7425864198260000e-01  3.6448476411572767e-01  3.5348603201272699e-01  3.4108531135469577e-01  3.2546625087583925e-01  3.0423778807722462e-01  3.7052512879497451e-01  3.7211424689674910e-01  3.2130014286903030e-01  3.6292850917587222e-01  3.8672899244792786e-01  3.9913393614572296e-01  4.0622417019429091e-01  4.1076316032730598e-01  4.1393424178494276e-01  4.1623562951475529e-01  4.1788891833342839e-01  4.1901666452437969e-01  4.1971069345029555e-01  4.2005279119922656e-01  4.2011754246505284e-01  4.1997023008780937e-01  4.1966455291692484e-01  4.1924139910533148e-01  4.1872860833669578e-01  4.1814130202219191e-01  4.1748235760226299e-01  4.1674269841972694e-01  4.1590117044469466e-01  4.1492385686918137e-01  4.1376274508976607e-01  4.1235372470414883e-01  4.1061398592734050e-01  4.0843904381377849e-01  4.0569989272033991e-01  4.0224129034437273e-01  3.9788301255015179e-01  3.9242730040412649e-01  3.8567782036320875e-01  3.7747802708327705e-01  3.6777842383203974e-01  3.5673650436691079e-01  3.4482316692972864e-01  3.3282443755421065e-01  3.2145979071509234e-01  3.1031547192583464e-01  2.9768853433785347e-01  3.6998846614527048e-01  3.7259324052477705e-01  3.2666770296604791e-01  3.7574713767766738e-01  4.0470757482922376e-01  4.2030894165834454e-01  4.2909769455186864e-01  4.3420370202318931e-01  4.3713457898757468e-01  4.3864590234073025e-01  4.3915251274035988e-01  4.3892060020521922e-01  4.3814817302815995e-01  4.3699367757228086e-01  4.3558441744066401e-01  4.3401913805012271e-01  4.3236998433478602e-01  4.3068501058449427e-01  4.2899102928360022e-01  4.2729631149517489e-01  4.2559274449730738e-01  4.2385720882060657e-01  4.2205206288519587e-01  4.2012471039263632e-01  4.1800629428351743e-01  4.1560964272419038e-01  4.1282672651715424e-01  4.0952612456283538e-01  4.0555140492089692e-01  4.0072200761803378e-01  3.9483926308212863e-01  3.8770170261485232e-01  3.7913563604850398e-01  3.6904839633440611e-01  3.5751043543268740e-01  3.4486184619216426e-01  3.3180989042243725e-01  3.1942130011916547e-01  3.0882293982447395e-01  3.0041025987356085e-01  2.9326492874382110e-01  3.6960120617647774e-01  3.7311711991548163e-01  3.3268692337584205e-01  3.9054264036972819e-01  4.2605780054462983e-01  4.4594332209194554e-01  4.5697780094115192e-01  4.6267216977098918e-01  4.6501059696265873e-01  4.651749406