<?xml version="1.0"?>
<VTKFile type="UnstructuredGrid"  version="0.1"  >
<UnstructuredGrid>
<Piece  NumberOfPoints="1681" NumberOfCells="3200">
<Points>
<DataArray  type="Float64"  NumberOfComponents="3"  format="ascii">0 0 0  0.025 0 0  0.05 0 0  0.075 0 0  0.1 0 0  0.125 0 0  0.15 0 0  0.175 0 0  0.2 0 0  0.225 0 0  0.25 0 0  0.275 0 0  0.3 0 0  0.325 0 0  0.35 0 0  0.375 0 0  0.4 0 0  0.425 0 0  0.45 0 0  0.475 0 0  0.5 0 0  0.525 0 0  0.55 0 0  0.575 0 0  0.6 0 0  0.625 0 0  0.65 0 0  0.675 0 0  0.7 0 0  0.725 0 0  0.75 0 0  0.775 0 0  0.8 0 0  0.825 0 0  0.85 0 0  0.875 0 0  0.9 0 0  0.925 0 0  0.95 0 0  0.975 0 0  1 0 0  0 0.025 0  0.025 0.025 0  0.05 0.025 0  0.075 0.025 0  0.1 0.025 0  0.125 0.025 0  0.15 0.025 0  0.175 0.025 0  0.2 0.025 0  0.225 0.025 0  0.25 0.025 0  0.275 0.025 0  0.3 0.025 0  0.325 0.025 0  0.35 0.025 0  0.375 0.025 0  0.4 0.025 0  0.425 0.025 0  0.45 0.025 0  0.475 0.025 0  0.5 0.025 0  0.525 0.025 0  0.55 0.025 0  0.575 0.025 0  0.6 0.025 0  0.625 0.025 0  0.65 0.025 0  0.675 0.025 0  0.7 0.025 0  0.725 0.025 0  0.75 0.025 0  0.775 0.025 0  0.8 0.025 0  0.825 0.025 0  0.85 0.025 0  0.875 0.025 0  0.9 0.025 0  0.925 0.025 0  0.95 0.025 0  0.975 0.025 0  1 0.025 0  0 0.05 0  0.025 0.05 0  0.05 0.05 0  0.075 0.05 0  0.1 0.05 0  0.125 0.05 0  0.15 0.05 0  0.175 0.05 0  0.2 0.05 0  0.225 0.05 0  0.25 0.05 0  0.275 0.05 0  0.3 0.05 0  0.325 0.05 0  0.35 0.05 0  0.375 0.05 0  0.4 0.05 0  0.425 0.05 0  0.45 0.05 0  0.475 0.05 0  0.5 0.05 0  0.525 0.05 0  0.55 0.05 0  0.575 0.05 0  0.6 0.05 0  0.625 0.05 0  0.65 0.05 0  0.675 0.05 0  0.7 0.05 0  0.725 0.05 0  0.75 0.05 0  0.775 0.05 0  0.8 0.05 0  0.825 0.05 0  0.85 0.05 0  0.875 0.05 0  0.9 0.05 0  0.925 0.05 0  0.95 0.05 0  0.975 0.05 0  1 0.05 0  0 0.075 0  0.025 0.075 0  0.05 0.075 0  0.075 0.075 0  0.1 0.075 0  0.125 0.075 0  0.15 0.075 0  0.175 0.075 0  0.2 0.075 0  0.225 0.075 0  0.25 0.075 0  0.275 0.075 0  0.3 0.075 0  0.325 0.075 0  0.35 0.075 0  0.375 0.075 0  0.4 0.075 0  0.425 0.075 0  0.45 0.075 0  0.475 0.075 0  0.5 0.075 0  0.525 0.075 0  0.55 0.075 0  0.575 0.075 0  0.6 0.075 0  0.625 0.075 0  0.65 0.075 0  0.675 0.075 0  0.7 0.075 0  0.725 0.075 0  0.75 0.075 0  0.775 0.075 0  0.8 0.075 0  0.825 0.075 0  0.85 0.075 0  0.875 0.075 0  0.9 0.075 0  0.925 0.075 0  0.95 0.075 0  0.975 0.075 0  1 0.075 0  0 0.1 0  0.025 0.1 0  0.05 0.1 0  0.075 0.1 0  0.1 0.1 0  0.125 0.1 0  0.15 0.1 0  0.175 0.1 0  0.2 0.1 0  0.225 0.1 0  0.25 0.1 0  0.275 0.1 0  0.3 0.1 0  0.325 0.1 0  0.35 0.1 0  0.375 0.1 0  0.4 0.1 0  0.425 0.1 0  0.45 0.1 0  0.475 0.1 0  0.5 0.1 0  0.525 0.1 0  0.55 0.1 0  0.575 0.1 0  0.6 0.1 0  0.625 0.1 0  0.65 0.1 0  0.675 0.1 0  0.7 0.1 0  0.725 0.1 0  0.75 0.1 0  0.775 0.1 0  0.8 0.1 0  0.825 0.1 0  0.85 0.1 0  0.875 0.1 0  0.9 0.1 0  0.925 0.1 0  0.95 0.1 0  0.975 0.1 0  1 0.1 0  0 0.125 0  0.025 0.125 0  0.05 0.125 0  0.075 0.125 0  0.1 0.125 0  0.125 0.125 0  0.15 0.125 0  0.175 0.125 0  0.2 0.125 0  0.225 0.125 0  0.25 0.125 0  0.275 0.125 0  0.3 0.125 0  0.325 0.125 0  0.35 0.125 0  0.375 0.125 0  0.4 0.125 0  0.425 0.125 0  0.45 0.125 0  0.475 0.125 0  0.5 0.125 0  0.525 0.125 0  0.55 0.125 0  0.575 0.125 0  0.6 0.125 0  0.625 0.125 0  0.65 0.125 0  0.675 0.125 0  0.7 0.125 0  0.725 0.125 0  0.75 0.125 0  0.775 0.125 0  0.8 0.125 0  0.825 0.125 0  0.85 0.125 0  0.875 0.125 0  0.9 0.125 0  0.925 0.125 0  0.95 0.125 0  0.975 0.125 0  1 0.125 0  0 0.15 0  0.025 0.15 0  0.05 0.15 0  0.075 0.15 0  0.1 0.15 0  0.125 0.15 0  0.15 0.15 0  0.175 0.15 0  0.2 0.15 0  0.225 0.15 0  0.25 0.15 0  0.275 0.15 0  0.3 0.15 0  0.325 0.15 0  0.35 0.15 0  0.375 0.15 0  0.4 0.15 0  0.425 0.15 0  0.45 0.15 0  0.475 0.15 0  0.5 0.15 0  0.525 0.15 0  0.55 0.15 0  0.575 0.15 0  0.6 0.15 0  0.625 0.15 0  0.65 0.15 0  0.675 0.15 0  0.7 0.15 0  0.725 0.15 0  0.75 0.15 0  0.775 0.15 0  0.8 0.15 0  0.825 0.15 0  0.85 0.15 0  0.875 0.15 0  0.9 0.15 0  0.925 0.15 0  0.95 0.15 0  0.975 0.15 0  1 0.15 0  0 0.175 0  0.025 0.175 0  0.05 0.175 0  0.075 0.175 0  0.1 0.175 0  0.125 0.175 0  0.15 0.175 0  0.175 0.175 0  0.2 0.175 0  0.225 0.175 0  0.25 0.175 0  0.275 0.175 0  0.3 0.175 0  0.325 0.175 0  0.35 0.175 0  0.375 0.175 0  0.4 0.175 0  0.425 0.175 0  0.45 0.175 0  0.475 0.175 0  0.5 0.175 0  0.525 0.175 0  0.55 0.175 0  0.575 0.175 0  0.6 0.175 0  0.625 0.175 0  0.65 0.175 0  0.675 0.175 0  0.7 0.175 0  0.725 0.175 0  0.75 0.175 0  0.775 0.175 0  0.8 0.175 0  0.825 0.175 0  0.85 0.175 0  0.875 0.175 0  0.9 0.175 0  0.925 0.175 0  0.95 0.175 0  0.975 0.175 0  1 0.175 0  0 0.2 0  0.025 0.2 0  0.05 0.2 0  0.075 0.2 0  0.1 0.2 0  0.125 0.2 0  0.15 0.2 0  0.175 0.2 0  0.2 0.2 0  0.225 0.2 0  0.25 0.2 0  0.275 0.2 0  0.3 0.2 0  0.325 0.2 0  0.35 0.2 0  0.375 0.2 0  0.4 0.2 0  0.425 0.2 0  0.45 0.2 0  0.475 0.2 0  0.5 0.2 0  0.525 0.2 0  0.55 0.2 0  0.575 0.2 0  0.6 0.2 0  0.625 0.2 0  0.65 0.2 0  0.675 0.2 0  0.7 0.2 0  0.725 0.2 0  0.75 0.2 0  0.775 0.2 0  0.8 0.2 0  0.825 0.2 0  0.85 0.2 0  0.875 0.2 0  0.9 0.2 0  0.925 0.2 0  0.95 0.2 0  0.975 0.2 0  1 0.2 0  0 0.225 0  0.025 0.225 0  0.05 0.225 0  0.075 0.225 0  0.1 0.225 0  0.125 0.225 0  0.15 0.225 0  0.175 0.225 0  0.2 0.225 0  0.225 0.225 0  0.25 0.225 0  0.275 0.225 0  0.3 0.225 0  0.325 0.225 0  0.35 0.225 0  0.375 0.225 0  0.4 0.225 0  0.425 0.225 0  0.45 0.225 0  0.475 0.225 0  0.5 0.225 0  0.525 0.225 0  0.55 0.225 0  0.575 0.225 0  0.6 0.225 0  0.625 0.225 0  0.65 0.225 0  0.675 0.225 0  0.7 0.225 0  0.725 0.225 0  0.75 0.225 0  0.775 0.225 0  0.8 0.225 0  0.825 0.225 0  0.85 0.225 0  0.875 0.225 0  0.9 0.225 0  0.925 0.225 0  0.95 0.225 0  0.975 0.225 0  1 0.225 0  0 0.25 0  0.025 0.25 0  0.05 0.25 0  0.075 0.25 0  0.1 0.25 0  0.125 0.25 0  0.15 0.25 0  0.175 0.25 0  0.2 0.25 0  0.225 0.25 0  0.25 0.25 0  0.275 0.25 0  0.3 0.25 0  0.325 0.25 0  0.35 0.25 0  0.375 0.25 0  0.4 0.25 0  0.425 0.25 0  0.45 0.25 0  0.475 0.25 0  0.5 0.25 0  0.525 0.25 0  0.55 0.25 0  0.575 0.25 0  0.6 0.25 0  0.625 0.25 0  0.65 0.25 0  0.675 0.25 0  0.7 0.25 0  0.725 0.25 0  0.75 0.25 0  0.775 0.25 0  0.8 0.25 0  0.825 0.25 0  0.85 0.25 0  0.875 0.25 0  0.9 0.25 0  0.925 0.25 0  0.95 0.25 0  0.975 0.25 0  1 0.25 0  0 0.275 0  0.025 0.275 0  0.05 0.275 0  0.075 0.275 0  0.1 0.275 0  0.125 0.275 0  0.15 0.275 0  0.175 0.275 0  0.2 0.275 0  0.225 0.275 0  0.25 0.275 0  0.275 0.275 0  0.3 0.275 0  0.325 0.275 0  0.35 0.275 0  0.375 0.275 0  0.4 0.275 0  0.425 0.275 0  0.45 0.275 0  0.475 0.275 0  0.5 0.275 0  0.525 0.275 0  0.55 0.275 0  0.575 0.275 0  0.6 0.275 0  0.625 0.275 0  0.65 0.275 0  0.675 0.275 0  0.7 0.275 0  0.725 0.275 0  0.75 0.275 0  0.775 0.275 0  0.8 0.275 0  0.825 0.275 0  0.85 0.275 0  0.875 0.275 0  0.9 0.275 0  0.925 0.275 0  0.95 0.275 0  0.975 0.275 0  1 0.275 0  0 0.3 0  0.025 0.3 0  0.05 0.3 0  0.075 0.3 0  0.1 0.3 0  0.125 0.3 0  0.15 0.3 0  0.175 0.3 0  0.2 0.3 0  0.225 0.3 0  0.25 0.3 0  0.275 0.3 0  0.3 0.3 0  0.325 0.3 0  0.35 0.3 0  0.375 0.3 0  0.4 0.3 0  0.425 0.3 0  0.45 0.3 0  0.475 0.3 0  0.5 0.3 0  0.525 0.3 0  0.55 0.3 0  0.575 0.3 0  0.6 0.3 0  0.625 0.3 0  0.65 0.3 0  0.675 0.3 0  0.7 0.3 0  0.725 0.3 0  0.75 0.3 0  0.775 0.3 0  0.8 0.3 0  0.825 0.3 0  0.85 0.3 0  0.875 0.3 0  0.9 0.3 0  0.925 0.3 0  0.95 0.3 0  0.975 0.3 0  1 0.3 0  0 0.325 0  0.025 0.325 0  0.05 0.325 0  0.075 0.325 0  0.1 0.325 0  0.125 0.325 0  0.15 0.325 0  0.175 0.325 0  0.2 0.325 0  0.225 0.325 0  0.25 0.325 0  0.275 0.325 0  0.3 0.325 0  0.325 0.325 0  0.35 0.325 0  0.375 0.325 0  0.4 0.325 0  0.425 0.325 0  0.45 0.325 0  0.475 0.325 0  0.5 0.325 0  0.525 0.325 0  0.55 0.325 0  0.575 0.325 0  0.6 0.325 0  0.625 0.325 0  0.65 0.325 0  0.675 0.325 0  0.7 0.325 0  0.725 0.325 0  0.75 0.325 0  0.775 0.325 0  0.8 0.325 0  0.825 0.325 0  0.85 0.325 0  0.875 0.325 0  0.9 0.325 0  0.925 0.325 0  0.95 0.325 0  0.975 0.325 0  1 0.325 0  0 0.35 0  0.025 0.35 0  0.05 0.35 0  0.075 0.35 0  0.1 0.35 0  0.125 0.35 0  0.15 0.35 0  0.175 0.35 0  0.2 0.35 0  0.225 0.35 0  0.25 0.35 0  0.275 0.35 0  0.3 0.35 0  0.325 0.35 0  0.35 0.35 0  0.375 0.35 0  0.4 0.35 0  0.425 0.35 0  0.45 0.35 0  0.475 0.35 0  0.5 0.35 0  0.525 0.35 0  0.55 0.35 0  0.575 0.35 0  0.6 0.35 0  0.625 0.35 0  0.65 0.35 0  0.675 0.35 0  0.7 0.35 0  0.725 0.35 0  0.75 0.35 0  0.775 0.35 0  0.8 0.35 0  0.825 0.35 0  0.85 0.35 0  0.875 0.35 0  0.9 0.35 0  0.925 0.35 0  0.95 0.35 0  0.975 0.35 0  1 0.35 0  0 0.375 0  0.025 0.375 0  0.05 0.375 0  0.075 0.375 0  0.1 0.375 0  0.125 0.375 0  0.15 0.375 0  0.175 0.375 0  0.2 0.375 0  0.225 0.375 0  0.25 0.375 0  0.275 0.375 0  0.3 0.375 0  0.325 0.375 0  0.35 0.375 0  0.375 0.375 0  0.4 0.375 0  0.425 0.375 0  0.45 0.375 0  0.475 0.375 0  0.5 0.375 0  0.525 0.375 0  0.55 0.375 0  0.575 0.375 0  0.6 0.375 0  0.625 0.375 0  0.65 0.375 0  0.675 0.375 0  0.7 0.375 0  0.725 0.375 0  0.75 0.375 0  0.775 0.375 0  0.8 0.375 0  0.825 0.375 0  0.85 0.375 0  0.875 0.375 0  0.9 0.375 0  0.925 0.375 0  0.95 0.375 0  0.975 0.375 0  1 0.375 0  0 0.4 0  0.025 0.4 0  0.05 0.4 0  0.075 0.4 0  0.1 0.4 0  0.125 0.4 0  0.15 0.4 0  0.175 0.4 0  0.2 0.4 0  0.225 0.4 0  0.25 0.4 0  0.275 0.4 0  0.3 0.4 0  0.325 0.4 0  0.35 0.4 0  0.375 0.4 0  0.4 0.4 0  0.425 0.4 0  0.45 0.4 0  0.475 0.4 0  0.5 0.4 0  0.525 0.4 0  0.55 0.4 0  0.575 0.4 0  0.6 0.4 0  0.625 0.4 0  0.65 0.4 0  0.675 0.4 0  0.7 0.4 0  0.725 0.4 0  0.75 0.4 0  0.775 0.4 0  0.8 0.4 0  0.825 0.4 0  0.85 0.4 0  0.875 0.4 0  0.9 0.4 0  0.925 0.4 0  0.95 0.4 0  0.975 0.4 0  1 0.4 0  0 0.425 0  0.025 0.425 0  0.05 0.425 0  0.075 0.425 0  0.1 0.425 0  0.125 0.425 0  0.15 0.425 0  0.175 0.425 0  0.2 0.425 0  0.225 0.425 0  0.25 0.425 0  0.275 0.425 0  0.3 0.425 0  0.325 0.425 0  0.35 0.425 0  0.375 0.425 0  0.4 0.425 0  0.425 0.425 0  0.45 0.425 0  0.475 0.425 0  0.5 0.425 0  0.525 0.425 0  0.55 0.425 0  0.575 0.425 0  0.6 0.425 0  0.625 0.425 0  0.65 0.425 0  0.675 0.425 0  0.7 0.425 0  0.725 0.425 0  0.75 0.425 0  0.775 0.425 0  0.8 0.425 0  0.825 0.425 0  0.85 0.425 0  0.875 0.425 0  0.9 0.425 0  0.925 0.425 0  0.95 0.425 0  0.975 0.425 0  1 0.425 0  0 0.45 0  0.02
[...]
<PointData  Scalars="ControlVisualisation"> 
<DataArray  type="Float64"  Name="ControlVisualisation"  format="ascii">4.3995923838962264e-01  4.3993879975607564e-01  4.3993882088003244e-01  4.3993915531375083e-01  4.3993989301576208e-01  4.3994102065372759e-01  4.3994250430075499e-01  4.3994430920414945e-01  4.3994640078024966e-01  4.3994874335849493e-01  4.3995130018568479e-01  4.3995403418739648e-01  4.3995690896396711e-01  4.3995988972535177e-01  4.3996294402872077e-01  4.3996604226225239e-01  4.3996915784645568e-01  4.3997226713006454e-01  4.3997534894889051e-01  4.3997838379496196e-01  4.3998135250902992e-01  4.3998423436010764e-01  4.3998700430975657e-01  4.3998962917740170e-01  4.3999206233523347e-01  4.3999423649548797e-01  4.3999605417834398e-01  4.3999737572449432e-01  4.3999800554612312e-01  4.3999767928881545e-01  4.3999605868867364e-01  4.3999274778690334e-01  4.3998735602558098e-01  4.3997964180883953e-01  4.3996976485270312e-01  4.3995863081288550e-01  4.3994810731216116e-01  4.3994070185060430e-01  4.3993804332974856e-01  4.3993852721494092e-01  4.3997962911210370e-01  4.3993879935495184e-01  4.3987790492583184e-01  4.3987994049932261e-01  4.3988531211462717e-01  4.3989500929679504e-01  4.3990911757516493e-01  4.3992733792359950e-01  4.3994928394498956e-01  4.3997454605029057e-01  4.4000269891351029e-01  4.4003330645596467e-01  4.4006593067892902e-01  4.4010014237409800e-01  4.4013553116068405e-01  4.4017171346675110e-01  4.4020833778907487e-01  4.4024508689538105e-01  4.4028167673517049e-01  4.4031785176965027e-01  4.4035337624551296e-01  4.4038802062066246e-01  4.4042154189011512e-01  4.4045365594853519e-01  4.4048399937565164e-01  4.4051207722520319e-01  4.4053719278231823e-01  4.4055835542664618e-01  4.4057416502203028e-01  4.4058267822465497e-01  4.4058127882895914e-01  4.4056660812423726e-01  4.4053467250087935e-01  4.4048134376971165e-01  4.4040355127882691e-01  4.4030149965493481e-01  4.4018177782658313e-01  4.4005986547980602e-01  4.3995866583239535e-01  4.3989744193457941e-01  4.3987665789619740e-01  4.3993851512446952e-01  4.3993881766282567e-01  4.3987994679017889e-01  4.3988822770036040e-01  4.3990347848218286e-01  4.3992758556325839e-01  4.3996131232495023e-01  4.4000433432345526e-01  4.4005589261015654e-01  4.4011506684164381e-01  4.4018086950491264e-01  4.4025228286757240e-01  4.4032828641409472e-01  4.4040788243803636e-01  4.4049011860935017e-01  4.4057410574733236e-01  4.4065902956775810e-01  4.4074415572965475e-01  4.4082882773368409e-01  4.4091245715177635e-01  4.4099450532434781e-01  4.4107445504511722e-01  4.4115176984765830e-01  4.4122583729780496e-01  4.4129589120632856e-01  4.4136090605054640e-01  4.4141945556217194e-01  4.4146952745252738e-01  4.4150828992251773e-01  4.4153181755948451e-01  4.4153481336080397e-01  4.4151042346415958e-01  4.4145035503516439e-01  4.4134568319646694e-01  4.4118893816311611e-01  4.4097819539699079e-01  4.4072294637561510e-01  4.4044966907781014e-01  4.4019940471106817e-01  4.4000840778996375e-01  4.3989701569550355e-01  4.3993776748031932e-01  4.3993914862982142e-01  4.3988540361440392e-01  4.3990374301001173e-01  4.3992872467690719e-01  4.3996285859542433e-01  4.4000840062038932e-01  4.4006567591892254e-01  4.4013399388406466e-01  4.4021224135010989e-01  4.4029913805506454e-01  4.4039334004736613e-01  4.4049349624277911e-01  4.4059828819475949e-01  4.4070646136454139e-01  4.4081684879418015e-01  4.4092838671764273e-01  4.4104012168668555e-01  4.4115120891176030e-01  4.4126090144383223e-01  4.4136852946283234e-01  4.4147346827059902e-01  4.4157509259034899e-01  4.4167271343213765e-01  4.4176549210726662e-01  4.4185232407858138e-01  4.4193168358708435e-01  4.4200141933530879e-01  4.4205849403507880e-01  4.4209867063682867e-01  4.4211617397669922e-01  4.4210341209513238e-01  4.4205095198716138e-01  4.4194811583394106e-01  4.4178483222158088e-01  4.4155544989362050e-01  4.4126441126074739e-01  4.4093167620263607e-01  4.4058641532246667e-01  4.4025024645837774e-01  4.3996770798951335e-01  4.3993949119734832e-01  4.3993989729713118e-01  4.3989547863491729e-01  4.3992890127871376e-01  4.3996426552978557e-01  4.4000520077055211e-01  4.4005654931561050e-01  4.4011991464386563e-01  4.4019503947272393e-01  4.4028087733023258e-01  4.4037607205462870e-01  4.4047915534201676e-01  4.4058864101891798e-01  4.4070308031476924e-01  4.4082110034166105e-01  4.4094143156731891e-01  4.4106292581076811e-01  4.4118456518679189e-01  4.4130546224752359e-01  4.4142485145977900e-01  4.4154207186535821e-01  4.4165654023574547e-01  4.4176771322776842e-01  4.4187503595969002e-01  4.4197787306119851e-01  4.4207541666738193e-01  4.4216656423995487e-01  4.4224975808303402e-01  4.4232277926839353e-01  4.4238249418314846e-01  4.4242456752527154e-01  4.4244319069302679e-01  4.4243094646570841e-01  4.4237904301663084e-01  4.4227833148677109e-01  4.4212130799930116e-01  4.4190457711918868e-01  4.4162616539063565e-01  4.4126361177960893e-01  4.4075380363386174e-01  4.4013925837465390e-01  4.3994712407825481e-01  4.3994108167244245e-01  4.3991065636416027e-01  4.3996540764615594e-01  4.4001355918387808e-01  4.4006062399649370e-01  4.4011535045521838e-01  4.4018124524215346e-01  4.4025875385058810e-01  4.4034704034567379e-01  4.4044477721944059e-01  4.4055046447389984e-01  4.4066256915726137e-01  4.4077959822087687e-01  4.4090014411586737e-01  4.4102291546195294e-01  4.4114675693998967e-01  4.4127066004842341e-01  4.4139376579723666e-01  4.4151536023977322e-01  4.4163486356322990e-01  4.4175181315713785e-01  4.4186584064048612e-01  4.4197664226836225e-01  4.4208394149417113e-01  4.4218744181182290e-01  4.4228676752031726e-01  4.4238139014115868e-01  4.4247053969863132e-01  4.4255310475414211e-01  4.4262753610354511e-01  4.4269179266789999e-01  4.4274341339616385e-01  4.4277986105328826e-01  4.4279932229667068e-01  4.4280158856257884e-01  4.4278640028872512e-01  4.4273323953125793e-01  4.4252761859140916e-01  4.4183212724665022e-01  4.4051635125501948e-01  4.3995992697352077e-01  4.3994271511564359e-01  4.3993122582338579e-01  4.4001432413980290e-01  4.4007874365068700e-01  4.4013264268249636e-01  4.4019009400085507e-01  4.4025718658816232e-01  4.4033532514326135e-01  4.4042398177351266e-01  4.4052190752769177e-01  4.4062760824223018e-01  4.4073953937639326e-01  4.4085619875261428e-01  4.4097617937676725e-01  4.4109820295247731e-01  4.4122114127619760e-01  4.4134402859940525e-01  4.4146606699777591e-01  4.4158662653913333e-01  4.4170524199178457e-01  4.4182160779804869e-01  4.4193557306796638e-01  4.4204713850293631e-01  4.4215645757279581e-01  4.4226384516320821e-01  4.4236979867412746e-01  4.4247503990300879e-01  4.4258059234594516e-01  4.4268792049352795e-01  4.4279918007265412e-01  4.4291767206383637e-01  4.4304867284844213e-01  4.4320095045460378e-01  4.4338943796261326e-01  4.4363912996883187e-01  4.4398669766459165e-01  4.4445460341416759e-01  4.4490386648158764e-01  4.4452478739610890e-01  4.4197758745481819e-01  4.4003755250389942e-01  4.3994482611951641e-01  4.3995757836657740e-01  4.4007672203947856e-01  4.4016153972485206e-01  4.4022360781578990e-01  4.4028382789226161e-01  4.4035160867198475e-01  4.4042958974977808e-01  4.4051764452463976e-01  4.4061463691036862e-01  4.4071909701887207e-01  4.4082948467756300e-01  4.4094430519398747e-01  4.4106216965117273e-01  4.4118183074742429e-01  4.4130220503387163e-01  4.4142238628638203e-01  4.4154165307675908e-01  4.4165947325460142e-01  4.4177550811469618e-01  4.4188961929619208e-01  4.4200188199085116e-01  4.4211260899484056e-01  4.4222239181121431e-01  4.4233216788530627e-01  4.4244332799507857e-01  4.4255788640790567e-01  4.4267875169081816e-01  4.4281016397346878e-01  4.4295841702063793e-01  4.4313308685844444e-01  4.4334919007834939e-01  4.4363111668999916e-01  4.4401994412364232e-01  4.4458682447084830e-01  4.4545439976605006e-01  4.4680861368585267e-01  4.4877177569477239e-01  4.5059170503708540e-01  4.4904369269829508e-01  4.4174789463248232e-01  4.3994746003295088e-01  4.3999028081432978e-01  4.4015397086983521e-01  4.4026384858784584e-01  4.4033574439322598e-01  4.4039902133808212e-01  4.4046721398818289e-01  4.4054450360518854e-01  4.4063126992552598e-01  4.4072652585699318e-01  4.4082884203691131e-01  4.4093669497286825e-01  4.4104860996082157e-01  4.4116322926909057e-01  4.4127934959194492e-01  4.4139594416622735e-01  4.4151217616170080e-01  4.4162740745929174e-01  4.4174120638819564e-01  4.4185335811277532e-01  4.4196388187127228e-01  4.4207306025086496e-01  4.4218148739835406e-01  4.4229014597701338e-01  4.4240052759540871e-01  4.4251481981971275e-01  4.4263619749424737e-01  4.4276928231843010e-01  4.4292088326123108e-01  4.4310122416665026e-01  4.4332605227795907e-01  4.4362040805117187e-01  4.4402567950391203e-01  4.4461329617917739e-01  4.4551223599518164e-01  4.4696311561566648e-01  4.4940846713032079e-01  4.5353976010998504e-01  4.5969758537674471e-01  4.6531893629195736e-01  4.5068010766369632e-01  4.3995067926356074e-01  4.4003010187057789e-01  4.4024787484064587e-01  4.4038805234914880e-01  4.4047165664298354e-01  4.4053833730444503e-01  4.4060665554508405e-01  4.4068268116971654e-01  4.4076742343599629e-01  4.4086008976774155e-01  4.4095931322028503e-01  4.4106360299816744e-01  4.4117151935510163e-01  4.4128175016274429e-01  4.4139314912768657e-01  4.4150475659453509e-01  4.4161581167708869e-01  4.4172576087487597e-01  4.4183426746306587e-01  4.4194122602663199e-01  4.4204678716001833e-01  4.4215139865616881e-01  4.4225587179169529e-01  4.4236148518160223e-01  4.4247014520430417e-01  4.4258463317353425e-01  4.4270898905339279e-01  4.4284911706934577e-01  4.4301376534526604e-01  4.4321616204988051e-01  4.4347685429002792e-01  4.4382885365960861e-01  4.4432740695513134e-01  4.4506938610250141e-01  4.4623353311596919e-01  4.4816409816208547e-01  4.5153793936599124e-01  4.5760658531114529e-01  4.6799044268662565e-01  4.8157638251246271e-01  4.6263617556616515e-01  4.3995456578482134e-01  4.4007804937515904e-01  4.4036078424590919e-01  4.4053720775563082e-01  4.4063460751316702e-01  4.4070500825644709e-01  4.4077302863056261e-01  4.4084702774312057e-01  4.4092879230595300e-01  4.4101778431861233e-01  4.4111273157453534e-01  4.4121220008197692e-01  4.4131480618370600e-01  4.4141930200263602e-01  4.4152461349541705e-01  4.4162985866829196e-01  4.4173435708958309e-01  4.4183763684223948e-01  4.4193944370218352e-01  4.4203975725634898e-01  4.4213881933015919e-01  4.4223718152475361e-01  4.4233578121016953e-01  4.4243605963967153e-01  4.4254014313575712e-01  4.4265112077319962e-01  4.4277347391663635e-01  4.4291375281484868e-01  4.4308167051050451e-01  4.4329193109438136e-01  4.4356740741594231e-01  4.4394491360379734e-01  4.4448618380378990e-01  4.4529975327240762e-01  4.4658631791737369e-01  4.4873359702462701e-01  4.5251066991333688e-01  4.5936006531550166e-01  4.7130483603367812e-01  4.8790510138721405e-01  4.6875136747873292e-01  4.3995922595600040e-01  4.4013543066799204e-01  4.4049574206032660e-01  4.4071525066244455e-01  4.4082875627992463e-01  4.4090309593749766e-01  4.4097015209686707e-01  4.4104104777840453e-01  4.4111852944717073e-01  4.4120239441138553e-01  4.4129151275095296e-01  4.4138454329514282e-01  4.4148018856460658e-01  4.4157728962927195e-01  4.4167486316129129e-01  4.4177211597357535e-01  4.4186845078897685e-01  4.4196347024041238e-01  4.4205698409501160e-01  4.4214902435367337e-01  4.4223987340335502e-01  4.4233011174787867e-01  4.4242069430202768e-01  4.4251306840538246e-01  4.4260935370760196e-01  4.4271261597207351e-01  4.4282728761056250e-01  4.4295982522552901e-01  4.4311976447528773e-01  4.4332146837031072e-01  4.4358713832937213e-01  4.4395222596278849e-01  4.4447560078789561e-01  4.4525950669573083e-01  4.4648990363953278e-01  4.4851855266811530e-01  4.5201764111286596e-01  4.5814903043771726e-01  4.6822617959361273e-01  4.8083798690849183e-01  4.6552907462538745e-01  4.3996479785639930e-01  4.4020394302242094e-01  4.4065669325244161e-01  4.4092726417125055e-01  4.4105943748062465e-01  4.4113775785328879e-01  4.4120281310209919e-01  4.4126906645564901e-01  4.4134045528285309e-01  4.4141722265125938e-01  4.4149844996189064e-01  4.4158294100868140e-01  4.4166952600820336e-01  4.4175716675300736e-01  4.4184499231306695e-01  4.4193230944886597e-01  4.4201860421659295e-01  4.4210354240210237e-01  4.4218697363680620e-01  4.4226894335933714e-01  4.4234971708248433e-01  4.4242982251745444e-01  4.4251011717275118e-01  4.4259189253692383e-01  4.4267703173385681e-01  4.4276824721109903e-01  4.4286944162148728e-01  4.4298626447644002e-01  4.4312699109565135e-01  4.4330395276217327e-01  4.4353594768617588e-01  4.4385246628965069e-01  4.4430139213924169e-01  4.4496350342031943e-01  4.4598005901650783e-01  4.4760314435160647e-01  4.5026440547511165e-01  4.5454346933430784e-01  4.6042121936375369e-01  4.6460215326075505e-01  4.5479767176281721e-01  4.3997146188378899e-01  4.4028580474834644e-01  4.4084878544112482e-01  4.4117985430455192e-01  4.4133353548605325e-01  4.4141558350894688e-01  4.4147704991157116e-01  4.4153645585459811e-01  4.4159923117252575e-01  4.4166621818033841e-01  4.4173680856481917e-01  4.4181002413400694e-01  4.4188487762785628e-01  4.4196049016396483e-01  4.4203612652048008e-01  4.4211120237301960e-01  4.4218528268043533e-01  4.4225807917684284e-01  4.4232945131486895e-01  4.4239941396176147e-01  4.4246815518197335e-01  4.4253606817953867e-01  4.4260380295535906e-01  4.4267234572077807e-01  4.4274313813554617e-01  4.4281825500190036e-01  4.4290066999682648e-01  4.4299465784362191e-01  4.4310641469611201e-01  4.4324503940387733e-01  4.4342413184140411e-01  4.4366447751929361e-01  4.4399867453777392e-01  4.4447915330709792e-01  4.4519137461050062e-01  4.4627031233471093e-01  4.4789042168565862e-01  4.5007666186042933e-01  4.5181377720261207e-01  4.4975435259571556e-01  4.4393593535377290e-01  4.3997945605855093e-01  4.4038394576141371e-01  4.4107880492967338e-01  4.4148168853900532e-01  4.4166000945216027e-01  4.4174504953966498e-01  4.4180051597497533e-01  4.4184990545903940e-01  4.4190054452939348e-01  4.4195409054737933e-01  4.4201038528920550e-01  4.4206876720568816e-01  4.4212849980818658e-01  4.4218890611279837e-01  4.4224940715811661e-01  4.4230952958011605e-01  4.4236890395782696e-01  4.4242726183987413e-01  4.4248443498544243e-01  4.4254035903848321e-01  4.4259508366188816e-01  4.4264879153596504e-01  4.4270182947681042e-01  4.4275475634801248e-01  4.4280841467558157e-01  4.4286403640345223e-01  4.4292339890039195e-01  4.4298905668071120e-01  4.4306469008350391e-01  4.4315563913088651e-01  4.4326973649776474e-01  4.4341862576216207e-01  4.4361983496042318e-01  4.4389981640454212e-01  4.4429712304253771e-01  4.4485901970357239e-01  4.4560019758263419e-01  4.4631453483012551e-01  4.4605591017594948e-01  4.4327549798307087e-01  4.4038148962554424e-01  4.3998909845186424e-01  4.4050228911409384e-01  4.4135581988908890e-01  4.4184428244837631e-01  4.4205064546477124e-01  4.4213715238706741e-01  4.4218296427348613e-01  4.4221775968806870e-01  4.4225131760189035e-01  4.4228641569569616e-01  4.4232353920526324e-01  4.4236246991454664e-01  4.4240279952922662e-01  4.4244409158883585e-01  4.4248593199002911e-01  4.4252794464063616e-01  4.4256979619145365e-01  4.4261119745833327e-01  4.4265190420243411e-01  4.4269171849540379e-01  4.4273049155387451e-01  4.4276812898242290e-01  4.4280459964194191e-01  4.4283994986423336e-01  4.4287432555726775e-01  4.4290800608149711e-01  4.4294145596639006e-01  4.4297540416800796e-01  4.4301096657968408e-01  4.4304983718691093e-01  4.4309458739184154e-01  4.4314912645858262e-01  4.4321935472343549e-01  4.4331382598069241e-01  4.4344316713386700e-01  4.4361275688855756e-01  4.4378934724813029e-01  4.4379290027122598e-01  4.4311021840473103e-01  4.4131658150234870e-01  4.4003979365358198e-01  4.4000082065992230e-01  4.4064617627842423e-01  4.4169215090929681e-01  4.4228317394273137e-01  4.4252115538304571e-01  4.4260630159302322e-01  4.4263689764813785e-01  4.4265043819545452e-01  4.4265993610252696e-01  4.4266972060502835e-01  4.4268117887373565e-01  4.4269468615698526e-01  4.4271023532788367e-01  4.4272764797586484e-01  4.4274665448709194e-01  4.4276693181265309e-01  4.4278812515447713e-01  4.4280986119077681e-01  4.4283175518713597e-01  4.4285341286148261e-01  4.4287442737741722e-01  4.4289437156420264e-01  4.4291278523464256e-01  4.4292915730237031e-01  4.4294290238077916e-01  4.4295333186260805e-01  4.4295962048915771e-01  4.4296077176291765e-01  4.4295559030580761e-01  4.4294267809022397e-01  4.4292048592952588e-01  4.4288746988514666e-01  4.4284240478369069e-01  4.4278479667918241e-01  4.4271475150492456e-01  4.4262947231437894e-01  4.4250723070083475e-01  4.4226051121130611e-01  4.4167687510463233e-01  4.4063304738805115e-01  4.3999811622190715e-01  4.4001521888435530e-01  4.4082302754204761e-01  4.4210487617121691e-01  4.4281972191612923e-01  4.4309281684814694e-01  4.4317159802849720e-01  4.4317844182524102e-01  4.4316094543780199e-01  4.4313647487700669e-01  4.4311151208143151e-01  4.4308867118125694e-01  4.4306907218545605e-01  4.4305314553788400e-01  4.4304093436751907e-01  4.4303223531581970e-01  4.4302668063709583e-01  4.4302379166506811e-01  4.4302301304391351e-01  4.4302373145589224e-01  4.4302528082121884e-01  4.4302693503118273e-01  4.4302788847717262e-01  4.4302722386366711e-01  4.4302386612578398e-01  4.4301652090955929e-01  4.4300359639539511e-01  4.4298310897869331e-01  4.4295257777109098e-01  4.4290892231394619e-01  4.4284839588071917e-01  4.4276661772559067e-01  4.4265881551732889e-01  4.4252044433564897e-01  4.4234835166797110e-01  4.4214239249216658e-01  4.4190619878518189e-01  4.4164236405377083e-01  4.4133215027118144e-01  4.4090102203003623e-01  4.4030212260407248e-01  4.3997312556079082e-01  4.4003313386491111e-01  4.4104339678313137e-01  4.4261824446690756e-01  4.4348394829499710e-01  4.4379498101845127e-01  4.4385868513520133e-01  4.4382850573826155e-01  4.4376545213724122e-01  4.4369286360608756e-01  4.4362018380921148e-01  4.4355161412242061e-01  4.4348911064953961e-01  4.4343347518209497e-01  4.4338482372566590e-01  4.4334283754938530e-01  4.4330692005000244e-01  4.4327629907052107e-01  4.4325009057353393e-01  4.4322733236960948e-01  4.4320699351830661e-01  4.4318796289012929e-01  4.4316901855059593e-01  4.4314877806335462e-01  4.4312562864607796e-01  4.4309763565799076e-01  4.4306242877620328e-01  4.4301706862178292e-01  4.4295790464140949e-01  4.4288045132914239e-01  4.4277933950558451e-01  4.4264844886016402e-01  4.4248140149320841e-01  4.4227267914833657e-01  4.4201966238321577e-01  4.4172567165848864e-01  4.4140312551098210e-01  4.4107338487372161e-01  4.4075548841773377e-01  4.4043952424786548e-01  4.4010203776379675e-01  4.3995757795594437e-01  4.4005577452576017e-01  4.4132272585984034e-01  4.4326771124773845e-01  4.4431919825835664e-01  4.4466901448776780e-01  4.4470245300869915e-01  4.4461428003772679e-01  4.4448387052219035e-01  4.4434287006864320e-01  4.4420468567175669e-01  4.4407538503036581e-01  4.4395765226794903e-01  4.4385236803463002e-01  4.4375936570294172e-01  4.4367786013548494e-01  4.4360671245208816e-01  4.4354459407733926e-01  4.4349008194585610e-01  4.4344170445262371e-01  4.4339795089129863e-01  4.4335725226838957e-01  4.4331793767259492e-01  4.4327816760126615e-01  4.4323584382175474e-01  4.4318849476983463e-01  4.4313313692338274e-01  4.4306611757005371e-01  4.4298295565739770e-01  4.4287821944405831e-01  4.4274551844186133e-01  4.4257775006765088e-01  4.4236782777133465e-01  4.4211020705919324e-01  4.4180354477260858e-01  4.4145454332737727e-01  4.4108212055878082e-01  4.4071891703530586e-01  4.4040400757582532e-01  4.4016074380305831e-01  4.3998015611937741e-01  4.3994761094830509e-01  4.4008492988654591e-01  4.4168445781514637e-01  4.4410701364330868e-01  4.4539015402929777e-01  4.4577468331645775e-01  4.4575098077895148e-01  4.4557103663154352e-01  4.4534020158507925e-01  4.451016576