<?xml version="1.0"?>
<VTKFile type="UnstructuredGrid"  version="0.1"  >
<UnstructuredGrid>
<Piece  NumberOfPoints="1681" NumberOfCells="3200">
<Points>
<DataArray  type="Float64"  NumberOfComponents="3"  format="ascii">0 0 0  0.025 0 0  0.05 0 0  0.075 0 0  0.1 0 0  0.125 0 0  0.15 0 0  0.175 0 0  0.2 0 0  0.225 0 0  0.25 0 0  0.275 0 0  0.3 0 0  0.325 0 0  0.35 0 0  0.375 0 0  0.4 0 0  0.425 0 0  0.45 0 0  0.475 0 0  0.5 0 0  0.525 0 0  0.55 0 0  0.575 0 0  0.6 0 0  0.625 0 0  0.65 0 0  0.675 0 0  0.7 0 0  0.725 0 0  0.75 0 0  0.775 0 0  0.8 0 0  0.825 0 0  0.85 0 0  0.875 0 0  0.9 0 0  0.925 0 0  0.95 0 0  0.975 0 0  1 0 0  0 0.025 0  0.025 0.025 0  0.05 0.025 0  0.075 0.025 0  0.1 0.025 0  0.125 0.025 0  0.15 0.025 0  0.175 0.025 0  0.2 0.025 0  0.225 0.025 0  0.25 0.025 0  0.275 0.025 0  0.3 0.025 0  0.325 0.025 0  0.35 0.025 0  0.375 0.025 0  0.4 0.025 0  0.425 0.025 0  0.45 0.025 0  0.475 0.025 0  0.5 0.025 0  0.525 0.025 0  0.55 0.025 0  0.575 0.025 0  0.6 0.025 0  0.625 0.025 0  0.65 0.025 0  0.675 0.025 0  0.7 0.025 0  0.725 0.025 0  0.75 0.025 0  0.775 0.025 0  0.8 0.025 0  0.825 0.025 0  0.85 0.025 0  0.875 0.025 0  0.9 0.025 0  0.925 0.025 0  0.95 0.025 0  0.975 0.025 0  1 0.025 0  0 0.05 0  0.025 0.05 0  0.05 0.05 0  0.075 0.05 0  0.1 0.05 0  0.125 0.05 0  0.15 0.05 0  0.175 0.05 0  0.2 0.05 0  0.225 0.05 0  0.25 0.05 0  0.275 0.05 0  0.3 0.05 0  0.325 0.05 0  0.35 0.05 0  0.375 0.05 0  0.4 0.05 0  0.425 0.05 0  0.45 0.05 0  0.475 0.05 0  0.5 0.05 0  0.525 0.05 0  0.55 0.05 0  0.575 0.05 0  0.6 0.05 0  0.625 0.05 0  0.65 0.05 0  0.675 0.05 0  0.7 0.05 0  0.725 0.05 0  0.75 0.05 0  0.775 0.05 0  0.8 0.05 0  0.825 0.05 0  0.85 0.05 0  0.875 0.05 0  0.9 0.05 0  0.925 0.05 0  0.95 0.05 0  0.975 0.05 0  1 0.05 0  0 0.075 0  0.025 0.075 0  0.05 0.075 0  0.075 0.075 0  0.1 0.075 0  0.125 0.075 0  0.15 0.075 0  0.175 0.075 0  0.2 0.075 0  0.225 0.075 0  0.25 0.075 0  0.275 0.075 0  0.3 0.075 0  0.325 0.075 0  0.35 0.075 0  0.375 0.075 0  0.4 0.075 0  0.425 0.075 0  0.45 0.075 0  0.475 0.075 0  0.5 0.075 0  0.525 0.075 0  0.55 0.075 0  0.575 0.075 0  0.6 0.075 0  0.625 0.075 0  0.65 0.075 0  0.675 0.075 0  0.7 0.075 0  0.725 0.075 0  0.75 0.075 0  0.775 0.075 0  0.8 0.075 0  0.825 0.075 0  0.85 0.075 0  0.875 0.075 0  0.9 0.075 0  0.925 0.075 0  0.95 0.075 0  0.975 0.075 0  1 0.075 0  0 0.1 0  0.025 0.1 0  0.05 0.1 0  0.075 0.1 0  0.1 0.1 0  0.125 0.1 0  0.15 0.1 0  0.175 0.1 0  0.2 0.1 0  0.225 0.1 0  0.25 0.1 0  0.275 0.1 0  0.3 0.1 0  0.325 0.1 0  0.35 0.1 0  0.375 0.1 0  0.4 0.1 0  0.425 0.1 0  0.45 0.1 0  0.475 0.1 0  0.5 0.1 0  0.525 0.1 0  0.55 0.1 0  0.575 0.1 0  0.6 0.1 0  0.625 0.1 0  0.65 0.1 0  0.675 0.1 0  0.7 0.1 0  0.725 0.1 0  0.75 0.1 0  0.775 0.1 0  0.8 0.1 0  0.825 0.1 0  0.85 0.1 0  0.875 0.1 0  0.9 0.1 0  0.925 0.1 0  0.95 0.1 0  0.975 0.1 0  1 0.1 0  0 0.125 0  0.025 0.125 0  0.05 0.125 0  0.075 0.125 0  0.1 0.125 0  0.125 0.125 0  0.15 0.125 0  0.175 0.125 0  0.2 0.125 0  0.225 0.125 0  0.25 0.125 0  0.275 0.125 0  0.3 0.125 0  0.325 0.125 0  0.35 0.125 0  0.375 0.125 0  0.4 0.125 0  0.425 0.125 0  0.45 0.125 0  0.475 0.125 0  0.5 0.125 0  0.525 0.125 0  0.55 0.125 0  0.575 0.125 0  0.6 0.125 0  0.625 0.125 0  0.65 0.125 0  0.675 0.125 0  0.7 0.125 0  0.725 0.125 0  0.75 0.125 0  0.775 0.125 0  0.8 0.125 0  0.825 0.125 0  0.85 0.125 0  0.875 0.125 0  0.9 0.125 0  0.925 0.125 0  0.95 0.125 0  0.975 0.125 0  1 0.125 0  0 0.15 0  0.025 0.15 0  0.05 0.15 0  0.075 0.15 0  0.1 0.15 0  0.125 0.15 0  0.15 0.15 0  0.175 0.15 0  0.2 0.15 0  0.225 0.15 0  0.25 0.15 0  0.275 0.15 0  0.3 0.15 0  0.325 0.15 0  0.35 0.15 0  0.375 0.15 0  0.4 0.15 0  0.425 0.15 0  0.45 0.15 0  0.475 0.15 0  0.5 0.15 0  0.525 0.15 0  0.55 0.15 0  0.575 0.15 0  0.6 0.15 0  0.625 0.15 0  0.65 0.15 0  0.675 0.15 0  0.7 0.15 0  0.725 0.15 0  0.75 0.15 0  0.775 0.15 0  0.8 0.15 0  0.825 0.15 0  0.85 0.15 0  0.875 0.15 0  0.9 0.15 0  0.925 0.15 0  0.95 0.15 0  0.975 0.15 0  1 0.15 0  0 0.175 0  0.025 0.175 0  0.05 0.175 0  0.075 0.175 0  0.1 0.175 0  0.125 0.175 0  0.15 0.175 0  0.175 0.175 0  0.2 0.175 0  0.225 0.175 0  0.25 0.175 0  0.275 0.175 0  0.3 0.175 0  0.325 0.175 0  0.35 0.175 0  0.375 0.175 0  0.4 0.175 0  0.425 0.175 0  0.45 0.175 0  0.475 0.175 0  0.5 0.175 0  0.525 0.175 0  0.55 0.175 0  0.575 0.175 0  0.6 0.175 0  0.625 0.175 0  0.65 0.175 0  0.675 0.175 0  0.7 0.175 0  0.725 0.175 0  0.75 0.175 0  0.775 0.175 0  0.8 0.175 0  0.825 0.175 0  0.85 0.175 0  0.875 0.175 0  0.9 0.175 0  0.925 0.175 0  0.95 0.175 0  0.975 0.175 0  1 0.175 0  0 0.2 0  0.025 0.2 0  0.05 0.2 0  0.075 0.2 0  0.1 0.2 0  0.125 0.2 0  0.15 0.2 0  0.175 0.2 0  0.2 0.2 0  0.225 0.2 0  0.25 0.2 0  0.275 0.2 0  0.3 0.2 0  0.325 0.2 0  0.35 0.2 0  0.375 0.2 0  0.4 0.2 0  0.425 0.2 0  0.45 0.2 0  0.475 0.2 0  0.5 0.2 0  0.525 0.2 0  0.55 0.2 0  0.575 0.2 0  0.6 0.2 0  0.625 0.2 0  0.65 0.2 0  0.675 0.2 0  0.7 0.2 0  0.725 0.2 0  0.75 0.2 0  0.775 0.2 0  0.8 0.2 0  0.825 0.2 0  0.85 0.2 0  0.875 0.2 0  0.9 0.2 0  0.925 0.2 0  0.95 0.2 0  0.975 0.2 0  1 0.2 0  0 0.225 0  0.025 0.225 0  0.05 0.225 0  0.075 0.225 0  0.1 0.225 0  0.125 0.225 0  0.15 0.225 0  0.175 0.225 0  0.2 0.225 0  0.225 0.225 0  0.25 0.225 0  0.275 0.225 0  0.3 0.225 0  0.325 0.225 0  0.35 0.225 0  0.375 0.225 0  0.4 0.225 0  0.425 0.225 0  0.45 0.225 0  0.475 0.225 0  0.5 0.225 0  0.525 0.225 0  0.55 0.225 0  0.575 0.225 0  0.6 0.225 0  0.625 0.225 0  0.65 0.225 0  0.675 0.225 0  0.7 0.225 0  0.725 0.225 0  0.75 0.225 0  0.775 0.225 0  0.8 0.225 0  0.825 0.225 0  0.85 0.225 0  0.875 0.225 0  0.9 0.225 0  0.925 0.225 0  0.95 0.225 0  0.975 0.225 0  1 0.225 0  0 0.25 0  0.025 0.25 0  0.05 0.25 0  0.075 0.25 0  0.1 0.25 0  0.125 0.25 0  0.15 0.25 0  0.175 0.25 0  0.2 0.25 0  0.225 0.25 0  0.25 0.25 0  0.275 0.25 0  0.3 0.25 0  0.325 0.25 0  0.35 0.25 0  0.375 0.25 0  0.4 0.25 0  0.425 0.25 0  0.45 0.25 0  0.475 0.25 0  0.5 0.25 0  0.525 0.25 0  0.55 0.25 0  0.575 0.25 0  0.6 0.25 0  0.625 0.25 0  0.65 0.25 0  0.675 0.25 0  0.7 0.25 0  0.725 0.25 0  0.75 0.25 0  0.775 0.25 0  0.8 0.25 0  0.825 0.25 0  0.85 0.25 0  0.875 0.25 0  0.9 0.25 0  0.925 0.25 0  0.95 0.25 0  0.975 0.25 0  1 0.25 0  0 0.275 0  0.025 0.275 0  0.05 0.275 0  0.075 0.275 0  0.1 0.275 0  0.125 0.275 0  0.15 0.275 0  0.175 0.275 0  0.2 0.275 0  0.225 0.275 0  0.25 0.275 0  0.275 0.275 0  0.3 0.275 0  0.325 0.275 0  0.35 0.275 0  0.375 0.275 0  0.4 0.275 0  0.425 0.275 0  0.45 0.275 0  0.475 0.275 0  0.5 0.275 0  0.525 0.275 0  0.55 0.275 0  0.575 0.275 0  0.6 0.275 0  0.625 0.275 0  0.65 0.275 0  0.675 0.275 0  0.7 0.275 0  0.725 0.275 0  0.75 0.275 0  0.775 0.275 0  0.8 0.275 0  0.825 0.275 0  0.85 0.275 0  0.875 0.275 0  0.9 0.275 0  0.925 0.275 0  0.95 0.275 0  0.975 0.275 0  1 0.275 0  0 0.3 0  0.025 0.3 0  0.05 0.3 0  0.075 0.3 0  0.1 0.3 0  0.125 0.3 0  0.15 0.3 0  0.175 0.3 0  0.2 0.3 0  0.225 0.3 0  0.25 0.3 0  0.275 0.3 0  0.3 0.3 0  0.325 0.3 0  0.35 0.3 0  0.375 0.3 0  0.4 0.3 0  0.425 0.3 0  0.45 0.3 0  0.475 0.3 0  0.5 0.3 0  0.525 0.3 0  0.55 0.3 0  0.575 0.3 0  0.6 0.3 0  0.625 0.3 0  0.65 0.3 0  0.675 0.3 0  0.7 0.3 0  0.725 0.3 0  0.75 0.3 0  0.775 0.3 0  0.8 0.3 0  0.825 0.3 0  0.85 0.3 0  0.875 0.3 0  0.9 0.3 0  0.925 0.3 0  0.95 0.3 0  0.975 0.3 0  1 0.3 0  0 0.325 0  0.025 0.325 0  0.05 0.325 0  0.075 0.325 0  0.1 0.325 0  0.125 0.325 0  0.15 0.325 0  0.175 0.325 0  0.2 0.325 0  0.225 0.325 0  0.25 0.325 0  0.275 0.325 0  0.3 0.325 0  0.325 0.325 0  0.35 0.325 0  0.375 0.325 0  0.4 0.325 0  0.425 0.325 0  0.45 0.325 0  0.475 0.325 0  0.5 0.325 0  0.525 0.325 0  0.55 0.325 0  0.575 0.325 0  0.6 0.325 0  0.625 0.325 0  0.65 0.325 0  0.675 0.325 0  0.7 0.325 0  0.725 0.325 0  0.75 0.325 0  0.775 0.325 0  0.8 0.325 0  0.825 0.325 0  0.85 0.325 0  0.875 0.325 0  0.9 0.325 0  0.925 0.325 0  0.95 0.325 0  0.975 0.325 0  1 0.325 0  0 0.35 0  0.025 0.35 0  0.05 0.35 0  0.075 0.35 0  0.1 0.35 0  0.125 0.35 0  0.15 0.35 0  0.175 0.35 0  0.2 0.35 0  0.225 0.35 0  0.25 0.35 0  0.275 0.35 0  0.3 0.35 0  0.325 0.35 0  0.35 0.35 0  0.375 0.35 0  0.4 0.35 0  0.425 0.35 0  0.45 0.35 0  0.475 0.35 0  0.5 0.35 0  0.525 0.35 0  0.55 0.35 0  0.575 0.35 0  0.6 0.35 0  0.625 0.35 0  0.65 0.35 0  0.675 0.35 0  0.7 0.35 0  0.725 0.35 0  0.75 0.35 0  0.775 0.35 0  0.8 0.35 0  0.825 0.35 0  0.85 0.35 0  0.875 0.35 0  0.9 0.35 0  0.925 0.35 0  0.95 0.35 0  0.975 0.35 0  1 0.35 0  0 0.375 0  0.025 0.375 0  0.05 0.375 0  0.075 0.375 0  0.1 0.375 0  0.125 0.375 0  0.15 0.375 0  0.175 0.375 0  0.2 0.375 0  0.225 0.375 0  0.25 0.375 0  0.275 0.375 0  0.3 0.375 0  0.325 0.375 0  0.35 0.375 0  0.375 0.375 0  0.4 0.375 0  0.425 0.375 0  0.45 0.375 0  0.475 0.375 0  0.5 0.375 0  0.525 0.375 0  0.55 0.375 0  0.575 0.375 0  0.6 0.375 0  0.625 0.375 0  0.65 0.375 0  0.675 0.375 0  0.7 0.375 0  0.725 0.375 0  0.75 0.375 0  0.775 0.375 0  0.8 0.375 0  0.825 0.375 0  0.85 0.375 0  0.875 0.375 0  0.9 0.375 0  0.925 0.375 0  0.95 0.375 0  0.975 0.375 0  1 0.375 0  0 0.4 0  0.025 0.4 0  0.05 0.4 0  0.075 0.4 0  0.1 0.4 0  0.125 0.4 0  0.15 0.4 0  0.175 0.4 0  0.2 0.4 0  0.225 0.4 0  0.25 0.4 0  0.275 0.4 0  0.3 0.4 0  0.325 0.4 0  0.35 0.4 0  0.375 0.4 0  0.4 0.4 0  0.425 0.4 0  0.45 0.4 0  0.475 0.4 0  0.5 0.4 0  0.525 0.4 0  0.55 0.4 0  0.575 0.4 0  0.6 0.4 0  0.625 0.4 0  0.65 0.4 0  0.675 0.4 0  0.7 0.4 0  0.725 0.4 0  0.75 0.4 0  0.775 0.4 0  0.8 0.4 0  0.825 0.4 0  0.85 0.4 0  0.875 0.4 0  0.9 0.4 0  0.925 0.4 0  0.95 0.4 0  0.975 0.4 0  1 0.4 0  0 0.425 0  0.025 0.425 0  0.05 0.425 0  0.075 0.425 0  0.1 0.425 0  0.125 0.425 0  0.15 0.425 0  0.175 0.425 0  0.2 0.425 0  0.225 0.425 0  0.25 0.425 0  0.275 0.425 0  0.3 0.425 0  0.325 0.425 0  0.35 0.425 0  0.375 0.425 0  0.4 0.425 0  0.425 0.425 0  0.45 0.425 0  0.475 0.425 0  0.5 0.425 0  0.525 0.425 0  0.55 0.425 0  0.575 0.425 0  0.6 0.425 0  0.625 0.425 0  0.65 0.425 0  0.675 0.425 0  0.7 0.425 0  0.725 0.425 0  0.75 0.425 0  0.775 0.425 0  0.8 0.425 0  0.825 0.425 0  0.85 0.425 0  0.875 0.425 0  0.9 0.425 0  0.925 0.425 0  0.95 0.425 0  0.975 0.425 0  1 0.425 0  0 0.45 0  0.02
[...]
<PointData  Scalars="ControlVisualisation"> 
<DataArray  type="Float64"  Name="ControlVisualisation"  format="ascii">1.2821321021830812e-01  9.0196160857958896e-02  9.0200681242507089e-02  9.0208390425479956e-02  9.0219237697758387e-02  9.0233181408776716e-02  9.0250152735645642e-02  9.0270067257093869e-02  9.0292823119967863e-02  9.0318301503199722e-02  9.0346368506128066e-02  9.0376877711250928e-02  9.0409673356316916e-02  9.0444593502811046e-02  9.0481472240180189e-02  9.0520139554068915e-02  9.0560417076973140e-02  9.0602107618830682e-02  9.0644976247439335e-02  9.0688720899535682e-02  9.0732931139094072e-02  9.0777034665517078e-02  9.0820232570993725e-02  9.0861427004679599e-02  9.0899146264673228e-02  9.0931471890020210e-02  9.0955981676286865e-02  9.0969733776285561e-02  9.0969330696523382e-02  9.0951112170866835e-02  9.0911587476536465e-02  9.0848277592980642e-02  9.0760985698134677e-02  9.0653262044341321e-02  9.0533720797644143e-02  9.0416260416057784e-02  9.0316860894001844e-02  9.0247356516986232e-02  9.0209898433694702e-02  9.0196158634794674e-02  2.1742404338633561e-01  9.0196161301160968e-02  4.7526280990771386e-02  4.7532772172078221e-02  4.7544192933915402e-02  4.7560714521236919e-02  4.7582242487639786e-02  4.7608643512562915e-02  4.7639759513243729e-02  4.7675403159570112e-02  4.7715362459737003e-02  4.7759406473810030e-02  4.7807293220859200e-02  4.7858779557246309e-02  4.7913632054278885e-02  4.7971637257727906e-02  4.8032608780096436e-02  4.8096387655495051e-02  4.8162831404455833e-02  4.8231786550289077e-02  4.8303039184104286e-02  4.8376238875467589e-02  4.8450793162431428e-02  4.8525733470121096e-02  4.8599557783488546e-02  4.8670057995680541e-02  4.8734151538564745e-02  4.8787749147320883e-02  4.8825686174732222e-02  4.8841773408676105e-02  4.8829082232480871e-02  4.8780696860687034e-02  4.8691092985774939e-02  4.8558153209466347e-02  4.8385744365669309e-02  4.8185958146304379e-02  4.7979885262436170e-02  4.7794562939500712e-02  4.7655572834466538e-02  4.7572772835591637e-02  4.7534726577969082e-02  9.0196029574493922e-02  9.0200690551718796e-02  4.7532792705325441e-02  4.7541852919427557e-02  4.7555859183557071e-02  4.7576164959814982e-02  4.7602673615277223e-02  4.7635205433068553e-02  4.7673531161774266e-02  4.7717380153011253e-02  4.7766448629201021e-02  4.7820409008555886e-02  4.7878923717647452e-02  4.7941662805593456e-02  4.8008324482894403e-02  4.8078656615212365e-02  4.8152475761601060e-02  4.8229678674821023e-02  4.8310239435813820e-02  4.8394183907933715e-02  4.8481532368441702e-02  4.8572201827785898e-02  4.8665862398522011e-02  4.8761746756351969e-02  4.8858417100206122e-02  4.8953507204430216e-02  4.9043480141142931e-02  4.9123405204180320e-02  4.9186801201427231e-02  4.9225674575560874e-02  4.9230885954514962e-02  4.9192908661815742e-02  4.9103042814506941e-02  4.8955885335880904e-02  4.8753375579451190e-02  4.8506422184517749e-02  4.8236669362070203e-02  4.7977826943071636e-02  4.7770154183587245e-02  4.7633401809553007e-02  4.7560097728322558e-02  9.0204934417335195e-02  9.0208447372080766e-02  4.7544321524318339e-02  4.7556013408506265e-02  4.7570367027861771e-02  4.7590981786359121e-02  4.7617858645334334e-02  4.7650832810739840e-02  4.7689663217970794e-02  4.7734060755148223e-02  4.7783696458791478e-02  4.7838212140677211e-02  4.7897235400558957e-02  4.7960399379478873e-02  4.8027366977519866e-02  4.8097857894585296e-02  4.8171675324466465e-02  4.8248727203602598e-02  4.8329034752774364e-02  4.8412718936593581e-02  4.8499954190168983e-02  4.8590879366783524e-02  4.8685457680886376e-02  4.8783282946514357e-02  4.8883342451116085e-02  4.8983767020815631e-02  4.9081569474430278e-02  4.9172380024359516e-02  4.9250464081195058e-02  4.9308788277087574e-02  4.9339083217653248e-02  4.9331678251187762e-02  4.9276718156177790e-02  4.9166548766534493e-02  4.9000479091900251e-02  4.8782921287851153e-02  4.8521881390081810e-02  4.8231110810873550e-02  4.7945077863313687e-02  4.7714103659142422e-02  4.7576625870071901e-02  9.0212610876904242e-02  9.0219438960507048e-02  4.7561170958540393e-02  4.7576798077237775e-02  4.7591479186458022e-02  4.7612213726186861e-02  4.7639184666064434e-02  4.7672253476959539e-02  4.7711175137257311e-02  4.7755646840886908e-02  4.7805317493244771e-02  4.7859799256445311e-02  4.7918682564290271e-02  4.7981556769177279e-02  4.8048036662428441e-02  4.8117793931326078e-02  4.8190591141942345e-02  4.8266313790969496e-02  4.8344993400730008e-02  4.8426811942948032e-02  4.8512076018425998e-02  4.8601147707329082e-02  4.8694320768020487e-02  4.8791644542870029e-02  4.8892703939074605e-02  4.8996362703309357e-02  4.9100487160837709e-02  4.9201975267880949e-02  4.9296898337894413e-02  4.9379783942082978e-02  4.9444756749199299e-02  4.9486857578118715e-02  4.9506544636021832e-02  4.9499699586972284e-02  4.9465382474917878e-02  4.9418088304325987e-02  4.9315550045930523e-02  4.9026324368420596e-02  4.8540423681495415e-02  4.8026067928179067e-02  4.7643600881320747e-02  9.0197913965885307e-02  9.0233708243853517e-02  4.7583444233518610e-02  4.7604408528502160e-02  4.7619507829024375e-02  4.7640350741765113e-02  4.7667377392243464e-02  4.7700482909725318e-02  4.7739418474091584e-02  4.7783863581748194e-02  4.7833439203224214e-02  4.7887719890489941e-02  4.7946248549404685e-02  4.8008557540660184e-02  4.8074196883429968e-02  4.8142769472539780e-02  4.8213971865719525e-02  4.8287637192037595e-02  4.8363774015408603e-02  4.8442591888066024e-02  4.8524500593419860e-02  4.8610067348467956e-02  4.8699925042555901e-02  4.8794624355366800e-02  4.8894410999138715e-02  4.8999018273158307e-02  4.9107636518446802e-02  4.9219159466140992e-02  4.9331504164084092e-02  4.9444931426911622e-02  4.9570875324445610e-02  4.9736167769816382e-02  5.0011551264951805e-02  5.0539722770235065e-02  5.1594848365370441e-02  5.3530300151253929e-02  5.5827365903677678e-02  5.6972468463448153e-02  5.5890429461571238e-02  5.1466158509239621e-02  4.8175409775021355e-02  9.0618627831739587e-02  9.0251295859832492e-02  4.7611268597845161e-02  4.7639063063961415e-02  4.7654710798274366e-02  4.7675690222534206e-02  4.7702781148501905e-02  4.7735923428652127e-02  4.7774862405317260e-02  4.7819252890422423e-02  4.7868678003342269e-02  4.7922661675047371e-02  4.7980682882583961e-02  4.8042196550335411e-02  4.8106662520208086e-02  4.8173583330466507e-02  4.8242550439131636e-02  4.8313296840981172e-02  4.8385751371668097e-02  4.8460086061374488e-02  4.8536743318652244e-02  4.8616431365240347e-02  4.8700073794889172e-02  4.8788673739210059e-02  4.8883185299886799e-02  4.8984553655432493e-02  4.9093742539195379e-02  4.9212530371735619e-02  4.9348431923507678e-02  4.9535808924306042e-02  4.9860223449421995e-02  5.0623393468177638e-02  5.2858310691812141e-02  5.8428226925361780e-02  6.8906077535005966e-02  9.1843879484632213e-02  1.4264288210106693e-01  2.1240571729531899e-01  2.3900287729937120e-01  1.5660366530696015e-01  6.6867832435536873e-02  9.2780121729077500e-02  9.0272248483671130e-02  4.7644805414983622e-02  4.7681026006748214e-02  4.7697375353330899e-02  4.7718538888226733e-02  4.7745726712352055e-02  4.7778934417461616e-02  4.7817897698632539e-02  4.7862236928384039e-02  4.7911483097047541e-02  4.7965090555065058e-02  4.8022449905852069e-02  4.8082907307134264e-02  4.8145792222805350e-02  4.8210455143923678e-02  4.8276316152802486e-02  4.8342923985207793e-02  4.8410022756282298e-02  4.8477620362507620e-02  4.8546050351654227e-02  4.8616014695780939e-02  4.8688572460059358e-02  4.8765127605040259e-02  4.8847616159333675e-02  4.8938638820002794e-02  4.9043302101168862e-02  4.9179045336752061e-02  4.9405228578792960e-02  4.9934625142844927e-02  5.1629052454073399e-02  5.7132445545946535e-02  7.1537260854770759e-02  1.2249091018634639e-01  3.1869124211072053e-01  6.2346218388750807e-01  8.1467794089724455e-01  8.9301968928676956e-01  9.2321218171036401e-01  9.3271869317175404e-01  9.2563955285323385e-01  6.5756997145363072e-01  9.0296611473708932e-02  4.7684238118436986e-02  4.7730608232654737e-02  4.7747841137866349e-02  4.7769259219264074e-02  4.7796603906078310e-02  4.7829937210506060e-02  4.7868978581381949e-02  4.7913299764739119e-02  4.7962359353926211e-02  4.8015515339199004e-02  4.8072035144389867e-02  4.8131110868201737e-02  4.8191882307283163e-02  4.8253469929717345e-02  4.8315019927053421e-02  4.8375762940269032e-02  4.8435087616650753e-02  4.8492628976497414e-02  4.8548367225513728e-02  4.8602727933463555e-02  4.8656722351575518e-02  4.8712328698705794e-02  4.8773135261008800e-02  4.8847247121564928e-02  4.8962464781116162e-02  4.9215020357478552e-02  5.0003016929923330e-02  5.3059557290517673e-02  6.2819505656333832e-02  9.7889492400145481e-02  2.6687979330429357e-01  6.6699972903721860e-01  8.8290817182336090e-01  9.4143038844341509e-01  9.6293734078894111e-01  9.7406509889836490e-01  9.8091369656048322e-01  9.8559088800048933e-01  9.8879834528896005e-01  9.7588348139258863e-01  9.0324420272058129e-02  4.7729763850320066e-02  4.7788161629095341e-02  4.7806498544551206e-02  4.7828275559888729e-02  4.7855879570661758e-02  4.7889447722087052e-02  4.7928671070637627e-02  4.7973051412589653e-02  4.8021946159391669e-02  4.8074579830767315e-02  4.8130048856898804e-02  4.8187328925162719e-02  4.8245287755389242e-02  4.8302706031634376e-02  4.8358310163017199e-02  4.8410821353921357e-02  4.8459028295186272e-02  4.8501888950665976e-02  4.8538683556364433e-02  4.8569285966687421e-02  4.8594746700301950e-02  4.8618616737129160e-02  4.8651395833375161e-02  4.8730482431916487e-02  4.8996140471117576e-02  5.0073378030902872e-02  5.4600906044112073e-02  7.0020604746066015e-02  1.3883498274530870e-01  4.4979966431272889e-01  8.4071052410879676e-01  9.3573380450574661e-01  9.6307487560422878e-01  9.7549322828487517e-01  9.8242603760194269e-01  9.8692237889127754e-01  9.9021756436450836e-01  9.9272406897537535e-01  9.9442807152076573e-01  9.8949259147443880e-01  9.0355687500457582e-02  4.7781577508033711e-02  4.7854065160060140e-02  4.7873783449172501e-02  4.7896081152533188e-02  4.7924119202201701e-02  4.7958113584445766e-02  4.7997704965871565e-02  4.8042292705953005e-02  4.8091092371423824e-02  4.8143144807539187e-02  4.8197312127275883e-02  4.8252271660220197e-02  4.8306511166175327e-02  4.8358328831574586e-02  4.8405842974090257e-02  4.8447020558443202e-02  4.8479742977657066e-02  4.8501946199451348e-02  4.8511951786256682e-02  4.8509189444777764e-02  4.8496115366772535e-02  4.8484460819648696e-02  4.8519510131226143e-02  4.8782996157840978e-02  5.0124703185232343e-02  5.5980956127550351e-02  7.7762558676301025e-02  1.8678705976553045e-01  6.0874168243211424e-01  8.9745426615318313e-01  9.5204014279922833e-01  9.7067416360404879e-01  9.7967508618211618e-01  9.8471662082984412e-01  9.8801131796044572e-01  9.9050406173638428e-01  9.9257239720928503e-01  9.9426969638210672e-01  9.9547507105292554e-01  9.9193350655712886e-01  9.0390380878913310e-02  4.7839843175179808e-02  4.7928700582827638e-02  4.7950169013205882e-02  4.7973251409348633e-02  4.8002025030504568e-02  4.8036777311633673e-02  4.8077059400327103e-02  4.8122118671124002e-02  4.8170972402434606e-02  4.8222412406680473e-02  4.8274987397475107e-02  4.8326976923394299e-02  4.8376360527087089e-02  4.8420786074268231e-02  4.8457547561996897e-02  4.8483603035207816e-02  4.8495673046132455e-02  4.8490549871812262e-02  4.8465889600211046e-02  4.8422491024175070e-02  4.8372131477791284e-02  4.8365536732849594e-02  4.8616714101925571e-02  5.0156498415224189e-02  5.7051819698888777e-02  8.4495812690608449e-02  2.2791934210005368e-01  7.1362525864673310e-01  9.1944048356312935e-01  9.5911204917729764e-01  9.7404214870184325e-01  9.8125858037705560e-01  9.8525238780323710e-01  9.8777326135365251e-01  9.8959337973721839e-01  9.9110066084016690e-01  9.9246955050492947e-01  9.9370779524637498e-01  9.9467287238710711e-01  9.9088116809915106e-01  9.0428383738718435e-02  4.7904640863938135e-02  4.8012406917385092e-02  4.8036153714465096e-02  4.8060475234949829e-02  4.8090514140829876e-02  4.8126598677957280e-02  4.8168122083018766e-02  4.8214105215891097e-02  4.8263292452719722e-02  4.8314148866679688e-02  4.8364820770001891e-02  4.8413080165996665e-02  4.8456261543426110e-02  4.8491201690494971e-02  4.8514212734644596e-02  4.8521152443508686e-02  4.8507653233386912e-02  4.8470014555686405e-02  4.8407693198280505e-02  4.8332156234076246e-02  4.8297660290828208e-02  4.8540141374862900e-02  5.0213334015683196e-02  5.7812495302613703e-02  8.9195883103019430e-02  2.5306457730111198e-01  7.6639987268918353e-01  9.2935271196061331e-01  9.6258313574793808e-01  9.7561876030693651e-01  9.8184948501147695e-01  9.8520893314678248e-01  9.8717180964212359e-01  9.8837843531116110e-01  9.8915492382769543e-01  9.8968227364209549e-01  9.9004799041092106e-01  9.9025952395051653e-01  9.9017370156264495e-01  9.8350380380385483e-01  9.0469423153663228e-02  4.7975866119906799e-02  4.8105393759885998e-02  4.8132242409077548e-02  4.8158621096022723e-02  4.8190872020519790e-02  4.8229286958955321e-02  4.8272984260471948e-02  4.8320649001143211e-02  4.8370660416169109e-02  4.8421073541367453e-02  4.8469542445194920e-02  4.8513236926984414e-02  4.8548770897319023e-02  4.8572141310430160e-02  4.8578729648672402e-02  4.8563598892766749e-02  4.8522422404582280e-02  4.8454652681020699e-02  4.8372231772647240e-02  4.8333342374204911e-02  4.8592408639844160e-02  5.0389952516513209e-02  5.8471390796772688e-02  9.2045337074188868e-02  2.6290368859741381e-01  7.8853483134337599e-01  9.3359742421385083e-01  9.6411962987254618e-01  9.7624698625961870e-01  9.8197798648852253e-01  9.8497393637495523e-01  9.8655618853304183e-01  9.8726366568625989e-01  9.8731703952744121e-01  9.8674406582101404e-01  9.8535772632734098e-01  9.8261985141125974e-01  9.7777339058013923e-01  9.5957413824503179e-01  9.0435864937829025e-01  9.0512935412124518e-02  4.8053035996748102e-02  4.8207570397237276e-02  4.8238911035457431e-02  4.8268870786527501e-02  4.8305051171880060e-02  4.8347533933249268e-02  4.8394960417185266e-02  4.8445519681483869e-02  4.8497126972378832e-02  4.8547376472683583e-02  4.8593401219609311e-02  4.8631756685670595e-02  4.8658383462054589e-02  4.8668644699907462e-02  4.8657630619609343e-02  4.8621683990152945e-02  4.8561734227189714e-02  4.8492787914603590e-02  4.8480442133124947e-02  4.8812262964361072e-02  5.0841866161076346e-02  5.9509209673324535e-02  9.4814185922467237e-02  2.6705831074508390e-01  7.9538918408565507e-01  9.3472094405993600e-01  9.6443516652109618e-01  9.7625317235120845e-01  9.8180272453628781e-01  9.8464434985469818e-01  9.8601803127927334e-01  9.8638652234738400e-01  9.8586217785007368e-01  9.8426438998253885e-01  9.8094489639627513e-01  9.7430983946860816e-01  9.5937379325315542e-01  8.9857991566499507e-01  3.0145263309754428e-01  1.1444094899523204e-01  9.0557820930505711e-02  4.8134940364865715e-02  4.8318246017256712e-02  4.8356556612647796e-02  4.8392955394735891e-02  4.8436157495235659e-02  4.8485673108173755e-02  4.8539324083903740e-02  4.8594587277364758e-02  4.8648841293334591e-02  4.8699254110632036e-02  4.8742492547751530e-02  4.8774530454749034e-02  4.8791214651653349e-02  4.8789111591555620e-02  4.8766347573475907e-02  4.8727019324422333e-02  4.8693911478213003e-02  4.8751994242595492e-02  4.9275928614338049e-02  5.1862890247837641e-02  6.1795651445395672e-02  1.0107585692051670e-01  2.8279856415148286e-01  7.9993303142743688e-01  9.3441682833663431e-01  9.6404496631738734e-01  9.7583841137328586e-01  9.8137057494182334e-01  9.8420003535344192e-01  9.8551796019594906e-01  9.8572501739999585e-01  9.8483768309492536e-01  9.8247968908813976e-01  9.7756451170818792e-01  9.6716385089390811e-01  9.4115423693399392e-01  8.4413078652522056e-01  2.8232519315316273e-01  6.3119024261522425e-02  9.2535220838276533e-02  9.0602026986065246e-02  4.8218997684763114e-02  4.8435517334956213e-02  4.8485299426921841e-02  4.8533482378506416e-02  4.8589245015466867e-02  4.8650717282058303e-02  4.8714244186128811e-02  4.8776241418231468e-02  4.8833509579214000e-02  4.8883310090292058e-02  4.8922840625567426e-02  4.8948667991079359e-02  4.8959299784732860e-02  4.8958088217966128e-02  4.8955648637627407e-02  4.8991337976546125e-02  4.9225663302820515e-02  5.0245950658272080e-02  5.4233696193273596e-02  6.7125728037534735e-02  1.1822299120308888e-01  3.3805406511746827e-01  8.1787198143652773e-01  9.3482499503228356e-01  9.6355925441709567e-01  9.7528247460295014e-01  9.8079314753068891e-01  9.8363695596328782e-01  9.8498648526301702e-01  9.8518044377736025e-01  9.8414819854761815e-01  9.8135830475871044e-01  9.7543763149814855e-01  9.6271104283993580e-01  9.2990409878884184e-01  8.1709687110848761e-01  2.4652276726365516e-01  7.0439560079583241e-02  5.0851188020168636e-02  9.0634221376892671e-02  9.0641701555300658e-02  4.8300127037822889e-02  4.8555489156695421e-02  4.8625176159055594e-02  4.8694814705047725e-02  4.8772126424696881e-02  4.8852248817891339e-02  4.8929271693556924e-02  4.8998769141400438e-02  4.9058035978259709e-02  4.9107170474935756e-02  4.9147908067240904e-02  4.9180642436269156e-02  4.9213657469071789e-02  4.9291291287446221e-02  4.9535106029458646e-02  5.0303999901260735e-02  5.2865431974118145e-02  6.0023665164373886e-02  8.1449715632401429e-02  1.7211285570939397e-01  4.8153599773192712e-01  8.5700315406871552e-01  9.3892949138388315e-01  9.6389232775383649e-01  9.7494705164680084e-01  9.8030260928282775e-01  9.8307811174244475e-01  9.8443139514927325e-01  9.8467104152597340e-01  9.8364667379564175e-01  9.8071057811930995e-01  9.7434510193913426e-01  9.6002003828631821e-01  9.2415937877536658e-01  8.5686252395339024e-01  1.9505310026873027e-01  6.9175929612105433e-02  5.2438801748224288e-02  4.8656370899312532e-02  9.0645975288220160e-02  9.0670280210710705e-02  4.8369365281762909e-02  4.8670955979827221e-02  4.8775057002067183e-02  4.8881761628416197e-02  4.8993929351791705e-02  4.9101603337054524e-02  4.9196663449433645e-02  4.9277087638513545e-02  4.9344845983890537e-02  4.9411017327869136e-02  4.9509427907139185e-02  4.9697414049989910e-02  5.0111729076521325e-02  5.1223561267629877e-02  5.4186644260386344e-02  6.0683657100354636e-02  7.7017199455980095e-02  1.3811093374262151e-01  3.6036867067624229e-01  7.2861858005112046e-01  9.0324096868365500e-01  9.4815351143934767e-01  9.6628719613977965e-01  9.7535401979153646e-01  9.8011338242019042e-01  9.8266361303786931e-01  9.8390442612819928e-01  9.8412323280049285e-01  9.8313992476169187e-01  9.8024759058822031e-01  9.7394662211495886e-01  9.5907334879910777e-01  9.2643999511361885e-01  9.1735915756622433e-01  1.6054430774807096e-01  6.6188566772352520e-02  5.2063300918677474e-02  4.8766047766175324e-02  4.8238579117982322e-02  9.0724919718739402e-02  9.0675667835388329e-02  4.8409810896063714e-02  4.8769336528561469e-02  4.8936700414308164e-02  4.9108356871738659e-02  4.9275420093644766e-02  4.9425508233776283e-02  4.9556453685012901e-02  4.9700429503259286e-02  4.9920993698063874e-02  5.0357788101668653e-02  5.1410511892599181e-02  5.3831140768294004e-02  5.8441889162326913e-02  6.7294368260501586e-02  9.1374204129909140e-02  1.7671623867860053e-01  4.2250220255943155e-01  7.2360012524481421e-01  8.8696822510517148e-01  9.3895444871913125e-01  9.6004734441337092e-01  9.7109607599288139e-01  9.7719162031785634e-01  9.8066151210540520e-01  9.8259741299909720e-01  9.8348505339520664e-01  9.8348403215229274e-01  9.8243364730807148e-01  9.7965521882177298e-01  9.7381726060278018e-01  9.5972183932502242e-01  9.3165644757684762e-01  9.6510025942214406e-01  1.5121842094187410e-01  6.4715031183149793e-02  5.1538831846959510e-02  4.8541137478215389e-02  4.7949023890663398e-02  4.7978769548071114e-02  9.0683509161013101e-02  9.0638722601706259e-02  4.8398944741307272e-02  4.8842876241448521e-02  4.9121186133078643e-02  4.9394718036007410e-02  4.9647015801713622e-02  4.9959234241045335e-02  5.0530983982763490e-02  5.177824001