<?xml version="1.0"?>
<VTKFile type="UnstructuredGrid"  version="0.1"  >
<UnstructuredGrid>
<Piece  NumberOfPoints="1681" NumberOfCells="3200">
<Points>
<DataArray  type="Float64"  NumberOfComponents="3"  format="ascii">0 0 0  0.025 0 0  0.05 0 0  0.075 0 0  0.1 0 0  0.125 0 0  0.15 0 0  0.175 0 0  0.2 0 0  0.225 0 0  0.25 0 0  0.275 0 0  0.3 0 0  0.325 0 0  0.35 0 0  0.375 0 0  0.4 0 0  0.425 0 0  0.45 0 0  0.475 0 0  0.5 0 0  0.525 0 0  0.55 0 0  0.575 0 0  0.6 0 0  0.625 0 0  0.65 0 0  0.675 0 0  0.7 0 0  0.725 0 0  0.75 0 0  0.775 0 0  0.8 0 0  0.825 0 0  0.85 0 0  0.875 0 0  0.9 0 0  0.925 0 0  0.95 0 0  0.975 0 0  1 0 0  0 0.025 0  0.025 0.025 0  0.05 0.025 0  0.075 0.025 0  0.1 0.025 0  0.125 0.025 0  0.15 0.025 0  0.175 0.025 0  0.2 0.025 0  0.225 0.025 0  0.25 0.025 0  0.275 0.025 0  0.3 0.025 0  0.325 0.025 0  0.35 0.025 0  0.375 0.025 0  0.4 0.025 0  0.425 0.025 0  0.45 0.025 0  0.475 0.025 0  0.5 0.025 0  0.525 0.025 0  0.55 0.025 0  0.575 0.025 0  0.6 0.025 0  0.625 0.025 0  0.65 0.025 0  0.675 0.025 0  0.7 0.025 0  0.725 0.025 0  0.75 0.025 0  0.775 0.025 0  0.8 0.025 0  0.825 0.025 0  0.85 0.025 0  0.875 0.025 0  0.9 0.025 0  0.925 0.025 0  0.95 0.025 0  0.975 0.025 0  1 0.025 0  0 0.05 0  0.025 0.05 0  0.05 0.05 0  0.075 0.05 0  0.1 0.05 0  0.125 0.05 0  0.15 0.05 0  0.175 0.05 0  0.2 0.05 0  0.225 0.05 0  0.25 0.05 0  0.275 0.05 0  0.3 0.05 0  0.325 0.05 0  0.35 0.05 0  0.375 0.05 0  0.4 0.05 0  0.425 0.05 0  0.45 0.05 0  0.475 0.05 0  0.5 0.05 0  0.525 0.05 0  0.55 0.05 0  0.575 0.05 0  0.6 0.05 0  0.625 0.05 0  0.65 0.05 0  0.675 0.05 0  0.7 0.05 0  0.725 0.05 0  0.75 0.05 0  0.775 0.05 0  0.8 0.05 0  0.825 0.05 0  0.85 0.05 0  0.875 0.05 0  0.9 0.05 0  0.925 0.05 0  0.95 0.05 0  0.975 0.05 0  1 0.05 0  0 0.075 0  0.025 0.075 0  0.05 0.075 0  0.075 0.075 0  0.1 0.075 0  0.125 0.075 0  0.15 0.075 0  0.175 0.075 0  0.2 0.075 0  0.225 0.075 0  0.25 0.075 0  0.275 0.075 0  0.3 0.075 0  0.325 0.075 0  0.35 0.075 0  0.375 0.075 0  0.4 0.075 0  0.425 0.075 0  0.45 0.075 0  0.475 0.075 0  0.5 0.075 0  0.525 0.075 0  0.55 0.075 0  0.575 0.075 0  0.6 0.075 0  0.625 0.075 0  0.65 0.075 0  0.675 0.075 0  0.7 0.075 0  0.725 0.075 0  0.75 0.075 0  0.775 0.075 0  0.8 0.075 0  0.825 0.075 0  0.85 0.075 0  0.875 0.075 0  0.9 0.075 0  0.925 0.075 0  0.95 0.075 0  0.975 0.075 0  1 0.075 0  0 0.1 0  0.025 0.1 0  0.05 0.1 0  0.075 0.1 0  0.1 0.1 0  0.125 0.1 0  0.15 0.1 0  0.175 0.1 0  0.2 0.1 0  0.225 0.1 0  0.25 0.1 0  0.275 0.1 0  0.3 0.1 0  0.325 0.1 0  0.35 0.1 0  0.375 0.1 0  0.4 0.1 0  0.425 0.1 0  0.45 0.1 0  0.475 0.1 0  0.5 0.1 0  0.525 0.1 0  0.55 0.1 0  0.575 0.1 0  0.6 0.1 0  0.625 0.1 0  0.65 0.1 0  0.675 0.1 0  0.7 0.1 0  0.725 0.1 0  0.75 0.1 0  0.775 0.1 0  0.8 0.1 0  0.825 0.1 0  0.85 0.1 0  0.875 0.1 0  0.9 0.1 0  0.925 0.1 0  0.95 0.1 0  0.975 0.1 0  1 0.1 0  0 0.125 0  0.025 0.125 0  0.05 0.125 0  0.075 0.125 0  0.1 0.125 0  0.125 0.125 0  0.15 0.125 0  0.175 0.125 0  0.2 0.125 0  0.225 0.125 0  0.25 0.125 0  0.275 0.125 0  0.3 0.125 0  0.325 0.125 0  0.35 0.125 0  0.375 0.125 0  0.4 0.125 0  0.425 0.125 0  0.45 0.125 0  0.475 0.125 0  0.5 0.125 0  0.525 0.125 0  0.55 0.125 0  0.575 0.125 0  0.6 0.125 0  0.625 0.125 0  0.65 0.125 0  0.675 0.125 0  0.7 0.125 0  0.725 0.125 0  0.75 0.125 0  0.775 0.125 0  0.8 0.125 0  0.825 0.125 0  0.85 0.125 0  0.875 0.125 0  0.9 0.125 0  0.925 0.125 0  0.95 0.125 0  0.975 0.125 0  1 0.125 0  0 0.15 0  0.025 0.15 0  0.05 0.15 0  0.075 0.15 0  0.1 0.15 0  0.125 0.15 0  0.15 0.15 0  0.175 0.15 0  0.2 0.15 0  0.225 0.15 0  0.25 0.15 0  0.275 0.15 0  0.3 0.15 0  0.325 0.15 0  0.35 0.15 0  0.375 0.15 0  0.4 0.15 0  0.425 0.15 0  0.45 0.15 0  0.475 0.15 0  0.5 0.15 0  0.525 0.15 0  0.55 0.15 0  0.575 0.15 0  0.6 0.15 0  0.625 0.15 0  0.65 0.15 0  0.675 0.15 0  0.7 0.15 0  0.725 0.15 0  0.75 0.15 0  0.775 0.15 0  0.8 0.15 0  0.825 0.15 0  0.85 0.15 0  0.875 0.15 0  0.9 0.15 0  0.925 0.15 0  0.95 0.15 0  0.975 0.15 0  1 0.15 0  0 0.175 0  0.025 0.175 0  0.05 0.175 0  0.075 0.175 0  0.1 0.175 0  0.125 0.175 0  0.15 0.175 0  0.175 0.175 0  0.2 0.175 0  0.225 0.175 0  0.25 0.175 0  0.275 0.175 0  0.3 0.175 0  0.325 0.175 0  0.35 0.175 0  0.375 0.175 0  0.4 0.175 0  0.425 0.175 0  0.45 0.175 0  0.475 0.175 0  0.5 0.175 0  0.525 0.175 0  0.55 0.175 0  0.575 0.175 0  0.6 0.175 0  0.625 0.175 0  0.65 0.175 0  0.675 0.175 0  0.7 0.175 0  0.725 0.175 0  0.75 0.175 0  0.775 0.175 0  0.8 0.175 0  0.825 0.175 0  0.85 0.175 0  0.875 0.175 0  0.9 0.175 0  0.925 0.175 0  0.95 0.175 0  0.975 0.175 0  1 0.175 0  0 0.2 0  0.025 0.2 0  0.05 0.2 0  0.075 0.2 0  0.1 0.2 0  0.125 0.2 0  0.15 0.2 0  0.175 0.2 0  0.2 0.2 0  0.225 0.2 0  0.25 0.2 0  0.275 0.2 0  0.3 0.2 0  0.325 0.2 0  0.35 0.2 0  0.375 0.2 0  0.4 0.2 0  0.425 0.2 0  0.45 0.2 0  0.475 0.2 0  0.5 0.2 0  0.525 0.2 0  0.55 0.2 0  0.575 0.2 0  0.6 0.2 0  0.625 0.2 0  0.65 0.2 0  0.675 0.2 0  0.7 0.2 0  0.725 0.2 0  0.75 0.2 0  0.775 0.2 0  0.8 0.2 0  0.825 0.2 0  0.85 0.2 0  0.875 0.2 0  0.9 0.2 0  0.925 0.2 0  0.95 0.2 0  0.975 0.2 0  1 0.2 0  0 0.225 0  0.025 0.225 0  0.05 0.225 0  0.075 0.225 0  0.1 0.225 0  0.125 0.225 0  0.15 0.225 0  0.175 0.225 0  0.2 0.225 0  0.225 0.225 0  0.25 0.225 0  0.275 0.225 0  0.3 0.225 0  0.325 0.225 0  0.35 0.225 0  0.375 0.225 0  0.4 0.225 0  0.425 0.225 0  0.45 0.225 0  0.475 0.225 0  0.5 0.225 0  0.525 0.225 0  0.55 0.225 0  0.575 0.225 0  0.6 0.225 0  0.625 0.225 0  0.65 0.225 0  0.675 0.225 0  0.7 0.225 0  0.725 0.225 0  0.75 0.225 0  0.775 0.225 0  0.8 0.225 0  0.825 0.225 0  0.85 0.225 0  0.875 0.225 0  0.9 0.225 0  0.925 0.225 0  0.95 0.225 0  0.975 0.225 0  1 0.225 0  0 0.25 0  0.025 0.25 0  0.05 0.25 0  0.075 0.25 0  0.1 0.25 0  0.125 0.25 0  0.15 0.25 0  0.175 0.25 0  0.2 0.25 0  0.225 0.25 0  0.25 0.25 0  0.275 0.25 0  0.3 0.25 0  0.325 0.25 0  0.35 0.25 0  0.375 0.25 0  0.4 0.25 0  0.425 0.25 0  0.45 0.25 0  0.475 0.25 0  0.5 0.25 0  0.525 0.25 0  0.55 0.25 0  0.575 0.25 0  0.6 0.25 0  0.625 0.25 0  0.65 0.25 0  0.675 0.25 0  0.7 0.25 0  0.725 0.25 0  0.75 0.25 0  0.775 0.25 0  0.8 0.25 0  0.825 0.25 0  0.85 0.25 0  0.875 0.25 0  0.9 0.25 0  0.925 0.25 0  0.95 0.25 0  0.975 0.25 0  1 0.25 0  0 0.275 0  0.025 0.275 0  0.05 0.275 0  0.075 0.275 0  0.1 0.275 0  0.125 0.275 0  0.15 0.275 0  0.175 0.275 0  0.2 0.275 0  0.225 0.275 0  0.25 0.275 0  0.275 0.275 0  0.3 0.275 0  0.325 0.275 0  0.35 0.275 0  0.375 0.275 0  0.4 0.275 0  0.425 0.275 0  0.45 0.275 0  0.475 0.275 0  0.5 0.275 0  0.525 0.275 0  0.55 0.275 0  0.575 0.275 0  0.6 0.275 0  0.625 0.275 0  0.65 0.275 0  0.675 0.275 0  0.7 0.275 0  0.725 0.275 0  0.75 0.275 0  0.775 0.275 0  0.8 0.275 0  0.825 0.275 0  0.85 0.275 0  0.875 0.275 0  0.9 0.275 0  0.925 0.275 0  0.95 0.275 0  0.975 0.275 0  1 0.275 0  0 0.3 0  0.025 0.3 0  0.05 0.3 0  0.075 0.3 0  0.1 0.3 0  0.125 0.3 0  0.15 0.3 0  0.175 0.3 0  0.2 0.3 0  0.225 0.3 0  0.25 0.3 0  0.275 0.3 0  0.3 0.3 0  0.325 0.3 0  0.35 0.3 0  0.375 0.3 0  0.4 0.3 0  0.425 0.3 0  0.45 0.3 0  0.475 0.3 0  0.5 0.3 0  0.525 0.3 0  0.55 0.3 0  0.575 0.3 0  0.6 0.3 0  0.625 0.3 0  0.65 0.3 0  0.675 0.3 0  0.7 0.3 0  0.725 0.3 0  0.75 0.3 0  0.775 0.3 0  0.8 0.3 0  0.825 0.3 0  0.85 0.3 0  0.875 0.3 0  0.9 0.3 0  0.925 0.3 0  0.95 0.3 0  0.975 0.3 0  1 0.3 0  0 0.325 0  0.025 0.325 0  0.05 0.325 0  0.075 0.325 0  0.1 0.325 0  0.125 0.325 0  0.15 0.325 0  0.175 0.325 0  0.2 0.325 0  0.225 0.325 0  0.25 0.325 0  0.275 0.325 0  0.3 0.325 0  0.325 0.325 0  0.35 0.325 0  0.375 0.325 0  0.4 0.325 0  0.425 0.325 0  0.45 0.325 0  0.475 0.325 0  0.5 0.325 0  0.525 0.325 0  0.55 0.325 0  0.575 0.325 0  0.6 0.325 0  0.625 0.325 0  0.65 0.325 0  0.675 0.325 0  0.7 0.325 0  0.725 0.325 0  0.75 0.325 0  0.775 0.325 0  0.8 0.325 0  0.825 0.325 0  0.85 0.325 0  0.875 0.325 0  0.9 0.325 0  0.925 0.325 0  0.95 0.325 0  0.975 0.325 0  1 0.325 0  0 0.35 0  0.025 0.35 0  0.05 0.35 0  0.075 0.35 0  0.1 0.35 0  0.125 0.35 0  0.15 0.35 0  0.175 0.35 0  0.2 0.35 0  0.225 0.35 0  0.25 0.35 0  0.275 0.35 0  0.3 0.35 0  0.325 0.35 0  0.35 0.35 0  0.375 0.35 0  0.4 0.35 0  0.425 0.35 0  0.45 0.35 0  0.475 0.35 0  0.5 0.35 0  0.525 0.35 0  0.55 0.35 0  0.575 0.35 0  0.6 0.35 0  0.625 0.35 0  0.65 0.35 0  0.675 0.35 0  0.7 0.35 0  0.725 0.35 0  0.75 0.35 0  0.775 0.35 0  0.8 0.35 0  0.825 0.35 0  0.85 0.35 0  0.875 0.35 0  0.9 0.35 0  0.925 0.35 0  0.95 0.35 0  0.975 0.35 0  1 0.35 0  0 0.375 0  0.025 0.375 0  0.05 0.375 0  0.075 0.375 0  0.1 0.375 0  0.125 0.375 0  0.15 0.375 0  0.175 0.375 0  0.2 0.375 0  0.225 0.375 0  0.25 0.375 0  0.275 0.375 0  0.3 0.375 0  0.325 0.375 0  0.35 0.375 0  0.375 0.375 0  0.4 0.375 0  0.425 0.375 0  0.45 0.375 0  0.475 0.375 0  0.5 0.375 0  0.525 0.375 0  0.55 0.375 0  0.575 0.375 0  0.6 0.375 0  0.625 0.375 0  0.65 0.375 0  0.675 0.375 0  0.7 0.375 0  0.725 0.375 0  0.75 0.375 0  0.775 0.375 0  0.8 0.375 0  0.825 0.375 0  0.85 0.375 0  0.875 0.375 0  0.9 0.375 0  0.925 0.375 0  0.95 0.375 0  0.975 0.375 0  1 0.375 0  0 0.4 0  0.025 0.4 0  0.05 0.4 0  0.075 0.4 0  0.1 0.4 0  0.125 0.4 0  0.15 0.4 0  0.175 0.4 0  0.2 0.4 0  0.225 0.4 0  0.25 0.4 0  0.275 0.4 0  0.3 0.4 0  0.325 0.4 0  0.35 0.4 0  0.375 0.4 0  0.4 0.4 0  0.425 0.4 0  0.45 0.4 0  0.475 0.4 0  0.5 0.4 0  0.525 0.4 0  0.55 0.4 0  0.575 0.4 0  0.6 0.4 0  0.625 0.4 0  0.65 0.4 0  0.675 0.4 0  0.7 0.4 0  0.725 0.4 0  0.75 0.4 0  0.775 0.4 0  0.8 0.4 0  0.825 0.4 0  0.85 0.4 0  0.875 0.4 0  0.9 0.4 0  0.925 0.4 0  0.95 0.4 0  0.975 0.4 0  1 0.4 0  0 0.425 0  0.025 0.425 0  0.05 0.425 0  0.075 0.425 0  0.1 0.425 0  0.125 0.425 0  0.15 0.425 0  0.175 0.425 0  0.2 0.425 0  0.225 0.425 0  0.25 0.425 0  0.275 0.425 0  0.3 0.425 0  0.325 0.425 0  0.35 0.425 0  0.375 0.425 0  0.4 0.425 0  0.425 0.425 0  0.45 0.425 0  0.475 0.425 0  0.5 0.425 0  0.525 0.425 0  0.55 0.425 0  0.575 0.425 0  0.6 0.425 0  0.625 0.425 0  0.65 0.425 0  0.675 0.425 0  0.7 0.425 0  0.725 0.425 0  0.75 0.425 0  0.775 0.425 0  0.8 0.425 0  0.825 0.425 0  0.85 0.425 0  0.875 0.425 0  0.9 0.425 0  0.925 0.425 0  0.95 0.425 0  0.975 0.425 0  1 0.425 0  0 0.45 0  0.02
[...]
<PointData  Scalars="ControlVisualisation"> 
<DataArray  type="Float64"  Name="ControlVisualisation"  format="ascii">1.6622793481128111e-04  1.1080249216076891e-04  1.1081076475629887e-04  1.1084054760027570e-04  1.1090563701812219e-04  1.1100678273010568e-04  1.1113035487702351e-04  1.1125814922860577e-04  1.1137591511642183e-04  1.1147513354372023e-04  1.1155123758415119e-04  1.1160227568523044e-04  1.1162897217527748e-04  1.1163520829032176e-04  1.1162795106792597e-04  1.1161549164944729e-04  1.1160429753360692e-04  1.1159639859414132e-04  1.1158520823464430e-04  1.1156445294317982e-04  1.1153856267125607e-04  1.1152158455874930e-04  1.1151717738050907e-04  1.1150684070484560e-04  1.1146746009329970e-04  1.1140328291955720e-04  1.1134110700749499e-04  1.1129623676952117e-04  1.1126384286971117e-04  1.1122810220513540e-04  1.1117133112536408e-04  1.1108418131743226e-04  1.1097355904509712e-04  1.1086963837606619e-04  1.1081184903999300e-04  1.1081353054014994e-04  1.1084748062202088e-04  1.1086823559421869e-04  1.1084827992069885e-04  1.1081172981286005e-04  3.3274350461958915e-04  1.1080138441993754e-04  5.5393584885548275e-05  5.5402769490445269e-05  5.5434753662448433e-05  5.5504884298200172e-05  5.5615184899980874e-05  5.5751945789966109e-05  5.5895539926807656e-05  5.6029957585356876e-05  5.6145234495240071e-05  5.6235619356997905e-05  5.6298048736786852e-05  5.6332232006793689e-05  5.6341470460071726e-05  5.6333170127244463e-05  5.6317270126076560e-05  5.6303594598063128e-05  5.6295974326106072e-05  5.6287148811763772e-05  5.6265346256634345e-05  5.6231678216875426e-05  5.6205878954032138e-05  5.6200359684835062e-05  5.6212725755977529e-05  5.6181287948790676e-05  5.6108278816089688e-05  5.6036623423494642e-05  5.5990591869433710e-05  5.5965497427898524e-05  5.5940744465433388e-05  5.5892293641693276e-05  5.5804985115537107e-05  5.5678800557951586e-05  5.5544761326443276e-05  5.5447609441697899e-05  5.5422823193811374e-05  5.5449553083307327e-05  5.5481027022187364e-05  5.5474590210121496e-05  5.5432671569232903e-05  1.1081383000339907e-04  1.1080014105408104e-04  5.5395447554751168e-05  5.5416590588362482e-05  5.5473150166283456e-05  5.5577310913413755e-05  5.5720160312387302e-05  5.5881063139532166e-05  5.6040271366011847e-05  5.6185551373406661e-05  5.6310016737523424e-05  5.6408074129562283e-05  5.6474538672545780e-05  5.6506787459890471e-05  5.6507143626501710e-05  5.6484516713970802e-05  5.6453674840654322e-05  5.6432917093199319e-05  5.6429577901282063e-05  5.6445100657738539e-05  5.6428118287343810e-05  5.6369698994079688e-05  5.6326824771224335e-05  5.6359221971747563e-05  5.6510349819548213e-05  5.6550275866418195e-05  5.6610842130150595e-05  5.6891239979540425e-05  5.7504244699902990e-05  5.8410462554181303e-05  5.9435564717723595e-05  6.0257362713161537e-05  6.0500463976304656e-05  5.9861678247088784e-05  5.8418404210860396e-05  5.6746709347433421e-05  5.5778997922600735e-05  5.5522659295526960e-05  5.5570147680927876e-05  5.5638191938367169e-05  5.5589217646761486e-05  1.1091148314008636e-04  1.1081745232334849e-04  5.5415133887906537e-05  5.5475907960972879e-05  5.5602667333490172e-05  5.5768023596178145e-05  5.5934720589233645e-05  5.6083548441869479e-05  5.6212405542660973e-05  5.6326977718152454e-05  5.6430865562143566e-05  5.6517016120884753e-05  5.6573668001260977e-05  5.6593500214599896e-05  5.6575411288298964e-05  5.6526519233988996e-05  5.6471276867043352e-05  5.6442915160633621e-05  5.6471024996373225e-05  5.6617583581557092e-05  5.6682891165171670e-05  5.6722634520492792e-05  5.7036557626929130e-05  5.8136563691020721e-05  6.1094415846150017e-05  6.4309608671640132e-05  6.7968879850256465e-05  7.5633644420724057e-05  8.9713595122560037e-05  1.1656804584611122e-04  1.7128471690793884e-04  2.9214612220509735e-04  5.0771141528670909e-04  4.6878559040379702e-04  2.3691411369143803e-04  1.2561207520029634e-04  8.5507941206062097e-05  6.6464511732750053e-05  5.6940866853495615e-05  5.6097429402707946e-05  5.6285326345918477e-05  1.1133302338708572e-04  1.1114739470289439e-04  5.5778849657583454e-05  5.6075905480133982e-05  5.7226006441914274e-05  5.8153310735789344e-05  5.8309921866861731e-05  5.7936900022396843e-05  5.7466955283588434e-05  5.7133223606868451e-05  5.6972362676764064e-05  5.6915883081091128e-05  5.6901194745221789e-05  5.6892043114130725e-05  5.6873938481890523e-05  5.6858383673801880e-05  5.6936607933563135e-05  5.7242175660238178e-05  5.8075544396061422e-05  6.0505421749334848e-05  6.3768473752504908e-05  6.7453069445946639e-05  7.5148946568361785e-05  9.3963272609597407e-05  1.6174732197366369e-04  1.3647646736909299e-02  1.4957421117289035e-01  2.9420966809511268e-01  4.6475471101524074e-01  6.3100699079607836e-01  7.8051080678711537e-01  8.9907050431451951e-01  9.7189486207409115e-01  9.8293571943550417e-01  9.2154229518879605e-01  7.6921991293862169e-01  5.3477071004721277e-01  2.0951721588671068e-01  2.3780181580809932e-04  6.5713892467977842e-05  5.8048218261041040e-05  1.1303118252259800e-04  1.2700505930073351e-04  5.9139255032911853e-05  6.5716522099510088e-05  8.5025666265162528e-05  1.1517535627403705e-04  1.2899525883724647e-04  1.1459615992970660e-04  9.4910741576099679e-05  8.0998766694876192e-05  7.2706248861657239e-05  6.7977178776135229e-05  6.5552428605742259e-05  6.4796208926426203e-05  6.5325472456272281e-05  6.7018540588148398e-05  7.0690039381430153e-05  7.7886142118571990e-05  9.3194292673968884e-05  1.4059977001431282e-04  7.9711834262729566e-04  1.1533534989495078e-01  2.7945133038071412e-01  4.8580903381733975e-01  7.1671052565686200e-01  9.9484774736347548e-01  9.9978033084899987e-01  9.9989102242118755e-01  9.9992657167509247e-01  9.9994362507212242e-01  9.9995345062159513e-01  9.9995946787450951e-01  9.9996306228195586e-01  9.9996474190013096e-01  9.9996443568239801e-01  9.9996144382934238e-01  9.9995273507965510e-01  9.9992209537474519e-01  9.9952651067810494e-01  2.4233842060065763e-01  7.1434031944212731e-05  1.3394506498107286e-04  1.4134086111941023e-04  2.4083772087169975e-04  3.5443413220082803e-01  5.8233739542647778e-01  6.8114579248328910e-01  6.6809208070170933e-01  5.7784069208600342e-01  4.4853276155959049e-01  3.1349914946241020e-01  1.9627281717194017e-01  1.1183001387531533e-01  6.2740650368894174e-02  4.3569172143173067e-02  5.2212092390327952e-02  1.0336989450448851e-01  1.8433159355696960e-01  3.0262590048148397e-01  4.6359269938616832e-01  6.5841906638337067e-01  9.1669182875261090e-01  9.9968054072671642e-01  9.9987609463466098e-01  9.9992502178338283e-01  9.9994659512886552e-01  9.9995832314773936e-01  9.9996668414513434e-01  9.9997301266695537e-01  9.9997734801957139e-01  9.9998047614571262e-01  9.9998281801472844e-01  9.9998459223054703e-01  9.9998592328735159e-01  9.9998688276452252e-01  9.9998750247654933e-01  9.9998775300008980e-01  9.9998746107386038e-01  9.9998606557348235e-01  9.9998159384703078e-01  9.9996550338620327e-01  7.5473366771260186e-01  1.3191322267368195e-04  9.9991245494559766e-01  9.9994585424833549e-01  9.9996176532002334e-01  9.9996052963008153e-01  9.9995494347611213e-01  9.9994549534402166e-01  9.9993014146365944e-01  9.9990374976833507e-01  9.9985332437969632e-01  9.9973794853884002e-01  9.9937400231584284e-01  9.9727327530697596e-01  9.9000947719926202e-01  9.9811742567775208e-01  9.9950597661526497e-01  9.9977850941879520e-01  9.9987232237456269e-01  9.9991563605358591e-01  9.9993915015957835e-01  9.9995298605897498e-01  9.9996275336241136e-01  9.9997037056190052e-01  9.9997590485933052e-01  9.9997989128507581e-01  9.9998285846301049e-01  9.9998510449358935e-01  9.9998683991124537e-01  9.9998822167034174e-01  9.9998936152641205e-01  9.9999033010754435e-01  9.9999117144591065e-01  9.9999191505319540e-01  9.9999258321913931e-01  9.9999319289708122e-01  9.9999375055920725e-01  9.9999424212897114e-01  9.9999462091986058e-01  9.9999478469188907e-01  9.9999447669108943e-01  9.9999298653896618e-01  9.9996408283072635e-01  9.9998722487108604e-01  9.9999148309275709e-01  9.9998970905993267e-01  9.9998733141945884e-01  9.9998452582961050e-01  9.9998121387600092e-01  9.9997721504141968e-01  9.9997233627974025e-01  9.9996653592575502e-01  9.9996016202723847e-01  9.9995421127651574e-01  9.9995031861608707e-01  9.9994986614346393e-01  9.9995256365824781e-01  9.9995736687854941e-01  9.9996311610693522e-01  9.9996868032806185e-01  9.9997355295572232e-01  9.9997760756557863e-01  9.9998088159336529e-01  9.9998347963775114e-01  9.9998553849794591e-01  9.9998719173211692e-01  9.9998854418873628e-01  9.9998966568990633e-01  9.9999060421326325e-01  9.9999139979204898e-01  9.9999208925004790e-01  9.9999270523140482e-01  9.9999327355862277e-01  9.9999381393573572e-01  9.9999434174225854e-01  9.9999486957783335e-01  9.9999540670549969e-01  9.9999595617288428e-01  9.9999651116584354e-01  9.9999705297633079e-01  9.9999755208878827e-01  9.9999796924700124e-01  9.9999825530111885e-01  9.9999586332794754e-01  9.9999314162595898e-01  9.9999587284262070e-01  9.9999468426123228e-01  9.9999303288411645e-01  9.9999111132745133e-01  9.9998902418089153e-01  9.9998682122395621e-01  9.9998454732112818e-01  9.9998231573542784e-01  9.9998034270136305e-01  9.9997891373466208e-01  9.9997827313846255e-01  9.9997849812284556e-01  9.9997945985762304e-01  9.9998090229601411e-01  9.9998256161718291e-01  9.9998424026933908e-01  9.9998582073722952e-01  9.9998724491967328e-01  9.9998849152807989e-01  9.9998956199116229e-01  9.9999047306542743e-01  9.9999124968696640e-01  9.9999191760843498e-01  9.9999249832380055e-01  9.9999300941310165e-01  9.9999346685021517e-01  9.9999388659525834e-01  9.9999428443019023e-01  9.9999467500591854e-01  9.9999507129675524e-01  9.9999548446307573e-01  9.9999592342390942e-01  9.9999639326167133e-01  9.9999689240750134e-01  9.9999740926295455e-01  9.9999792036727475e-01  9.9999839152172887e-01  9.9999878166325151e-01  9.9999904665086115e-01  9.9999814689061273e-01  9.9999399105468412e-01  9.9999666962831846e-01  9.9999576723086570e-01  9.9999448505842714e-01  9.9999298534726311e-01  9.9999139711315999e-01  9.9998980915865543e-01  9.9998830358094482e-01  9.9998699304881467e-01  9.9998601652761798e-01  9.9998549274498205e-01  9.9998546252285181e-01  9.9998586761230579e-01  9.9998658160683840e-01  9.9998746384729720e-01  9.9998839933488182e-01  9.9998931216966647e-01  9.9999016073273195e-01  9.9999092646594134e-01  9.9999160430079370e-01  9.9999219698641750e-01  9.9999271227672959e-01  9.9999316096226765e-01  9.9999355480189167e-01  9.9999390497486773e-01  9.9999422177970765e-01  9.9999451521189087e-01  9.9999479560207372e-01  9.9999507371399965e-01  9.9999536041847026e-01  9.9999566622197245e-01  9.9999600067896188e-01  9.9999637134155039e-01  9.9999678185643193e-01  9.9999722913881706e-01  9.9999770015416234e-01  9.9999817023505100e-01  9.9999860344044944e-01  9.9999895844234421e-01  9.9999919807772542e-01  9.9999855917735458e-01  9.9999222544160793e-01  9.9999610082864254e-01  9.9999529663549092e-01  9.9999418563805353e-01  9.9999293419605795e-01  9.9999164885037017e-01  9.9999041055672211e-01  9.9998931385669632e-01  9.9998847676466418e-01  9.9998800621738582e-01  9.9998794501695765e-01  9.9998824790954766e-01  9.9998880759538566e-01  9.9998950364594552e-01  9.9999023852636293e-01  9.9999094924793097e-01  9.9999160283621669e-01  9.9999218654783362e-01  9.9999269905199006e-01  9.9999314456746802e-01  9.9999352977501532e-01  9.9999386249446354e-01  9.9999415107150025e-01  9.9999440390280392e-01  9.9999462910566461e-01  9.9999483451172300e-01  9.9999502797363626e-01  9.9999521771991839e-01  9.9999541252057944e-01  9.9999562160150324e-01  9.9999585432432581e-01  9.9999611957798196e-01  9.9999642469355932e-01  9.9999677366575879e-01  9.9999716465774591e-01  9.9999758732750688e-01  9.9999802094631918e-01  9.9999843353404017e-01  9.9999878719780111e-01  9.9999903820781044e-01  9.9999837070789366e-01  9.9998166529329147e-01  9.9999281915558358e-01  9.9999249337465257e-01  9.9999186927662731e-01  9.9999107594393966e-01  9.9999020292023189e-01  9.9998934768036940e-01  9.9998865191249553e-01  9.9998826999078949e-01  9.9998829012847767e-01  9.9998868308929934e-01  9.9998933000615209e-01  9.9999009262412741e-01  9.9999086387734160e-01  9.9999158085923479e-01  9.9999221594020882e-01  9.9999276315578201e-01  9.9999322748282682e-01  9.9999361823941091e-01  9.9999394566670208e-01  9.9999421951178091e-01  9.9999444866824350e-01  9.9999464123452242e-01  9.9999480465770740e-01  9.9999494589074989e-01  9.9999507160941392e-01  9.9999518850328384e-01  9.9999530356468858e-01  9.9999542427431021e-01  9.9999555861078182e-01  9.9999571483119787e-01  9.9999590095248558e-01  9.9999612379799940e-01  9.9999638746935660e-01  9.9999669129976831e-01  9.9999702756929532e-01  9.9999737938755395e-01  9.9999772053436575e-01  9.9999801799908705e-01  9.9999821305688863e-01  9.9999710066163550e-01  9.9935430222943678e-01  9.9996655851916105e-01  9.9997940865254975e-01  9.9998400681012256e-01  9.9998560597030850e-01  9.9998605667525642e-01  9.9998607212438506e-01  9.9998612552419985e-01  9.9998652273325428e-01  9.9998732174114102e-01  9.9998837773758409e-01  9.9998949710648954e-01  9.9999054330122594e-01  9.9999145332147432e-01  9.9999221370777769e-01  9.9999283524601768e-01  9.9999333726091744e-01  9.9999373994797636e-01  9.9999406132344493e-01  9.9999431642475933e-01  9.9999451748963253e-01  9.9999467448228119e-01  9.9999479566164728e-01  9.9999488806999026e-01  9.9999495792702675e-01  9.9999501096275267e-01  9.9999505271441846e-01  9.9999508876650567e-01  9.9999512489430475e-01  9.9999516702234925e-01  9.9999522091698168e-01  9.9999529152192190e-01  9.9999538166558333e-01  9.9999548990905562e-01  9.9999560711082647e-01  9.9999571033892443e-01  9.9999575117610773e-01  9.9999562677925402e-01  9.9999507558974543e-01  9.9999355174899507e-01  9.9998715377810576e-01  1.2500067786496940e-04  1.4824537611603239e-01  9.9976155134927880e-01  9.9994223566658846e-01  9.9996684820317916e-01  9.9997455906254373e-01  9.9997785877749223e-01  9.9998018869367200e-01  9.9998258526612305e-01  9.9998502963172586e-01  9.9998723762012764e-01  9.9998905821142681e-01  9.9999048770300047e-01  9.9999158595013704e-01  9.9999242303639191e-01  9.9999305948989636e-01  9.9999354243806304e-01  9.9999390713467051e-01  9.9999417960161274e-01  9.9999437903859068e-01  9.9999451971750264e-01  9.9999461238983434e-01  9.9999466530307302e-01  9.9999468492194910e-01  9.9999467643483675e-01  9.9999464411113070e-01  9.9999459150903480e-01  9.9999452154625923e-01  9.9999443641008257e-01  9.9999433706021290e-01  9.9999422216272094e-01  9.9999408606175177e-01  9.9999391478306099e-01  9.9999367813857842e-01  9.9999331261748903e-01  9.9999267892884669e-01  9.9999143594112350e-01  9.9998860014444479e-01  9.9998064876900050e-01  9.9990633354670977e-01  1.0998012146250249e-03  1.1334430963120973e-04  6.6777461207775544e-05  1.3120790932633108e-01  7.0921327310005533e-01  9.9979886940174745e-01  9.9992151438230159e-01  9.9995025799531878e-01  9.9996494622075927e-01  9.9997463284516841e-01  9.9998113451667014e-01  9.9998539598393166e-01  9.9998820730514526e-01  9.9999010398453680e-01  9.9999141492659027e-01  9.9999233870538506e-01  9.9999299712052980e-01  9.9999346690857138e-01  9.9999379781798758e-01  9.9999402295795781e-01  9.9999416485195458e-01  9.9999423906649931e-01  9.9999425643760731e-01  9.9999422444194286e-01  9.9999414801133735e-01  9.9999403001305409e-01  9.9999387146309959e-01  9.9999367132171313e-01  9.9999342595617069e-01  9.9999312803187002e-01  9.9999276432719519e-01  9.9999231113274756e-01  9.9999172533772474e-01  9.9999092660707900e-01  9.9998975262294509e-01  9.9998784211710834e-01  9.9998426387872774e-01  9.9997716055017216e-01  9.9995417621729488e-01  9.4462153432278639e-01  1.0888651295480506e-04  1.1828591246150528e-04  1.1098902676959819e-04  5.5695441044951423e-05  6.7114803595689024e-05  4.3122919281083352e-03  4.0230010614535788e-01  7.9413268394087477e-01  9.9957006940445448e-01  9.9990653224017090e-01  9.9995935845443940e-01  9.9997584856772570e-01  9.9998323159300972e-01  9.9998718282051380e-01  9.9998953505392529e-01  9.9999103138521739e-01  9.9999202114793806e-01  9.9999268658463925e-01  9.9999313033313808e-01  9.9999341356676374e-01  9.9999357422821700e-01  9.9999363637539163e-01  9.9999361520601315e-01  9.9999351986946172e-01  9.9999335491567043e-01  9.9999312084581160e-01  9.9999281414694208e-01  9.9999242677740774e-01  9.9999194457591511e-01  9.9999134398009737e-01  9.9999058603821689e-01  9.9998960751635479e-01  9.9998829586087323e-01  9.9998643641284324e-01  9.9998359016675820e-01  9.9997870703386038e-01  9.9997009682395399e-01  9.9995123924868601e-01  9.9983917442820058e-01  4.7198254278053592e-01  1.2538964828300465e-04  5.9034180095477483e-05  1.1626131251026723e-04  1.1100595907219682e-04  5.5577073533702917e-05  5.5885073331242098e-05  6.3540123756153212e-05  1.7205122231625907e-04  1.3692303340843165e-01  4.6884494848683989e-01  9.9956328689199492e-01  9.9994041731702410e-01  9.9997156729250525e-01  9.9998160878633802e-01  9.9998631372093527e-01  9.9998891920017763e-01  9.9999049471659729e-01  9.9999148838860308e-01  9.9999211719893011e-01  9.9999249665976031e-01  9.9999269206060692e-01  9.9999274132790361e-01  9.9999266596605696e-01  9.9999247652913303e-01  9.9999217529772322e-01  9.9999175704944765e-01  9.9999120811877840e-01  9.9999050357975716e-01  9.9998960329848607e-01  9.9998844426626854e-01  9.9998692003576439e-01  9.9998484042004199e-01  9.9998186205081252e-01  9.9997727741665454e-01  9.9996976562871243e-01  9.9995751694510870e-01  9.9993017369808446e-01  9.9974855996708512e-01  6.1621204174176214e-01  9.9746309774169858e-02  9.0992779203635397e-05  6.0307053663221806e-05  5.6359118152695635e-05  1.1180256725026806e-04  1.1120694981417327e-04  5.5826585976032546e-05  5.6178080634329214e-05  5.8688504802501305e-05  8.2002174634776426e-05  5.4981373276242550e-02  5.8269154231486964e-01  9.9977467507151296e-01  9.9994420262344141e-01  9.9997200998023927e-01  9.9998141354799619e-01  9.9998588664400723e-01  9.9998836041751649e-01  9.9998982968423955e-01  9.9999071585436505e-01  9.9999122261181017e-01  9.9999145603935158e-01  9.9999147240801489e-01  9.9999129929787178e-01  9.9999094494517238e-01  9.9999040189701560e-01  9.9998964630948017e-01  9.9998863553454931e-01  9.9998729788312724e-01  9.9998550955229260e-01  9.9998305827486411e-01  9.9997957280719330e-01  9.9997432298271649e-01  9.9996621287655263e-01  9.9995400346585805e-01  9.9993006759920589e-01  9.9984188721209433e-01  8.9459563867404912e-01  4.4389674163148529e-01  9.5824621378386626e-02  1.1331125600247040e-04  6.7805957475180716e-05  5.9756422140364746e-05  5.6290288574933153e-05  5.5594405368184444e-05  1.1088499812382249e-04  1.1147783376658389e-04  5.6180986977810807e-05  5.6814105188614636e-05  6.4413438080307498e-05  1.4793684958984372e-04  3.8740210307380940e-01  9.9962936153378479e-01  9.9992252616843968e-01  9.9996219516042884e-01  9.9997624141538199e-01  9.9998255693532490e-01  9.9998592804598141e-01  9.9998787154015722e-01  9.9998900492021858e-01  9.9998961514079077e-01  9.9998984389268430e-01  9.9998975843525173e-01  9.9998938133507165e-01  9.9998870159064313e-01  9.9998767614888318e-01  9.9998622034856977e-01  9.9998418025701341e-01  9.9998129334052177e-01  9.9997707980463035e-01  9.9997056605013313e-01  9.9996100353045081e-01  9.9994639611595793e-01  9.9991465828876425e-01  9.9978889760984624e-01  8.6688964076339159e-01  4.8506564928234741e-01  2.0256041015991630e-01  4.4097338938189711e-04  8.8966018882143626e-05  6.7568242842631869e-05  6.1133445137418136e-05  5.7161009504807976e-05  5.6212930716240286e-05  5.5865056109500091e-05  5.5581013030367572e-05  1.1087634937371594e-04  1.1176645091218765e-04  5.6605080722683669e-05  5.9429381127173674e-05  8.2203671382398460e-05  1.4074867304454527e-01  9.7551120460420915e-01  9.9991426698547892e-01  9.9995947771720906e-01  9.999741723