<?xml version="1.0"?>
<VTKFile type="UnstructuredGrid"  version="0.1"  >
<UnstructuredGrid>
<Piece  NumberOfPoints="1681" NumberOfCells="3200">
<Points>
<DataArray  type="Float64"  NumberOfComponents="3"  format="ascii">0 0 0  0.025 0 0  0.05 0 0  0.075 0 0  0.1 0 0  0.125 0 0  0.15 0 0  0.175 0 0  0.2 0 0  0.225 0 0  0.25 0 0  0.275 0 0  0.3 0 0  0.325 0 0  0.35 0 0  0.375 0 0  0.4 0 0  0.425 0 0  0.45 0 0  0.475 0 0  0.5 0 0  0.525 0 0  0.55 0 0  0.575 0 0  0.6 0 0  0.625 0 0  0.65 0 0  0.675 0 0  0.7 0 0  0.725 0 0  0.75 0 0  0.775 0 0  0.8 0 0  0.825 0 0  0.85 0 0  0.875 0 0  0.9 0 0  0.925 0 0  0.95 0 0  0.975 0 0  1 0 0  0 0.025 0  0.025 0.025 0  0.05 0.025 0  0.075 0.025 0  0.1 0.025 0  0.125 0.025 0  0.15 0.025 0  0.175 0.025 0  0.2 0.025 0  0.225 0.025 0  0.25 0.025 0  0.275 0.025 0  0.3 0.025 0  0.325 0.025 0  0.35 0.025 0  0.375 0.025 0  0.4 0.025 0  0.425 0.025 0  0.45 0.025 0  0.475 0.025 0  0.5 0.025 0  0.525 0.025 0  0.55 0.025 0  0.575 0.025 0  0.6 0.025 0  0.625 0.025 0  0.65 0.025 0  0.675 0.025 0  0.7 0.025 0  0.725 0.025 0  0.75 0.025 0  0.775 0.025 0  0.8 0.025 0  0.825 0.025 0  0.85 0.025 0  0.875 0.025 0  0.9 0.025 0  0.925 0.025 0  0.95 0.025 0  0.975 0.025 0  1 0.025 0  0 0.05 0  0.025 0.05 0  0.05 0.05 0  0.075 0.05 0  0.1 0.05 0  0.125 0.05 0  0.15 0.05 0  0.175 0.05 0  0.2 0.05 0  0.225 0.05 0  0.25 0.05 0  0.275 0.05 0  0.3 0.05 0  0.325 0.05 0  0.35 0.05 0  0.375 0.05 0  0.4 0.05 0  0.425 0.05 0  0.45 0.05 0  0.475 0.05 0  0.5 0.05 0  0.525 0.05 0  0.55 0.05 0  0.575 0.05 0  0.6 0.05 0  0.625 0.05 0  0.65 0.05 0  0.675 0.05 0  0.7 0.05 0  0.725 0.05 0  0.75 0.05 0  0.775 0.05 0  0.8 0.05 0  0.825 0.05 0  0.85 0.05 0  0.875 0.05 0  0.9 0.05 0  0.925 0.05 0  0.95 0.05 0  0.975 0.05 0  1 0.05 0  0 0.075 0  0.025 0.075 0  0.05 0.075 0  0.075 0.075 0  0.1 0.075 0  0.125 0.075 0  0.15 0.075 0  0.175 0.075 0  0.2 0.075 0  0.225 0.075 0  0.25 0.075 0  0.275 0.075 0  0.3 0.075 0  0.325 0.075 0  0.35 0.075 0  0.375 0.075 0  0.4 0.075 0  0.425 0.075 0  0.45 0.075 0  0.475 0.075 0  0.5 0.075 0  0.525 0.075 0  0.55 0.075 0  0.575 0.075 0  0.6 0.075 0  0.625 0.075 0  0.65 0.075 0  0.675 0.075 0  0.7 0.075 0  0.725 0.075 0  0.75 0.075 0  0.775 0.075 0  0.8 0.075 0  0.825 0.075 0  0.85 0.075 0  0.875 0.075 0  0.9 0.075 0  0.925 0.075 0  0.95 0.075 0  0.975 0.075 0  1 0.075 0  0 0.1 0  0.025 0.1 0  0.05 0.1 0  0.075 0.1 0  0.1 0.1 0  0.125 0.1 0  0.15 0.1 0  0.175 0.1 0  0.2 0.1 0  0.225 0.1 0  0.25 0.1 0  0.275 0.1 0  0.3 0.1 0  0.325 0.1 0  0.35 0.1 0  0.375 0.1 0  0.4 0.1 0  0.425 0.1 0  0.45 0.1 0  0.475 0.1 0  0.5 0.1 0  0.525 0.1 0  0.55 0.1 0  0.575 0.1 0  0.6 0.1 0  0.625 0.1 0  0.65 0.1 0  0.675 0.1 0  0.7 0.1 0  0.725 0.1 0  0.75 0.1 0  0.775 0.1 0  0.8 0.1 0  0.825 0.1 0  0.85 0.1 0  0.875 0.1 0  0.9 0.1 0  0.925 0.1 0  0.95 0.1 0  0.975 0.1 0  1 0.1 0  0 0.125 0  0.025 0.125 0  0.05 0.125 0  0.075 0.125 0  0.1 0.125 0  0.125 0.125 0  0.15 0.125 0  0.175 0.125 0  0.2 0.125 0  0.225 0.125 0  0.25 0.125 0  0.275 0.125 0  0.3 0.125 0  0.325 0.125 0  0.35 0.125 0  0.375 0.125 0  0.4 0.125 0  0.425 0.125 0  0.45 0.125 0  0.475 0.125 0  0.5 0.125 0  0.525 0.125 0  0.55 0.125 0  0.575 0.125 0  0.6 0.125 0  0.625 0.125 0  0.65 0.125 0  0.675 0.125 0  0.7 0.125 0  0.725 0.125 0  0.75 0.125 0  0.775 0.125 0  0.8 0.125 0  0.825 0.125 0  0.85 0.125 0  0.875 0.125 0  0.9 0.125 0  0.925 0.125 0  0.95 0.125 0  0.975 0.125 0  1 0.125 0  0 0.15 0  0.025 0.15 0  0.05 0.15 0  0.075 0.15 0  0.1 0.15 0  0.125 0.15 0  0.15 0.15 0  0.175 0.15 0  0.2 0.15 0  0.225 0.15 0  0.25 0.15 0  0.275 0.15 0  0.3 0.15 0  0.325 0.15 0  0.35 0.15 0  0.375 0.15 0  0.4 0.15 0  0.425 0.15 0  0.45 0.15 0  0.475 0.15 0  0.5 0.15 0  0.525 0.15 0  0.55 0.15 0  0.575 0.15 0  0.6 0.15 0  0.625 0.15 0  0.65 0.15 0  0.675 0.15 0  0.7 0.15 0  0.725 0.15 0  0.75 0.15 0  0.775 0.15 0  0.8 0.15 0  0.825 0.15 0  0.85 0.15 0  0.875 0.15 0  0.9 0.15 0  0.925 0.15 0  0.95 0.15 0  0.975 0.15 0  1 0.15 0  0 0.175 0  0.025 0.175 0  0.05 0.175 0  0.075 0.175 0  0.1 0.175 0  0.125 0.175 0  0.15 0.175 0  0.175 0.175 0  0.2 0.175 0  0.225 0.175 0  0.25 0.175 0  0.275 0.175 0  0.3 0.175 0  0.325 0.175 0  0.35 0.175 0  0.375 0.175 0  0.4 0.175 0  0.425 0.175 0  0.45 0.175 0  0.475 0.175 0  0.5 0.175 0  0.525 0.175 0  0.55 0.175 0  0.575 0.175 0  0.6 0.175 0  0.625 0.175 0  0.65 0.175 0  0.675 0.175 0  0.7 0.175 0  0.725 0.175 0  0.75 0.175 0  0.775 0.175 0  0.8 0.175 0  0.825 0.175 0  0.85 0.175 0  0.875 0.175 0  0.9 0.175 0  0.925 0.175 0  0.95 0.175 0  0.975 0.175 0  1 0.175 0  0 0.2 0  0.025 0.2 0  0.05 0.2 0  0.075 0.2 0  0.1 0.2 0  0.125 0.2 0  0.15 0.2 0  0.175 0.2 0  0.2 0.2 0  0.225 0.2 0  0.25 0.2 0  0.275 0.2 0  0.3 0.2 0  0.325 0.2 0  0.35 0.2 0  0.375 0.2 0  0.4 0.2 0  0.425 0.2 0  0.45 0.2 0  0.475 0.2 0  0.5 0.2 0  0.525 0.2 0  0.55 0.2 0  0.575 0.2 0  0.6 0.2 0  0.625 0.2 0  0.65 0.2 0  0.675 0.2 0  0.7 0.2 0  0.725 0.2 0  0.75 0.2 0  0.775 0.2 0  0.8 0.2 0  0.825 0.2 0  0.85 0.2 0  0.875 0.2 0  0.9 0.2 0  0.925 0.2 0  0.95 0.2 0  0.975 0.2 0  1 0.2 0  0 0.225 0  0.025 0.225 0  0.05 0.225 0  0.075 0.225 0  0.1 0.225 0  0.125 0.225 0  0.15 0.225 0  0.175 0.225 0  0.2 0.225 0  0.225 0.225 0  0.25 0.225 0  0.275 0.225 0  0.3 0.225 0  0.325 0.225 0  0.35 0.225 0  0.375 0.225 0  0.4 0.225 0  0.425 0.225 0  0.45 0.225 0  0.475 0.225 0  0.5 0.225 0  0.525 0.225 0  0.55 0.225 0  0.575 0.225 0  0.6 0.225 0  0.625 0.225 0  0.65 0.225 0  0.675 0.225 0  0.7 0.225 0  0.725 0.225 0  0.75 0.225 0  0.775 0.225 0  0.8 0.225 0  0.825 0.225 0  0.85 0.225 0  0.875 0.225 0  0.9 0.225 0  0.925 0.225 0  0.95 0.225 0  0.975 0.225 0  1 0.225 0  0 0.25 0  0.025 0.25 0  0.05 0.25 0  0.075 0.25 0  0.1 0.25 0  0.125 0.25 0  0.15 0.25 0  0.175 0.25 0  0.2 0.25 0  0.225 0.25 0  0.25 0.25 0  0.275 0.25 0  0.3 0.25 0  0.325 0.25 0  0.35 0.25 0  0.375 0.25 0  0.4 0.25 0  0.425 0.25 0  0.45 0.25 0  0.475 0.25 0  0.5 0.25 0  0.525 0.25 0  0.55 0.25 0  0.575 0.25 0  0.6 0.25 0  0.625 0.25 0  0.65 0.25 0  0.675 0.25 0  0.7 0.25 0  0.725 0.25 0  0.75 0.25 0  0.775 0.25 0  0.8 0.25 0  0.825 0.25 0  0.85 0.25 0  0.875 0.25 0  0.9 0.25 0  0.925 0.25 0  0.95 0.25 0  0.975 0.25 0  1 0.25 0  0 0.275 0  0.025 0.275 0  0.05 0.275 0  0.075 0.275 0  0.1 0.275 0  0.125 0.275 0  0.15 0.275 0  0.175 0.275 0  0.2 0.275 0  0.225 0.275 0  0.25 0.275 0  0.275 0.275 0  0.3 0.275 0  0.325 0.275 0  0.35 0.275 0  0.375 0.275 0  0.4 0.275 0  0.425 0.275 0  0.45 0.275 0  0.475 0.275 0  0.5 0.275 0  0.525 0.275 0  0.55 0.275 0  0.575 0.275 0  0.6 0.275 0  0.625 0.275 0  0.65 0.275 0  0.675 0.275 0  0.7 0.275 0  0.725 0.275 0  0.75 0.275 0  0.775 0.275 0  0.8 0.275 0  0.825 0.275 0  0.85 0.275 0  0.875 0.275 0  0.9 0.275 0  0.925 0.275 0  0.95 0.275 0  0.975 0.275 0  1 0.275 0  0 0.3 0  0.025 0.3 0  0.05 0.3 0  0.075 0.3 0  0.1 0.3 0  0.125 0.3 0  0.15 0.3 0  0.175 0.3 0  0.2 0.3 0  0.225 0.3 0  0.25 0.3 0  0.275 0.3 0  0.3 0.3 0  0.325 0.3 0  0.35 0.3 0  0.375 0.3 0  0.4 0.3 0  0.425 0.3 0  0.45 0.3 0  0.475 0.3 0  0.5 0.3 0  0.525 0.3 0  0.55 0.3 0  0.575 0.3 0  0.6 0.3 0  0.625 0.3 0  0.65 0.3 0  0.675 0.3 0  0.7 0.3 0  0.725 0.3 0  0.75 0.3 0  0.775 0.3 0  0.8 0.3 0  0.825 0.3 0  0.85 0.3 0  0.875 0.3 0  0.9 0.3 0  0.925 0.3 0  0.95 0.3 0  0.975 0.3 0  1 0.3 0  0 0.325 0  0.025 0.325 0  0.05 0.325 0  0.075 0.325 0  0.1 0.325 0  0.125 0.325 0  0.15 0.325 0  0.175 0.325 0  0.2 0.325 0  0.225 0.325 0  0.25 0.325 0  0.275 0.325 0  0.3 0.325 0  0.325 0.325 0  0.35 0.325 0  0.375 0.325 0  0.4 0.325 0  0.425 0.325 0  0.45 0.325 0  0.475 0.325 0  0.5 0.325 0  0.525 0.325 0  0.55 0.325 0  0.575 0.325 0  0.6 0.325 0  0.625 0.325 0  0.65 0.325 0  0.675 0.325 0  0.7 0.325 0  0.725 0.325 0  0.75 0.325 0  0.775 0.325 0  0.8 0.325 0  0.825 0.325 0  0.85 0.325 0  0.875 0.325 0  0.9 0.325 0  0.925 0.325 0  0.95 0.325 0  0.975 0.325 0  1 0.325 0  0 0.35 0  0.025 0.35 0  0.05 0.35 0  0.075 0.35 0  0.1 0.35 0  0.125 0.35 0  0.15 0.35 0  0.175 0.35 0  0.2 0.35 0  0.225 0.35 0  0.25 0.35 0  0.275 0.35 0  0.3 0.35 0  0.325 0.35 0  0.35 0.35 0  0.375 0.35 0  0.4 0.35 0  0.425 0.35 0  0.45 0.35 0  0.475 0.35 0  0.5 0.35 0  0.525 0.35 0  0.55 0.35 0  0.575 0.35 0  0.6 0.35 0  0.625 0.35 0  0.65 0.35 0  0.675 0.35 0  0.7 0.35 0  0.725 0.35 0  0.75 0.35 0  0.775 0.35 0  0.8 0.35 0  0.825 0.35 0  0.85 0.35 0  0.875 0.35 0  0.9 0.35 0  0.925 0.35 0  0.95 0.35 0  0.975 0.35 0  1 0.35 0  0 0.375 0  0.025 0.375 0  0.05 0.375 0  0.075 0.375 0  0.1 0.375 0  0.125 0.375 0  0.15 0.375 0  0.175 0.375 0  0.2 0.375 0  0.225 0.375 0  0.25 0.375 0  0.275 0.375 0  0.3 0.375 0  0.325 0.375 0  0.35 0.375 0  0.375 0.375 0  0.4 0.375 0  0.425 0.375 0  0.45 0.375 0  0.475 0.375 0  0.5 0.375 0  0.525 0.375 0  0.55 0.375 0  0.575 0.375 0  0.6 0.375 0  0.625 0.375 0  0.65 0.375 0  0.675 0.375 0  0.7 0.375 0  0.725 0.375 0  0.75 0.375 0  0.775 0.375 0  0.8 0.375 0  0.825 0.375 0  0.85 0.375 0  0.875 0.375 0  0.9 0.375 0  0.925 0.375 0  0.95 0.375 0  0.975 0.375 0  1 0.375 0  0 0.4 0  0.025 0.4 0  0.05 0.4 0  0.075 0.4 0  0.1 0.4 0  0.125 0.4 0  0.15 0.4 0  0.175 0.4 0  0.2 0.4 0  0.225 0.4 0  0.25 0.4 0  0.275 0.4 0  0.3 0.4 0  0.325 0.4 0  0.35 0.4 0  0.375 0.4 0  0.4 0.4 0  0.425 0.4 0  0.45 0.4 0  0.475 0.4 0  0.5 0.4 0  0.525 0.4 0  0.55 0.4 0  0.575 0.4 0  0.6 0.4 0  0.625 0.4 0  0.65 0.4 0  0.675 0.4 0  0.7 0.4 0  0.725 0.4 0  0.75 0.4 0  0.775 0.4 0  0.8 0.4 0  0.825 0.4 0  0.85 0.4 0  0.875 0.4 0  0.9 0.4 0  0.925 0.4 0  0.95 0.4 0  0.975 0.4 0  1 0.4 0  0 0.425 0  0.025 0.425 0  0.05 0.425 0  0.075 0.425 0  0.1 0.425 0  0.125 0.425 0  0.15 0.425 0  0.175 0.425 0  0.2 0.425 0  0.225 0.425 0  0.25 0.425 0  0.275 0.425 0  0.3 0.425 0  0.325 0.425 0  0.35 0.425 0  0.375 0.425 0  0.4 0.425 0  0.425 0.425 0  0.45 0.425 0  0.475 0.425 0  0.5 0.425 0  0.525 0.425 0  0.55 0.425 0  0.575 0.425 0  0.6 0.425 0  0.625 0.425 0  0.65 0.425 0  0.675 0.425 0  0.7 0.425 0  0.725 0.425 0  0.75 0.425 0  0.775 0.425 0  0.8 0.425 0  0.825 0.425 0  0.85 0.425 0  0.875 0.425 0  0.9 0.425 0  0.925 0.425 0  0.95 0.425 0  0.975 0.425 0  1 0.425 0  0 0.45 0  0.02
[...]
<PointData  Scalars="ControlVisualisation"> 
<DataArray  type="Float64"  Name="ControlVisualisation"  format="ascii">1.4652587040515422e-01  1.0341932344343246e-01  1.0344763382318321e-01  1.0351068931775503e-01  1.0361149783949261e-01  1.0373971859525417e-01  1.0387606913720357e-01  1.0400139008907176e-01  1.0410280462909129e-01  1.0417541670261157e-01  1.0422075945234184e-01  1.0424392572802674e-01  1.0425116507154837e-01  1.0424841174885367e-01  1.0424036549742094e-01  1.0423013383736390e-01  1.0421960234908145e-01  1.0421018558440596e-01  1.0420336000608380e-01  1.0420066374777349e-01  1.0420322046294800e-01  1.0421105406442278e-01  1.0422256451167505e-01  1.0423457810902842e-01  1.0424325013403095e-01  1.0424556961807320e-01  1.0424029886590454e-01  1.0422694772768855e-01  1.0420327804652205e-01  1.0416406836480230e-01  1.0410242065577607e-01  1.0401208151453144e-01  1.0389086343546311e-01  1.0374589951240457e-01  1.0359960149183305e-01  1.0348691742107832e-01  1.0342945937298409e-01  1.0341539652942779e-01  1.0341500226361869e-01  1.0341301792859452e-01  2.4746379255730450e-01  1.0341767092599666e-01  5.4770999818329343e-02  5.4823898496146627e-02  5.4939847341806895e-02  5.5126355847968475e-02  5.5364198536443587e-02  5.5617759106022888e-02  5.5850745093213139e-02  5.6036935950730948e-02  5.6165052466946426e-02  5.6237731117966511e-02  5.6266071535607906e-02  5.6264276412625366e-02  5.6246329396997301e-02  5.6223576850498350e-02  5.6203333435206476e-02  5.6189321401903469e-02  5.6183316808862120e-02  5.6186616268517259e-02  5.6200511574198697e-02  5.6225715652437974e-02  5.6261135524106658e-02  5.6302707189651094e-02  5.6343227402158580e-02  5.6373988304050784e-02  5.6388069066302629e-02  5.6383204247984715e-02  5.6360898000119251e-02  5.6320775253011435e-02  5.6255468133615476e-02  5.6152617509317333e-02  5.6000707612910768e-02  5.5792095161603814e-02  5.5529954892883510e-02  5.5245043245960232e-02  5.4997735609343151e-02  5.4841427746486870e-02  5.4778647626340334e-02  5.4763835213551951e-02  5.4757551667235900e-02  1.0341330573896679e-01  1.0342699569194659e-01  5.4805496611339127e-02  5.4914111042510802e-02  5.5113782305214257e-02  5.5410641009611968e-02  5.5760894396632441e-02  5.6108858110253346e-02  5.6406502269814168e-02  5.6622245421734343e-02  5.6748358562774173e-02  5.6799441670779702e-02  5.6799901180115769e-02  5.6773723035544628e-02  5.6741251462257697e-02  5.6717295315048141e-02  5.6709476696279716e-02  5.6719377989514902e-02  5.6745774500746873e-02  5.6787361044322263e-02  5.6843743795801462e-02  5.6914632999460903e-02  5.6997630310332580e-02  5.7085721907242926e-02  5.7166394980207952e-02  5.7224358822112548e-02  5.7248366837142711e-02  5.7239113885828682e-02  5.7210290135028340e-02  5.7174726310141533e-02  5.7126543658756919e-02  5.7043748512110422e-02  5.6900568539087398e-02  5.6662092025218068e-02  5.6303572259610246e-02  5.5851095401135649e-02  5.5389368132320385e-02  5.5048561628501365e-02  5.4878421639128448e-02  5.4823667360277759e-02  5.4790675510984446e-02  1.0342477585105346e-01  1.0342151195699809e-01  5.4858054763073087e-02  5.5097377704669909e-02  5.5493697544293119e-02  5.6000600094951142e-02  5.6527106722340480e-02  5.6993857903499895e-02  5.7347528306717056e-02  5.7561170716828383e-02  5.7649264725767001e-02  5.7651437151959181e-02  5.7595921734381259e-02  5.7503404306633144e-02  5.7402433096128552e-02  5.7318694863168103e-02  5.7266500706197224e-02  5.7252717674931071e-02  5.7281697009286980e-02  5.7358090617424203e-02  5.7488814828619304e-02  5.7683776733309829e-02  5.7954042366781013e-02  5.8308014084971854e-02  5.8748513828274021e-02  5.9273535252169544e-02  5.9883154053118351e-02  6.0596370486582764e-02  6.1459244528108831e-02  6.2483731808091650e-02  6.3556239287783658e-02  6.4495828262388463e-02  6.5122015976871617e-02  6.5135348768457224e-02  6.4248055212748179e-02  6.2274965905498865e-02  5.9308576185521447e-02  5.6582975208781403e-02  5.5235042061874629e-02  5.5024661617568929e-02  5.4976096181710517e-02  1.0349436016378614e-01  1.0338042920135330e-01  5.4971722256950267e-02  5.6184612921539964e-02  5.8461348026465243e-02  6.1125984328650400e-02  6.3548073831209292e-02  6.5465022200793907e-02  6.6604136086252735e-02  6.6670210364184523e-02  6.5821791640736094e-02  6.4581989987994928e-02  6.3341965853993307e-02  6.2252358073649851e-02  6.1398144719028949e-02  6.0845110264821881e-02  6.0588195809368549e-02  6.0589320225191076e-02  6.0830587984116870e-02  6.1326492014168038e-02  6.2125189224062551e-02  6.3316573041875879e-02  6.5041120526896729e-02  6.7492164925370357e-02  7.0911271298568154e-02  7.5580507682247389e-02  8.1842186069043213e-02  9.0255714957323444e-02  1.0201369598740996e-01  1.1927588117386734e-01  1.4386735575964532e-01  1.7414429888697552e-01  2.0638104396793869e-01  2.3450518598989012e-01  2.4218017307120132e-01  2.0649602562991232e-01  1.4073769780703754e-01  9.3212008422735262e-02  6.7801078166520590e-02  5.6717576593095335e-02  5.5479925152048734e-02  1.0381432780235285e-01  1.0500914123764554e-01  5.7912842192047176e-02  6.8008850526778533e-02  8.9927088393135624e-02  1.2244113209931173e-01  1.4810157905239646e-01  1.5724341903850911e-01  1.5661862441951657e-01  1.4747866873107146e-01  1.3074402450807379e-01  1.1326299252485533e-01  9.9531531930048739e-02  9.0267945931028992e-02  8.4516077748960000e-02  8.1195792032723674e-02  7.9650146658793830e-02  7.9591275897913275e-02  8.0961040572490151e-02  8.3902230367419922e-02  8.8876918010522929e-02  9.6965824118024596e-02  1.1039438544315318e-01  1.3335684396110009e-01  1.7309163687986456e-01  2.4024993474075584e-01  3.4547961871452171e-01  4.8899777005866296e-01  6.4894628602852933e-01  7.8521532712399389e-01  8.6745554854828211e-01  9.0342676411239176e-01  9.1877356611950001e-01  9.2713619220055610e-01  9.3164310359036684e-01  9.3038203352004512e-01  9.1541619244859718e-01  8.6365107408011577e-01  6.6947667333667016e-01  1.3972376084289867e-01  5.9882229168723815e-02  1.0757810550632142e-01  1.1856413202830703e-01  1.0888738693985718e-01  4.1600965063803302e-01  7.1944837542199291e-01  7.8418482288623337e-01  7.8686841733423296e-01  7.7267736083207883e-01  7.4570418515543779e-01  7.0348758343306550e-01  6.3964604069665887e-01  5.5151175554320286e-01  4.4711907015671259e-01  3.4477913147084149e-01  2.6357302910747238e-01  2.1243817871405332e-01  1.9003439796773128e-01  1.9215627838620236e-01  2.1770850362321315e-01  2.7020941350007288e-01  3.5511017075815249e-01  4.7262212020169025e-01  6.0811577943031858e-01  7.3275690661954018e-01  8.2441258465757539e-01  8.8231190598901110e-01  9.1674656600051130e-01  9.3719117548254638e-01  9.4972037945040044e-01  9.5791326100219165e-01  9.6376866052632093e-01  9.6827730447841176e-01  9.7183765551177059e-01  9.7456879456822332e-01  9.7645885781964992e-01  9.7735174964022897e-01  9.7673056316338480e-01  9.7375192775275088e-01  9.6652732280876241e-01  9.4377009500513320e-01  5.3905697336962244e-01  1.1332641506535213e-01  8.9163932804516233e-01  9.2705822416054851e-01  9.5072884260998547e-01  9.5515042269641048e-01  9.5540086050392503e-01  9.5351256789106387e-01  9.4974960281301557e-01  9.4450817967859924e-01  9.3765225869136914e-01  9.2873647967514383e-01  9.1728200599818466e-01  9.0309438170774858e-01  8.8675884825038509e-01  8.7021185309097870e-01  8.5695436373199241e-01  8.5118197886506575e-01  8.5555872437907987e-01  8.6918753876703281e-01  8.8802748218891137e-01  9.0752224626601408e-01  9.2480370408065360e-01  9.3896013151388491e-01  9.5017905645928369e-01  9.5896754844404697e-01  9.6581739648089138e-01  9.7114365430154248e-01  9.7529554548733144e-01  9.7856352047752726e-01  9.8117806838965516e-01  9.8331042992912965e-01  9.8508101069544518e-01  9.8657249633351851e-01  9.8784035839193396e-01  9.8891861509218815e-01  9.8982417561415970e-01  9.9056071521279132e-01  9.9110609493554991e-01  9.9134804164092949e-01  9.9094943692066217e-01  9.8891238020975503e-01  9.4660064775008745e-01  9.8070798954489213e-01  9.8737621887420013e-01  9.8543206159113061e-01  9.8313012829051394e-01  9.8091688027179436e-01  9.7869973345025030e-01  9.7636058288055838e-01  9.7383479589493793e-01  9.7105445795601475e-01  9.6793136561851001e-01  9.6440845244634488e-01  9.6055248401437265e-01  9.5665100655357882e-01  9.5325904157490127e-01  9.5111066859143334e-01  9.5084013049964233e-01  9.5263591591679053e-01  9.5611734880226806e-01  9.6055908011872693e-01  9.6524673046298182e-01  9.6969221502604908e-01  9.7365431326263097e-01  9.7706223312978124e-01  9.7993474830474858e-01  9.8232920407841262e-01  9.8431700885451467e-01  9.8597279143108629e-01  9.8736816558048079e-01  9.8856674497230568e-01  9.8962081558219861e-01  9.9057088812866245e-01  9.9144772838209216e-01  9.9227491118723765e-01  9.9307059063512804e-01  9.9384918101325148e-01  9.9462162036217172e-01  9.9538754724279455e-01  9.9611987122011392e-01  9.9675842061588438e-01  9.9722154479416991e-01  9.9354704047592857e-01  9.8938700037740279e-01  9.9360755170912352e-01  9.9203449047484948e-01  9.9002979386610668e-01  9.8793640132134874e-01  9.8594534578561888e-01  9.8409013616997731e-01  9.8232222162514737e-01  9.8057997777453476e-01  9.7880754229677769e-01  9.7698096077098562e-01  9.7515442832443688e-01  9.7349818408729205e-01  9.7228979103775737e-01  9.7182690067647581e-01  9.7228166064531663e-01  9.7359676922572891e-01  9.7551608192572636e-01  9.7771823144945602e-01  9.7993896468885244e-01  9.8201719613509264e-01  9.8388073559277323e-01  9.8551267547605703e-01  9.8692365908397395e-01  9.8813619081119275e-01  9.8917788472416268e-01  9.9007888860555271e-01  9.9087024722562067e-01  9.9158200399454510e-01  9.9224129008574435e-01  9.9287111994047228e-01  9.9349020276615774e-01  9.9411353345134645e-01  9.9475338145833281e-01  9.9541939318249972e-01  9.9611378446466081e-01  9.9682068921298395e-01  9.9749766316640598e-01  9.9807874800870877e-01  9.9848560654867402e-01  9.9707955937948145e-01  9.9066396042120353e-01  9.9476915364084317e-01  9.9344221879087202e-01  9.9168470124349639e-01  9.8980917955724201e-01  9.8804992308748185e-01  9.8648247377257503e-01  9.8507640141727382e-01  9.8377319474067204e-01  9.8252038895788429e-01  9.8129920686340466e-01  9.8016071072012678e-01  9.7924778630963294e-01  9.7876687520496342e-01  9.7889303979855680e-01  9.7965849156539830e-01  9.8092322070633897e-01  9.8245610472967215e-01  9.8404385977505560e-01  9.8554718820762521e-01  9.8689981994752829e-01  9.8808407879179860e-01  9.8910745494562857e-01  9.8998772395246226e-01  9.9074570673803319e-01  9.9140272324213208e-01  9.9198013639244376e-01  9.9249926102430541e-01  9.9298079481779644e-01  9.9344374064711027e-01  9.9390445791298510e-01  9.9437668524887990e-01  9.9487274874481435e-01  9.9540454234037989e-01  9.9598090408545936e-01  9.9659943334969181e-01  9.9723769798511874e-01  9.9784870431545736e-01  9.9836739137672426e-01  9.9872787666815632e-01  9.9772530239799873e-01  9.8793718595324675e-01  9.9376744228313285e-01  9.9239419361565773e-01  9.9065606100668258e-01  9.8891150908708481e-01  9.8737192971956189e-01  9.8607101858180035e-01  9.8495251912140402e-01  9.8394683891962065e-01  9.8300133722491001e-01  9.8210653398359726e-01  9.8133143265489209e-01  9.8083811400995891e-01  9.8082964026963515e-01  9.8142343596507786e-01  9.8254780518433593e-01  9.8397985221243123e-01  9.8548088208648521e-01  9.8689029086244751e-01  9.8813501034687634e-01  9.8919955747610899e-01  9.9009656623775733e-01  9.9084884276213037e-01  9.9148079454519367e-01  9.9201528862621624e-01  9.9247317457470530e-01  9.9287381757327953e-01  9.9323562132264565e-01  9.9357592704253450e-01  9.9391024730203903e-01  9.9425167212268906e-01  9.9461164452048645e-01  9.9500204492062594e-01  9.9543591170998869e-01  9.9592323052486165e-01  9.9646296354235653e-01  9.9703650257720067e-01  9.9760384900310317e-01  9.9810896087329326e-01  9.9847984320134853e-01  9.9743099357638487e-01  9.7296247850678974e-01  9.8813864630463510e-01  9.8679714726208023e-01  9.8537441588045882e-01  9.8413256128856985e-01  9.8317488950770049e-01  9.8242811627861981e-01  9.8180119170229041e-01  9.8122836265746172e-01  9.8066911055940176e-01  9.8013995134235921e-01  9.7976089052366311e-01  9.7975876080570312e-01  9.8036811854198735e-01  9.8163712887865917e-01  9.8333986800151985e-01  9.8513971600507111e-01  9.8679457930715075e-01  9.8820560773604160e-01  9.8936529127200845e-01  9.9030349387346317e-01  9.9105866564119105e-01  9.9166673936042071e-01  9.9215821916175395e-01  9.9255840482736590e-01  9.9288862553909696e-01  9.9316759347836336e-01  9.9341237180282138e-01  9.9363856157608255e-01  9.9385970612885244e-01  9.9408682943776527e-01  9.9432946918984444e-01  9.9459807567442271e-01  9.9490465506957071e-01  9.9525866724135703e-01  9.9566022178264135e-01  9.9609459802368505e-01  9.9653108416401404e-01  9.9692573184513111e-01  9.9719249520436981e-01  9.9545125744880691e-01  6.9934010788426981e-01  9.4051116657520206e-01  9.5683098298181468e-01  9.6345242011197851e-01  9.6753729311866099e-01  9.7039516645185875e-01  9.7233900343518065e-01  9.7360661348378497e-01  9.7435567954412317e-01  9.7470776956974237e-01  9.7489036340601065e-01  9.7525770125640288e-01  9.7617159036034318e-01  9.7788189211612464e-01  9.8029039462084122e-01  9.8290933522078050e-01  9.8527346350492029e-01  9.8719803702392017e-01  9.8869561977805409e-01  9.8984367042542587e-01  9.9072141855516482e-01  9.9139281798206325e-01  9.9190612260869537e-01  9.9229738076764940e-01  9.9259397980552388e-01  9.9281746412856731e-01  9.9298562618582020e-01  9.9311385843791689e-01  9.9321558487319905e-01  9.9330176202623743e-01  9.9338010254545195e-01  9.9345538422138457e-01  9.9353088811229462e-01  9.9360772196499525e-01  9.9367905823425651e-01  9.9371810494250701e-01  9.9365758777576885e-01  9.9334808009126940e-01  9.9249476686617166e-01  9.8985357782898664e-01  9.7977353605862705e-01  1.0711594797405374e-01  9.8630656205547576e-02  5.5911153242964962e-01  8.5009886752356689e-01  9.1060460642522756e-01  9.3272707922036313e-01  9.4274680407058586e-01  9.4849559287733853e-01  9.5345919465684237e-01  9.5826963650232355e-01  9.6243991332177714e-01  9.6637415175815389e-01  9.7042004489149780e-01  9.7427845105247723e-01  9.7819897930798116e-01  9.8191144497315941e-01  9.8489547459971716e-01  9.8709639928636006e-01  9.8868367692120096e-01  9.8982910845691519e-01  9.9065834882357051e-01  9.9125665425898879e-01  9.9168151613484901e-01  9.9197246490512025e-01  9.9215747561891166e-01  9.9225696595340174e-01  9.9228629912873523e-01  9.9225715707103668e-01  9.9217781222646573e-01  9.9205223398341214e-01  9.9187784841901161e-01  9.9164302641961777e-01  9.9132378290313683e-01  9.9087389083916710e-01  9.9019671488407879e-01  9.8907863194544776e-01  9.8704227702748060e-01  9.8305054389731883e-01  9.7089320175670901e-01  8.9559964808033632e-01  1.8774939125434337e-01  1.0354392641597371e-01  5.4651903696074131e-02  6.6257237062162466e-02  1.0506021187406085e-01  2.1225921793838662e-01  4.7306545101045583e-01  7.5763834930547536e-01  8.7982626796305086e-01  8.8761082637504107e-01  8.8253595807628638e-01  9.1848544824629763e-01  9.4187867211132958e-01  9.6128336682517856e-01  9.6908224983415403e-01  9.7545107520278251e-01  9.8088195408073664e-01  9.8438758067180787e-01  9.8673810904183190e-01  9.8833498314507007e-01  9.8942847089950547e-01  9.9017406718798084e-01  9.9066732236837662e-01  9.9096798776821515e-01  9.9111429845359056e-01  9.9113091985645851e-01  9.9103319305814586e-01  9.9082932645824418e-01  9.9052074815928715e-01  9.9010058497467490e-01  9.8955011184848163e-01  9.8883057845434708e-01  9.8786721790445697e-01  9.8652232671552742e-01  9.8453695057108659e-01  9.8137205422440543e-01  9.7600458903747334e-01  9.6536701020240523e-01  9.3162844455770133e-01  6.7404177081578809e-01  7.8666728120807300e-02  1.0612253684256628e-01  1.0288731848909007e-01  5.3140829018851560e-02  5.2568489042083784e-02  5.4982595954842048e-02  6.1724261512895312e-02  7.4256204975012507e-02  9.5252291389011326e-02  1.3784459924859427e-01  2.5203011301282768e-01  5.5847143852761849e-01  7.3196420045695854e-01  8.6613336657315321e-01  9.3099577494144248e-01  9.6554434645927323e-01  9.7405932692186104e-01  9.8028345187297816e-01  9.8390352987791663e-01  9.8620118920856814e-01  9.8768174097145656e-01  9.8863099692748779e-01  9.8921075407115877e-01  9.8951202577170028e-01  9.8958625292103619e-01  9.8946144762639732e-01  9.8914960350450054e-01  9.8864890376452497e-01  9.8794337165617008e-01  9.8699896550467492e-01  9.8575162083503398e-01  9.8408794228808438e-01  9.8181141751829148e-01  9.7855477048785722e-01  9.7370838438022034e-01  9.6637294234007587e-01  9.5255310436483454e-01  9.1690440879573065e-01  7.5290925758367111e-01  3.5621240666421006e-01  8.1162727994726291e-02  5.7206302250488339e-02  1.0372860420341450e-01  1.0284697734327997e-01  5.2831810462614592e-02  5.1636015078609758e-02  5.1830695122036856e-02  5.2768120142557717e-02  5.4435885228096503e-02  5.7137897481733230e-02  6.2604747218886272e-02  7.7973197210081904e-02  1.3277715093867953e-01  3.4768964921330298e-01  8.0592041513077239e-01  9.3049842695567486e-01  9.6302837526851459e-01  9.7499233762421078e-01  9.8010676280958431e-01  9.8338527294924227e-01  9.8540807783146489e-01  9.8661727797088294e-01  9.8728325104052950e-01  9.8754476279778880e-01  9.8746566157174642e-01  9.8706672888447677e-01  9.8634006543052344e-01  9.8525206744897675e-01  9.8373220558776175e-01  9.8165211326139512e-01  9.7879657895574190e-01  9.7479634049181796e-01  9.6916086608478247e-01  9.6141337248482583e-01  9.4892965759553027e-01  9.2155316458630121e-01  8.4419357313327104e-01  5.7550292345852871e-01  2.7798690590227465e-01  1.1745522467861769e-01  6.9447794658614989e-02  5.9804007563774610e-02  5.5655178843729766e-02  1.0344530703494403e-01  1.0287605402072199e-01  5.2726996045147745e-02  5.1414447015378381e-02  5.1419867590795171e-02  5.1857007808791405e-02  5.2649446344184475e-02  5.3938503089154016e-02  5.7060352237817961e-02  7.0809601837152764e-02  1.3433149715603782e-01  6.4674285407770704e-01  9.3180100140940902e-01  9.4782273975396969e-01  9.6737638168841822e-01  9.7545377418491308e-01  9.8001208437107246e-01  9.8271105896817745e-01  9.8420043831435733e-01  9.8489957791792992e-01  9.8501897706469910e-01  9.8463018820293902e-01  9.8371689881273938e-01  9.8219638984667845e-01  9.7990789894642849e-01  9.7656084941948007e-01  9.7159465139454648e-01  9.6427852578059081e-01  9.5392341436008787e-01  9.3767474839767928e-01  9.0453334773797045e-01  8.1474213386991656e-01  5.7444938260072553e-01  3.0124832537259344e-01  1.5126881816389970e-01  9.5645488523004363e-02  7.0672424444527149e-02  6.2675399279983349e-02  5.9096782986948315e-02  5.6764124531343954e-02  5.5712757261957770e-02  1.0365992512626962e-01  1.0297878979425754e-01  5.2790063407413185e-02  5.1444801741363740e-02  5.1411221582533272e-02  5.1755539414136686e-02  5.2491244779537483e-02  5.4373067877803015e-02  6.2829549488430822e-02  9.9654644392612221e-02  4.1326229976259726e-01  9.8216144732484190e-01  9.4902692550468437e-01  9.6387571610127476e-01  9.7276161677934669e-01  9.7757546960852015e-01  9.8040282412900970e-01  9.8186386447376606e-01  9.8235417587003471e-01  9.8206449484561043e-01  9.8102199697672665e-01  9.7910391947482245e-01  9.7601050780324228e-01  9.7108891759477256e-01  9.6315551874325867e-01  9.5110685732325773e-01  9.3195969292438785e-01  8.9397009476503742e-01  7.9444414327466084e-01  5.4985308712703107e-01  2.9454837670664102e-01  1.5425057693993668e-01  1.0065360478425589e-01  7.8170536871685029e-02  6.6601164531299051e-02  6.1347123551953979e-02  5.8926050272258994e-02  5.7862586861897262e-02  5.7111396007073635e-02  5.6601746084096391e-02  5.5902071262672104e-02  1.0389305421615916e-01  1.0314366863429762e-01  5.3012956513618113e-02  5.1694414303874871e-02  5.1659977162092877e-02  5.2098893132869036e-02  5.3681043447854050e-02  6.1045217792083190e-02  9.0824836334298692e-02  3.236134618