<?xml version="1.0"?>
<VTKFile type="UnstructuredGrid"  version="0.1"  >
<UnstructuredGrid>
<Piece  NumberOfPoints="1681" NumberOfCells="3200">
<Points>
<DataArray  type="Float64"  NumberOfComponents="3"  format="ascii">0 0 0  0.025 0 0  0.05 0 0  0.075 0 0  0.1 0 0  0.125 0 0  0.15 0 0  0.175 0 0  0.2 0 0  0.225 0 0  0.25 0 0  0.275 0 0  0.3 0 0  0.325 0 0  0.35 0 0  0.375 0 0  0.4 0 0  0.425 0 0  0.45 0 0  0.475 0 0  0.5 0 0  0.525 0 0  0.55 0 0  0.575 0 0  0.6 0 0  0.625 0 0  0.65 0 0  0.675 0 0  0.7 0 0  0.725 0 0  0.75 0 0  0.775 0 0  0.8 0 0  0.825 0 0  0.85 0 0  0.875 0 0  0.9 0 0  0.925 0 0  0.95 0 0  0.975 0 0  1 0 0  0 0.025 0  0.025 0.025 0  0.05 0.025 0  0.075 0.025 0  0.1 0.025 0  0.125 0.025 0  0.15 0.025 0  0.175 0.025 0  0.2 0.025 0  0.225 0.025 0  0.25 0.025 0  0.275 0.025 0  0.3 0.025 0  0.325 0.025 0  0.35 0.025 0  0.375 0.025 0  0.4 0.025 0  0.425 0.025 0  0.45 0.025 0  0.475 0.025 0  0.5 0.025 0  0.525 0.025 0  0.55 0.025 0  0.575 0.025 0  0.6 0.025 0  0.625 0.025 0  0.65 0.025 0  0.675 0.025 0  0.7 0.025 0  0.725 0.025 0  0.75 0.025 0  0.775 0.025 0  0.8 0.025 0  0.825 0.025 0  0.85 0.025 0  0.875 0.025 0  0.9 0.025 0  0.925 0.025 0  0.95 0.025 0  0.975 0.025 0  1 0.025 0  0 0.05 0  0.025 0.05 0  0.05 0.05 0  0.075 0.05 0  0.1 0.05 0  0.125 0.05 0  0.15 0.05 0  0.175 0.05 0  0.2 0.05 0  0.225 0.05 0  0.25 0.05 0  0.275 0.05 0  0.3 0.05 0  0.325 0.05 0  0.35 0.05 0  0.375 0.05 0  0.4 0.05 0  0.425 0.05 0  0.45 0.05 0  0.475 0.05 0  0.5 0.05 0  0.525 0.05 0  0.55 0.05 0  0.575 0.05 0  0.6 0.05 0  0.625 0.05 0  0.65 0.05 0  0.675 0.05 0  0.7 0.05 0  0.725 0.05 0  0.75 0.05 0  0.775 0.05 0  0.8 0.05 0  0.825 0.05 0  0.85 0.05 0  0.875 0.05 0  0.9 0.05 0  0.925 0.05 0  0.95 0.05 0  0.975 0.05 0  1 0.05 0  0 0.075 0  0.025 0.075 0  0.05 0.075 0  0.075 0.075 0  0.1 0.075 0  0.125 0.075 0  0.15 0.075 0  0.175 0.075 0  0.2 0.075 0  0.225 0.075 0  0.25 0.075 0  0.275 0.075 0  0.3 0.075 0  0.325 0.075 0  0.35 0.075 0  0.375 0.075 0  0.4 0.075 0  0.425 0.075 0  0.45 0.075 0  0.475 0.075 0  0.5 0.075 0  0.525 0.075 0  0.55 0.075 0  0.575 0.075 0  0.6 0.075 0  0.625 0.075 0  0.65 0.075 0  0.675 0.075 0  0.7 0.075 0  0.725 0.075 0  0.75 0.075 0  0.775 0.075 0  0.8 0.075 0  0.825 0.075 0  0.85 0.075 0  0.875 0.075 0  0.9 0.075 0  0.925 0.075 0  0.95 0.075 0  0.975 0.075 0  1 0.075 0  0 0.1 0  0.025 0.1 0  0.05 0.1 0  0.075 0.1 0  0.1 0.1 0  0.125 0.1 0  0.15 0.1 0  0.175 0.1 0  0.2 0.1 0  0.225 0.1 0  0.25 0.1 0  0.275 0.1 0  0.3 0.1 0  0.325 0.1 0  0.35 0.1 0  0.375 0.1 0  0.4 0.1 0  0.425 0.1 0  0.45 0.1 0  0.475 0.1 0  0.5 0.1 0  0.525 0.1 0  0.55 0.1 0  0.575 0.1 0  0.6 0.1 0  0.625 0.1 0  0.65 0.1 0  0.675 0.1 0  0.7 0.1 0  0.725 0.1 0  0.75 0.1 0  0.775 0.1 0  0.8 0.1 0  0.825 0.1 0  0.85 0.1 0  0.875 0.1 0  0.9 0.1 0  0.925 0.1 0  0.95 0.1 0  0.975 0.1 0  1 0.1 0  0 0.125 0  0.025 0.125 0  0.05 0.125 0  0.075 0.125 0  0.1 0.125 0  0.125 0.125 0  0.15 0.125 0  0.175 0.125 0  0.2 0.125 0  0.225 0.125 0  0.25 0.125 0  0.275 0.125 0  0.3 0.125 0  0.325 0.125 0  0.35 0.125 0  0.375 0.125 0  0.4 0.125 0  0.425 0.125 0  0.45 0.125 0  0.475 0.125 0  0.5 0.125 0  0.525 0.125 0  0.55 0.125 0  0.575 0.125 0  0.6 0.125 0  0.625 0.125 0  0.65 0.125 0  0.675 0.125 0  0.7 0.125 0  0.725 0.125 0  0.75 0.125 0  0.775 0.125 0  0.8 0.125 0  0.825 0.125 0  0.85 0.125 0  0.875 0.125 0  0.9 0.125 0  0.925 0.125 0  0.95 0.125 0  0.975 0.125 0  1 0.125 0  0 0.15 0  0.025 0.15 0  0.05 0.15 0  0.075 0.15 0  0.1 0.15 0  0.125 0.15 0  0.15 0.15 0  0.175 0.15 0  0.2 0.15 0  0.225 0.15 0  0.25 0.15 0  0.275 0.15 0  0.3 0.15 0  0.325 0.15 0  0.35 0.15 0  0.375 0.15 0  0.4 0.15 0  0.425 0.15 0  0.45 0.15 0  0.475 0.15 0  0.5 0.15 0  0.525 0.15 0  0.55 0.15 0  0.575 0.15 0  0.6 0.15 0  0.625 0.15 0  0.65 0.15 0  0.675 0.15 0  0.7 0.15 0  0.725 0.15 0  0.75 0.15 0  0.775 0.15 0  0.8 0.15 0  0.825 0.15 0  0.85 0.15 0  0.875 0.15 0  0.9 0.15 0  0.925 0.15 0  0.95 0.15 0  0.975 0.15 0  1 0.15 0  0 0.175 0  0.025 0.175 0  0.05 0.175 0  0.075 0.175 0  0.1 0.175 0  0.125 0.175 0  0.15 0.175 0  0.175 0.175 0  0.2 0.175 0  0.225 0.175 0  0.25 0.175 0  0.275 0.175 0  0.3 0.175 0  0.325 0.175 0  0.35 0.175 0  0.375 0.175 0  0.4 0.175 0  0.425 0.175 0  0.45 0.175 0  0.475 0.175 0  0.5 0.175 0  0.525 0.175 0  0.55 0.175 0  0.575 0.175 0  0.6 0.175 0  0.625 0.175 0  0.65 0.175 0  0.675 0.175 0  0.7 0.175 0  0.725 0.175 0  0.75 0.175 0  0.775 0.175 0  0.8 0.175 0  0.825 0.175 0  0.85 0.175 0  0.875 0.175 0  0.9 0.175 0  0.925 0.175 0  0.95 0.175 0  0.975 0.175 0  1 0.175 0  0 0.2 0  0.025 0.2 0  0.05 0.2 0  0.075 0.2 0  0.1 0.2 0  0.125 0.2 0  0.15 0.2 0  0.175 0.2 0  0.2 0.2 0  0.225 0.2 0  0.25 0.2 0  0.275 0.2 0  0.3 0.2 0  0.325 0.2 0  0.35 0.2 0  0.375 0.2 0  0.4 0.2 0  0.425 0.2 0  0.45 0.2 0  0.475 0.2 0  0.5 0.2 0  0.525 0.2 0  0.55 0.2 0  0.575 0.2 0  0.6 0.2 0  0.625 0.2 0  0.65 0.2 0  0.675 0.2 0  0.7 0.2 0  0.725 0.2 0  0.75 0.2 0  0.775 0.2 0  0.8 0.2 0  0.825 0.2 0  0.85 0.2 0  0.875 0.2 0  0.9 0.2 0  0.925 0.2 0  0.95 0.2 0  0.975 0.2 0  1 0.2 0  0 0.225 0  0.025 0.225 0  0.05 0.225 0  0.075 0.225 0  0.1 0.225 0  0.125 0.225 0  0.15 0.225 0  0.175 0.225 0  0.2 0.225 0  0.225 0.225 0  0.25 0.225 0  0.275 0.225 0  0.3 0.225 0  0.325 0.225 0  0.35 0.225 0  0.375 0.225 0  0.4 0.225 0  0.425 0.225 0  0.45 0.225 0  0.475 0.225 0  0.5 0.225 0  0.525 0.225 0  0.55 0.225 0  0.575 0.225 0  0.6 0.225 0  0.625 0.225 0  0.65 0.225 0  0.675 0.225 0  0.7 0.225 0  0.725 0.225 0  0.75 0.225 0  0.775 0.225 0  0.8 0.225 0  0.825 0.225 0  0.85 0.225 0  0.875 0.225 0  0.9 0.225 0  0.925 0.225 0  0.95 0.225 0  0.975 0.225 0  1 0.225 0  0 0.25 0  0.025 0.25 0  0.05 0.25 0  0.075 0.25 0  0.1 0.25 0  0.125 0.25 0  0.15 0.25 0  0.175 0.25 0  0.2 0.25 0  0.225 0.25 0  0.25 0.25 0  0.275 0.25 0  0.3 0.25 0  0.325 0.25 0  0.35 0.25 0  0.375 0.25 0  0.4 0.25 0  0.425 0.25 0  0.45 0.25 0  0.475 0.25 0  0.5 0.25 0  0.525 0.25 0  0.55 0.25 0  0.575 0.25 0  0.6 0.25 0  0.625 0.25 0  0.65 0.25 0  0.675 0.25 0  0.7 0.25 0  0.725 0.25 0  0.75 0.25 0  0.775 0.25 0  0.8 0.25 0  0.825 0.25 0  0.85 0.25 0  0.875 0.25 0  0.9 0.25 0  0.925 0.25 0  0.95 0.25 0  0.975 0.25 0  1 0.25 0  0 0.275 0  0.025 0.275 0  0.05 0.275 0  0.075 0.275 0  0.1 0.275 0  0.125 0.275 0  0.15 0.275 0  0.175 0.275 0  0.2 0.275 0  0.225 0.275 0  0.25 0.275 0  0.275 0.275 0  0.3 0.275 0  0.325 0.275 0  0.35 0.275 0  0.375 0.275 0  0.4 0.275 0  0.425 0.275 0  0.45 0.275 0  0.475 0.275 0  0.5 0.275 0  0.525 0.275 0  0.55 0.275 0  0.575 0.275 0  0.6 0.275 0  0.625 0.275 0  0.65 0.275 0  0.675 0.275 0  0.7 0.275 0  0.725 0.275 0  0.75 0.275 0  0.775 0.275 0  0.8 0.275 0  0.825 0.275 0  0.85 0.275 0  0.875 0.275 0  0.9 0.275 0  0.925 0.275 0  0.95 0.275 0  0.975 0.275 0  1 0.275 0  0 0.3 0  0.025 0.3 0  0.05 0.3 0  0.075 0.3 0  0.1 0.3 0  0.125 0.3 0  0.15 0.3 0  0.175 0.3 0  0.2 0.3 0  0.225 0.3 0  0.25 0.3 0  0.275 0.3 0  0.3 0.3 0  0.325 0.3 0  0.35 0.3 0  0.375 0.3 0  0.4 0.3 0  0.425 0.3 0  0.45 0.3 0  0.475 0.3 0  0.5 0.3 0  0.525 0.3 0  0.55 0.3 0  0.575 0.3 0  0.6 0.3 0  0.625 0.3 0  0.65 0.3 0  0.675 0.3 0  0.7 0.3 0  0.725 0.3 0  0.75 0.3 0  0.775 0.3 0  0.8 0.3 0  0.825 0.3 0  0.85 0.3 0  0.875 0.3 0  0.9 0.3 0  0.925 0.3 0  0.95 0.3 0  0.975 0.3 0  1 0.3 0  0 0.325 0  0.025 0.325 0  0.05 0.325 0  0.075 0.325 0  0.1 0.325 0  0.125 0.325 0  0.15 0.325 0  0.175 0.325 0  0.2 0.325 0  0.225 0.325 0  0.25 0.325 0  0.275 0.325 0  0.3 0.325 0  0.325 0.325 0  0.35 0.325 0  0.375 0.325 0  0.4 0.325 0  0.425 0.325 0  0.45 0.325 0  0.475 0.325 0  0.5 0.325 0  0.525 0.325 0  0.55 0.325 0  0.575 0.325 0  0.6 0.325 0  0.625 0.325 0  0.65 0.325 0  0.675 0.325 0  0.7 0.325 0  0.725 0.325 0  0.75 0.325 0  0.775 0.325 0  0.8 0.325 0  0.825 0.325 0  0.85 0.325 0  0.875 0.325 0  0.9 0.325 0  0.925 0.325 0  0.95 0.325 0  0.975 0.325 0  1 0.325 0  0 0.35 0  0.025 0.35 0  0.05 0.35 0  0.075 0.35 0  0.1 0.35 0  0.125 0.35 0  0.15 0.35 0  0.175 0.35 0  0.2 0.35 0  0.225 0.35 0  0.25 0.35 0  0.275 0.35 0  0.3 0.35 0  0.325 0.35 0  0.35 0.35 0  0.375 0.35 0  0.4 0.35 0  0.425 0.35 0  0.45 0.35 0  0.475 0.35 0  0.5 0.35 0  0.525 0.35 0  0.55 0.35 0  0.575 0.35 0  0.6 0.35 0  0.625 0.35 0  0.65 0.35 0  0.675 0.35 0  0.7 0.35 0  0.725 0.35 0  0.75 0.35 0  0.775 0.35 0  0.8 0.35 0  0.825 0.35 0  0.85 0.35 0  0.875 0.35 0  0.9 0.35 0  0.925 0.35 0  0.95 0.35 0  0.975 0.35 0  1 0.35 0  0 0.375 0  0.025 0.375 0  0.05 0.375 0  0.075 0.375 0  0.1 0.375 0  0.125 0.375 0  0.15 0.375 0  0.175 0.375 0  0.2 0.375 0  0.225 0.375 0  0.25 0.375 0  0.275 0.375 0  0.3 0.375 0  0.325 0.375 0  0.35 0.375 0  0.375 0.375 0  0.4 0.375 0  0.425 0.375 0  0.45 0.375 0  0.475 0.375 0  0.5 0.375 0  0.525 0.375 0  0.55 0.375 0  0.575 0.375 0  0.6 0.375 0  0.625 0.375 0  0.65 0.375 0  0.675 0.375 0  0.7 0.375 0  0.725 0.375 0  0.75 0.375 0  0.775 0.375 0  0.8 0.375 0  0.825 0.375 0  0.85 0.375 0  0.875 0.375 0  0.9 0.375 0  0.925 0.375 0  0.95 0.375 0  0.975 0.375 0  1 0.375 0  0 0.4 0  0.025 0.4 0  0.05 0.4 0  0.075 0.4 0  0.1 0.4 0  0.125 0.4 0  0.15 0.4 0  0.175 0.4 0  0.2 0.4 0  0.225 0.4 0  0.25 0.4 0  0.275 0.4 0  0.3 0.4 0  0.325 0.4 0  0.35 0.4 0  0.375 0.4 0  0.4 0.4 0  0.425 0.4 0  0.45 0.4 0  0.475 0.4 0  0.5 0.4 0  0.525 0.4 0  0.55 0.4 0  0.575 0.4 0  0.6 0.4 0  0.625 0.4 0  0.65 0.4 0  0.675 0.4 0  0.7 0.4 0  0.725 0.4 0  0.75 0.4 0  0.775 0.4 0  0.8 0.4 0  0.825 0.4 0  0.85 0.4 0  0.875 0.4 0  0.9 0.4 0  0.925 0.4 0  0.95 0.4 0  0.975 0.4 0  1 0.4 0  0 0.425 0  0.025 0.425 0  0.05 0.425 0  0.075 0.425 0  0.1 0.425 0  0.125 0.425 0  0.15 0.425 0  0.175 0.425 0  0.2 0.425 0  0.225 0.425 0  0.25 0.425 0  0.275 0.425 0  0.3 0.425 0  0.325 0.425 0  0.35 0.425 0  0.375 0.425 0  0.4 0.425 0  0.425 0.425 0  0.45 0.425 0  0.475 0.425 0  0.5 0.425 0  0.525 0.425 0  0.55 0.425 0  0.575 0.425 0  0.6 0.425 0  0.625 0.425 0  0.65 0.425 0  0.675 0.425 0  0.7 0.425 0  0.725 0.425 0  0.75 0.425 0  0.775 0.425 0  0.8 0.425 0  0.825 0.425 0  0.85 0.425 0  0.875 0.425 0  0.9 0.425 0  0.925 0.425 0  0.95 0.425 0  0.975 0.425 0  1 0.425 0  0 0.45 0  0.02
[...]
<PointData  Scalars="ControlVisualisation"> 
<DataArray  type="Float64"  Name="ControlVisualisation"  format="ascii">1.3291459104276715e-04  8.8615464690243917e-05  8.8622041073287518e-05  8.8645772056395394e-05  8.8697701806492933e-05  8.8778439007590205e-05  8.8877033275563819e-05  8.8978791704384113e-05  8.9072166663511432e-05  8.9150356899128373e-05  8.9209980203257787e-05  8.9249889556880535e-05  8.9270964875704214e-05  8.9276398320604965e-05  8.9271611767706785e-05  8.9262893522995245e-05  8.9255042745959304e-05  8.9249479868750651e-05  8.9240498547307312e-05  8.9223415941104946e-05  8.9202449010979931e-05  8.9189191911191829e-05  8.9185967864722837e-05  8.9177264534303889e-05  8.9144957781848284e-05  8.9093613850313295e-05  8.9044820788912514e-05  8.9009848759121851e-05  8.8984354923254429e-05  8.8955772757126264e-05  8.8910419366880334e-05  8.8840703499388433e-05  8.8752011319329419e-05  8.8668853636784983e-05  8.8622860098119306e-05  8.8624512646319638e-05  8.8651827030187053e-05  8.8668332250758941e-05  8.8652197090541984e-05  8.8622881640627196e-05  2.6572585055556052e-04  8.8614584150832376e-05  4.4306491346489210e-05  4.4313784793860412e-05  4.4339239805234179e-05  4.4395129565996086e-05  4.4483092799797307e-05  4.4592147441845391e-05  4.4706465643480373e-05  4.4813023791684564e-05  4.4903793836772162e-05  4.4974468515497577e-05  4.5023124483456555e-05  4.5049919885136910e-05  4.5057689352377860e-05  4.5052216168848231e-05  4.5041016633456017e-05  4.5031557167723494e-05  4.5026496775882772e-05  4.5019572855542933e-05  4.5001449817277147e-05  4.4973987011775897e-05  4.4953755771276685e-05  4.4949901004394987e-05  4.4960156678123651e-05  4.4933053409523161e-05  4.4874363069086003e-05  4.4818508250421997e-05  4.4783069164889082e-05  4.4763476287715185e-05  4.4743547048315882e-05  4.4704934143376250e-05  4.4635047884831302e-05  4.4533851038255853e-05  4.4426699964107663e-05  4.4349461450312401e-05  4.4330080155534802e-05  4.4351658904209917e-05  4.4376731055399149e-05  4.4371401999079721e-05  4.4337797373679941e-05  8.8624560619038074e-05  8.8613619199191771e-05  4.4307980796935646e-05  4.4324798892022466e-05  4.4369847215232629e-05  4.4452884978768470e-05  4.4566844633622239e-05  4.4695247986603940e-05  4.4822095944726853e-05  4.4937129229138736e-05  4.5034583516183820e-05  4.5110519270822935e-05  4.5161761688207932e-05  4.5186820880976628e-05  4.5187746624205603e-05  4.5171502022902969e-05  4.5149185632593272e-05  4.5134883318186389e-05  4.5133489929533517e-05  4.5147303990212058e-05  4.5130882812872938e-05  4.5082392447325444e-05  4.5049449917190122e-05  4.5078000610990646e-05  4.5202241045094358e-05  4.5225779013083914e-05  4.5277044578534840e-05  4.5510361643834077e-05  4.6009728041880552e-05  4.6740962062949843e-05  4.7568168172285684e-05  4.8237852503645990e-05  4.8432831028574399e-05  4.7902518647107639e-05  4.6734111299747606e-05  4.5393612263834959e-05  4.4615775565823266e-05  4.4409781389024368e-05  4.4447623294842622e-05  4.4501990056433470e-05  4.4462929289662835e-05  8.8702720208221449e-05  8.8627648652150510e-05  4.4323832231747433e-05  4.4372235294391374e-05  4.4473281708719211e-05  4.4605209317361482e-05  4.4738343846579564e-05  4.4857480521335742e-05  4.4960801879287055e-05  4.5051552208470193e-05  4.5131154021749597e-05  4.5195671988173077e-05  4.5238073547204645e-05  4.5253675793033704e-05  4.5239669189131766e-05  4.5203899065276160e-05  4.5163844512344050e-05  4.5144346673470109e-05  4.5168571756554237e-05  4.5294152923351422e-05  4.5334143638605340e-05  4.5365335214612507e-05  4.5628447023334762e-05  4.6534740108351157e-05  4.8965554135062065e-05  5.1475752786964875e-05  5.4420455581301658e-05  6.0737202623737861e-05  7.2195531514664186e-05  9.4162088170935326e-05  1.3944867445258007e-04  2.4226814830457407e-04  4.3540059603786605e-04  3.9982476297513344e-04  1.9418613240969801e-04  1.0124604246697865e-04  6.8511013378517012e-05  5.3196584752545048e-05  4.5551694674289004e-05  4.4868582235311963e-05  4.5019352275626689e-05  8.9039917778757451e-05  8.8893186910196783e-05  4.4615935987004271e-05  4.4852977686253005e-05  4.5776402291628480e-05  4.6523507263868647e-05  4.6650619440297967e-05  4.6352180499403977e-05  4.5978895579759901e-05  4.5710870936896591e-05  4.5571471437937524e-05  4.5515432730360050e-05  4.5498440641545120e-05  4.5493587881530125e-05  4.5477124804962329e-05  4.5475981450139503e-05  4.5551213770926773e-05  4.5804804321732004e-05  4.6484720276963592e-05  4.8535055481194504e-05  5.1079390118552985e-05  5.3994669148621128e-05  6.0389737690805252e-05  7.5912428087896431e-05  1.3280677782615574e-04  1.3535278037031449e-02  1.4823668979267121e-01  2.9681424473267348e-01  4.6640016311949661e-01  6.3211108187839027e-01  7.8142987064056268e-01  8.9952521187773093e-01  9.7131694680159242e-01  9.8214804121063359e-01  9.2168779449661642e-01  7.6985862946863304e-01  5.3528338977391332e-01  2.0961691813221547e-01  1.9325785813005466e-04  5.2611602438314134e-05  4.6433582544326404e-05  9.0399997573148205e-05  1.0170007610865782e-04  4.7315835113039800e-05  5.2573935423721439e-05  6.8084007286699273e-05  9.2494120246611820e-05  1.0387624810674216e-04  9.2288502692944394e-05  7.6460008212536076e-05  6.5232941213091896e-05  5.8421809658856604e-05  5.4538545818413076e-05  5.2586475052138476e-05  5.2011524608646401e-05  5.2381746900961922e-05  5.3819578083991572e-05  5.6911970554148969e-05  6.2754983898770863e-05  7.5347120319083468e-05  1.1557720054083056e-04  7.7522580856324364e-04  1.1563994915763953e-01  2.8068315848731673e-01  4.8743972193523266e-01  7.1792894739435786e-01  9.9509822323845520e-01  9.9982716015284145e-01  9.9991367462658676e-01  9.9994169756891060e-01  9.9995513605663444e-01  9.9996290845717806e-01  9.9996766857314356e-01  9.9997049736629240e-01  9.9997180696585330e-01  9.9997156756531580e-01  9.9996920046234261e-01  9.9996225506002800e-01  9.9993775896820059e-01  9.9962089670136745e-01  2.4168877520234167e-01  5.7183542019958218e-05  1.0721834341086398e-04  1.1313626642126704e-04  1.9508530532047215e-04  3.5415094451468898e-01  5.8191622523167197e-01  6.8081900467898659e-01  6.6796409745744978e-01  5.7813031635955625e-01  4.4920056581604889e-01  3.1429685515859657e-01  1.9730470971268652e-01  1.1097056265460033e-01  6.1271064346915982e-02  4.4455380679627787e-02  5.7155382785528980e-02  1.0234353299398997e-01  1.8446683560257868e-01  3.0472900272803471e-01  4.6495669539725487e-01  6.5876506351705610e-01  9.1629671225409737e-01  9.9975382088838050e-01  9.9990237372253432e-01  9.9994063881363682e-01  9.9995758158188064e-01  9.9996679215804707e-01  9.9997343476808886e-01  9.9997849180566589e-01  9.9998193511666256e-01  9.9998442247131747e-01  9.9998628628150188e-01  9.9998769897462192e-01  9.9998875905006279e-01  9.9998952302969946e-01  9.9999001601337478e-01  9.9999021435345747e-01  9.9998997967251435e-01  9.9998886360024597e-01  9.9998528735540837e-01  9.9997242034189604e-01  7.5462952719631471e-01  1.0553561916596112e-04  9.9992997936575900e-01  9.9995672881923137e-01  9.9996946169164458e-01  9.9996847726155946e-01  9.9996402703034748e-01  9.9995651684979869e-01  9.9994436078346749e-01  9.9992360796845392e-01  9.9988448992729240e-01  9.9979675841473881e-01  9.9952491149352540e-01  9.9766676594682280e-01  9.8948132153203294e-01  9.9861051953901192e-01  9.9963079674569510e-01  9.9982914276978119e-01  9.9990022724246530e-01  9.9993348167920537e-01  9.9995181146564704e-01  9.9996262598150942e-01  9.9997036410234286e-01  9.9997642963659061e-01  9.9998081227979529e-01  9.9998397430671115e-01  9.9998633005131254e-01  9.9998811441375512e-01  9.9998949473113607e-01  9.9999059501772292e-01  9.9999150347217802e-01  9.9999227585339578e-01  9.9999294701460761e-01  9.9999354037432442e-01  9.9999407364635751e-01  9.9999456034916390e-01  9.9999500565806265e-01  9.9999539833511175e-01  9.9999570101846846e-01  9.9999583183380503e-01  9.9999558533486088e-01  9.9999439308992966e-01  9.9997127411680831e-01  9.9998978468188282e-01  9.9999319114283880e-01  9.9999177452613608e-01  9.9998987634651915e-01  9.9998763798162649e-01  9.9998499866070489e-01  9.9998181722126922e-01  9.9997794376733973e-01  9.9997334937493676e-01  9.9996831345609527e-01  9.9996362463916733e-01  9.9996052722106232e-01  9.9996010916022560e-01  9.9996227801581661e-01  9.9996615760285978e-01  9.9997072440951928e-01  9.9997512090447682e-01  9.9997897224960164e-01  9.9998218103795933e-01  9.9998477403099106e-01  9.9998683297036695e-01  9.9998846652297824e-01  9.9998978018531504e-01  9.9999085604991389e-01  9.9999174872588659e-01  9.9999249611126839e-01  9.9999313008881641e-01  9.9999367990063970e-01  9.9999417143073588e-01  9.9999462513800397e-01  9.9999505667193755e-01  9.9999547826938917e-01  9.9999589998055449e-01  9.9999632921028547e-01  9.9999676840071583e-01  9.9999721209894543e-01  9.9999764531857471e-01  9.9999804441795725e-01  9.9999837798052837e-01  9.9999860669547347e-01  9.9999669362780796e-01  9.9999451688482821e-01  9.9999670140117580e-01  9.9999575132319007e-01  9.9999443153159751e-01  9.9999289630917576e-01  9.9999122975540955e-01  9.9998947229527813e-01  9.9998766030483244e-01  9.9998588429238244e-01  9.9998431629945039e-01  9.9998318331723957e-01  9.9998267914591565e-01  9.9998286358713318e-01  9.9998363232249210e-01  9.9998478131538970e-01  9.9998610166059765e-01  9.9998743692326497e-01  9.9998869375528832e-01  9.9998982625268573e-01  9.9999081752620189e-01  9.9999166882402490e-01  9.9999239365896253e-01  9.9999301193892232e-01  9.9999354403784835e-01  9.9999400688727580e-01  9.9999441442092940e-01  9.9999477935561953e-01  9.9999511440262989e-01  9.9999543211642028e-01  9.9999574414917003e-01  9.9999606083142800e-01  9.9999639106252192e-01  9.9999674196688337e-01  9.9999711760993182e-01  9.9999751673814463e-01  9.9999793006845150e-01  9.9999833882111167e-01  9.9999871562790421e-01  9.9999902764058135e-01  9.9999923955815817e-01  9.9999851995897682e-01  9.9999519620059141e-01  9.9999733849042782e-01  9.9999661687420294e-01  9.9999559164170526e-01  9.9999439264752321e-01  9.9999312323921319e-01  9.9999185465187057e-01  9.9999065270374687e-01  9.9998960743757215e-01  9.9998882961454005e-01  9.9998841364068181e-01  9.9998839168248166e-01  9.9998871685739732e-01  9.9998928799194120e-01  9.9998999274792721e-01  9.9999073946185568e-01  9.9999146770485825e-01  9.9999214436763173e-01  9.9999275475916927e-01  9.9999329494298062e-01  9.9999376720862032e-01  9.9999417783865985e-01  9.9999453549941353e-01  9.9999484956495355e-01  9.9999512891823483e-01  9.9999538175209357e-01  9.9999561603332843e-01  9.9999584000192376e-01  9.9999606223916548e-01  9.9999629141159774e-01  9.9999653590030058e-01  9.9999680333450169e-01  9.9999709975081452e-01  9.9999742806673064e-01  9.9999778581393506e-01  9.9999816255932927e-01  9.9999853856013732e-01  9.9999888505851919e-01  9.9999916899678054e-01  9.9999936065602180e-01  9.9999884968943664e-01  9.9999378396042526e-01  9.9999688340000992e-01  9.9999624000168286e-01  9.9999535121582550e-01  9.9999435016885863e-01  9.9999332213116388e-01  9.9999233198865423e-01  9.9999145555729851e-01  9.9999078730809221e-01  9.9999041256310495e-01  9.9999036514222484e-01  9.9999060850676813e-01  9.9999105672453115e-01  9.9999161353852561e-01  9.9999220106168618e-01  9.9999276902787604e-01  9.9999329114285762e-01  9.9999375726771444e-01  9.9999416638553085e-01  9.9999452191830718e-01  9.9999482925601690e-01  9.9999509469719272e-01  9.9999532494435772e-01  9.9999552671751868e-01  9.9999570649766223e-01  9.9999587053371697e-01  9.9999602509366303e-01  9.9999617674632180e-01  9.9999633249158737e-01  9.9999649969367066e-01  9.9999668582829582e-01  9.9999689799889202e-01  9.9999714206878065e-01  9.9999742123548341e-01  9.9999773402908809e-01  9.9999807216937331e-01  9.9999841906216413e-01  9.9999874911513642e-01  9.9999903201539131e-01  9.9999923279038894e-01  9.9999869895616522e-01  9.9998533410610024e-01  9.9999425783798068e-01  9.9999399633165476e-01  9.9999349647578295e-01  9.9999286141775612e-01  9.9999216260523804e-01  9.9999147817547451e-01  9.9999092189542194e-01  9.9999061746081286e-01  9.9999063511628516e-01  9.9999095088902135e-01  9.9999146931757588e-01  9.9999207978135896e-01  9.9999269678758662e-01  9.9999327017166406e-01  9.9999377793036859e-01  9.9999421534078459e-01  9.9999458640601646e-01  9.9999489859489599e-01  9.9999516011711109e-01  9.9999537879096345e-01  9.9999556175289162e-01  9.9999571549825417e-01  9.9999584599253322e-01  9.9999595879763048e-01  9.9999605924903601e-01  9.9999615269118924e-01  9.9999624470877124e-01  9.9999634127524428e-01  9.9999644876186633e-01  9.9999657376472650e-01  9.9999672269281115e-01  9.9999690100676930e-01  9.9999711199464036e-01  9.9999735512759869e-01  9.9999762422528071e-01  9.9999790576077918e-01  9.9999817874320207e-01  9.9999841675817092e-01  9.9999857283077087e-01  9.9999768320405991e-01  9.9948112383537102e-01  9.9997322599566596e-01  9.9998351429711729e-01  9.9998719745496423e-01  9.9998847839258387e-01  9.9998883890165180e-01  9.9998885100084467e-01  9.9998889469339469e-01  9.9998921486436954e-01  9.9998985685829389e-01  9.9999070377008370e-01  9.9999160041589308e-01  9.9999243779680225e-01  9.9999316583983500e-01  9.9999377400159939e-01  9.9999427102355476e-01  9.9999467240954165e-01  9.9999499432861438e-01  9.9999525119725585e-01  9.9999545505000198e-01  9.9999561568549111e-01  9.9999574108611344e-01  9.9999583786945312e-01  9.9999591167644908e-01  9.9999596748577380e-01  9.9999600988062598e-01  9.9999604328695246e-01  9.9999607216541397e-01  9.9999610112657300e-01  9.9999613489875938e-01  9.9999617808515873e-01  9.9999623463554754e-01  9.9999630681683283e-01  9.9999639349459835e-01  9.9999648737711544e-01  9.9999657012921894e-01  9.9999660300718807e-01  9.9999650372358828e-01  9.9999606302874167e-01  9.9999484567687236e-01  9.9998972907445360e-01  9.9993955562563338e-05  1.4565210184586563e-01  9.9980707104335964e-01  9.9995364487732974e-01  9.9997342171838155e-01  9.9997961079003383e-01  9.9998225797046425e-01  9.9998413049184964e-01  9.9998605717268185e-01  9.9998801966166206e-01  9.9998978982153119e-01  9.9999124785375715e-01  9.9999239189094979e-01  9.9999327047040398e-01  9.9999393996601627e-01  9.9999444892278522e-01  9.9999483508202347e-01  9.9999512665396173e-01  9.9999534445438154e-01  9.9999550384200575e-01  9.9999561623702771e-01  9.9999569024643498e-01  9.9999573247500662e-01  9.9999574810033065e-01  9.9999574127680624e-01  9.9999571542117538e-01  9.9999567337795414e-01  9.9999561747555765e-01  9.9999554945338498e-01  9.9999547006362688e-01  9.9999537822450613e-01  9.9999526939543737e-01  9.9999513239155435e-01  9.9999494308474557e-01  9.9999465072637950e-01  9.9999414392492758e-01  9.9999314978666087e-01  9.9999087891552818e-01  9.9998451552583467e-01  9.9992510906657439e-01  8.9566367738860538e-04  9.0676352985970962e-05  5.3341052424508863e-05  1.2853207875085274e-01  7.0937548022030217e-01  9.9983754745734044e-01  9.9993685197346838e-01  9.9996002252886695e-01  9.9997188467822373e-01  9.9997968189260678e-01  9.9998490124009887e-01  9.9998831614519190e-01  9.9999056669114794e-01  9.9999208418107344e-01  9.9999313270309420e-01  9.9999387142406004e-01  9.9999439787221012e-01  9.9999477345352561e-01  9.9999503796226452e-01  9.9999521787759937e-01  9.9999533121286066e-01  9.9999539042045704e-01  9.9999540417229482e-01  9.9999537845435160e-01  9.9999531721586510e-01  9.9999522275401520e-01  9.9999509588369451e-01  9.9999493577085086e-01  9.9999473950491768e-01  9.9999450120278555e-01  9.9999421025669988e-01  9.9999384767035937e-01  9.9999337889814988e-01  9.9999273958632573e-01  9.9999179978018715e-01  9.9999027053261125e-01  9.9998740611906223e-01  9.9998172574154887e-01  9.9996331886644740e-01  9.4405353879735410e-01  8.7048963767723882e-05  9.4633112824628207e-05  8.8765383310396480e-05  4.4547363139168874e-05  5.3617185098999108e-05  4.8892239439646034e-03  4.0304753271617816e-01  7.9438472439874330e-01  9.9964560228250421e-01  9.9992480497345215e-01  9.9996745542000742e-01  9.9998067784718647e-01  9.9998658736352031e-01  9.9998974790244055e-01  9.9999162886804127e-01  9.9999282521737121e-01  9.9999361645637241e-01  9.9999414834561096e-01  9.9999450295910131e-01  9.9999472920781063e-01  9.9999485742646210e-01  9.9999490684912795e-01  9.9999488962838690e-01  9.9999481308506044e-01  9.9999468086099241e-01  9.9999449335326429e-01  9.9999424775002876e-01  9.9999393761498567e-01  9.9999355160634396e-01  9.9999307086072575e-01  9.9999246418011389e-01  9.9999168087078139e-01  9.9999063074664141e-01  9.9998914187061327e-01  9.9998686225197930e-01  9.9998294874527449e-01  9.9997605490995845e-01  9.9996092846300833e-01  9.9987087646383577e-01  4.7231079755233080e-01  1.0042445702471278e-04  4.7215313793896196e-05  9.3013829148220906e-05  8.8776890189929181e-05  4.4451905720918185e-05  4.4701566173542766e-05  5.0826721618350785e-05  1.3670810520987768e-04  1.3696342556774355e-01  4.6967037170684617e-01  9.9964964276042401e-01  9.9995238537796083e-01  9.9997727440024653e-01  9.9998529551024817e-01  9.9998905452360642e-01  9.9999113641393789e-01  9.9999239534704754e-01  9.9999318927744030e-01  9.9999369155323481e-01  9.9999399446794834e-01  9.9999415019073445e-01  9.9999418902515691e-01  9.9999412814669664e-01  9.9999397597816753e-01  9.9999373434005367e-01  9.9999339904641460e-01  9.9999295912487840e-01  9.9999239458485467e-01  9.9999167327851601e-01  9.9999074468769600e-01  9.9998952343471292e-01  9.9998785718030136e-01  9.9998547026280094e-01  9.9998179419129474e-01  9.9997577700380058e-01  9.9996597072497218e-01  9.9994397105065935e-01  9.9979691357026534e-01  6.1628735398767609e-01  9.8280021779401067e-02  7.2716225726784093e-05  4.8250611482272661e-05  4.5081930602211147e-05  8.9419204101683395e-05  8.8938368914732172e-05  4.4652329067996876e-05  4.4937870162495587e-05  4.6990104241179703e-05  6.5799829581214932e-05  5.2203768440785975e-02  5.8259757719284944e-01  9.9982218732006989e-01  9.9995552444643310e-01  9.9997764899389741e-01  9.9998514545488382e-01  9.9998871480869389e-01  9.9999068963295579e-01  9.9999186266296713e-01  9.9999256997306474e-01  9.9999297407927012e-01  9.9999315964699942e-01  9.9999317158651979e-01  9.9999303189310917e-01  9.9999274708049735e-01  9.9999231110234532e-01  9.9999170481797306e-01  9.9999089406216657e-01  9.9998982122103319e-01  9.9998838671620172e-01  9.9998642030194873e-01  9.9998362354884551e-01  9.9997940765303694e-01  9.9997290987207732e-01  9.9996312113093400e-01  9.9994381395080345e-01  9.9987254787986757e-01  8.9482370823986424e-01  4.4421441645087612e-01  9.3830660483207040e-02  9.0517809966174563e-05  5.4221799274917486e-05  4.7767187581979584e-05  4.5019106362464582e-05  4.4466693909543843e-05  8.8681991618767161e-05  8.9157167652706388e-05  4.4937418552717313e-05  4.5444114117010492e-05  5.1573371150569245e-05  1.2017724163491696e-04  3.8842420181220211e-01  9.9971070258431316e-01  9.9993843231959922e-01  9.9996986730782011e-01  9.9998103223376211e-01  9.9998606157116132e-01  9.9998874864852250e-01  9.9999029829202801e-01  9.9999120172228295e-01  9.9999168739786182e-01  9.9999186814946639e-01  9.9999179749777634e-01  9.9999149331331461e-01  9.9999094662304955e-01  9.9999012272991405e-01  9.9998895343218663e-01  9.9998731482143477e-01  9.9998499627344906e-01  9.9998161117648443e-01  9.9997636968388282e-01  9.9996869439820790e-01  9.9995696939641388e-01  9.9993126049177661e-01  9.9982880861672285e-01  8.6712828686882326e-01  4.8485292743735542e-01  2.0017530640182071e-01  3.5780315492039933e-04  7.1185027173988053e-05  5.4011760344495293e-05  4.8864493251979095e-05  4.5718899565372718e-05  4.4960467668834217e-05  4.4681461337237009e-05  4.4455413572852987e-05  8.8674001664725878e-05  8.9390999779248847e-05  4.5282321271935736e-05  4.7589728787470254e-05  6.6048465298581893e-05  1.4061445335570377e-01  9.7481551596958660e-01  9.9993180129031223e-01  9.9996773015154328e-01  9.999793966