<?xml version="1.0"?>
<VTKFile type="UnstructuredGrid"  version="0.1"  >
<UnstructuredGrid>
<Piece  NumberOfPoints="1681" NumberOfCells="3200">
<Points>
<DataArray  type="Float64"  NumberOfComponents="3"  format="ascii">0 0 0  0.025 0 0  0.05 0 0  0.075 0 0  0.1 0 0  0.125 0 0  0.15 0 0  0.175 0 0  0.2 0 0  0.225 0 0  0.25 0 0  0.275 0 0  0.3 0 0  0.325 0 0  0.35 0 0  0.375 0 0  0.4 0 0  0.425 0 0  0.45 0 0  0.475 0 0  0.5 0 0  0.525 0 0  0.55 0 0  0.575 0 0  0.6 0 0  0.625 0 0  0.65 0 0  0.675 0 0  0.7 0 0  0.725 0 0  0.75 0 0  0.775 0 0  0.8 0 0  0.825 0 0  0.85 0 0  0.875 0 0  0.9 0 0  0.925 0 0  0.95 0 0  0.975 0 0  1 0 0  0 0.025 0  0.025 0.025 0  0.05 0.025 0  0.075 0.025 0  0.1 0.025 0  0.125 0.025 0  0.15 0.025 0  0.175 0.025 0  0.2 0.025 0  0.225 0.025 0  0.25 0.025 0  0.275 0.025 0  0.3 0.025 0  0.325 0.025 0  0.35 0.025 0  0.375 0.025 0  0.4 0.025 0  0.425 0.025 0  0.45 0.025 0  0.475 0.025 0  0.5 0.025 0  0.525 0.025 0  0.55 0.025 0  0.575 0.025 0  0.6 0.025 0  0.625 0.025 0  0.65 0.025 0  0.675 0.025 0  0.7 0.025 0  0.725 0.025 0  0.75 0.025 0  0.775 0.025 0  0.8 0.025 0  0.825 0.025 0  0.85 0.025 0  0.875 0.025 0  0.9 0.025 0  0.925 0.025 0  0.95 0.025 0  0.975 0.025 0  1 0.025 0  0 0.05 0  0.025 0.05 0  0.05 0.05 0  0.075 0.05 0  0.1 0.05 0  0.125 0.05 0  0.15 0.05 0  0.175 0.05 0  0.2 0.05 0  0.225 0.05 0  0.25 0.05 0  0.275 0.05 0  0.3 0.05 0  0.325 0.05 0  0.35 0.05 0  0.375 0.05 0  0.4 0.05 0  0.425 0.05 0  0.45 0.05 0  0.475 0.05 0  0.5 0.05 0  0.525 0.05 0  0.55 0.05 0  0.575 0.05 0  0.6 0.05 0  0.625 0.05 0  0.65 0.05 0  0.675 0.05 0  0.7 0.05 0  0.725 0.05 0  0.75 0.05 0  0.775 0.05 0  0.8 0.05 0  0.825 0.05 0  0.85 0.05 0  0.875 0.05 0  0.9 0.05 0  0.925 0.05 0  0.95 0.05 0  0.975 0.05 0  1 0.05 0  0 0.075 0  0.025 0.075 0  0.05 0.075 0  0.075 0.075 0  0.1 0.075 0  0.125 0.075 0  0.15 0.075 0  0.175 0.075 0  0.2 0.075 0  0.225 0.075 0  0.25 0.075 0  0.275 0.075 0  0.3 0.075 0  0.325 0.075 0  0.35 0.075 0  0.375 0.075 0  0.4 0.075 0  0.425 0.075 0  0.45 0.075 0  0.475 0.075 0  0.5 0.075 0  0.525 0.075 0  0.55 0.075 0  0.575 0.075 0  0.6 0.075 0  0.625 0.075 0  0.65 0.075 0  0.675 0.075 0  0.7 0.075 0  0.725 0.075 0  0.75 0.075 0  0.775 0.075 0  0.8 0.075 0  0.825 0.075 0  0.85 0.075 0  0.875 0.075 0  0.9 0.075 0  0.925 0.075 0  0.95 0.075 0  0.975 0.075 0  1 0.075 0  0 0.1 0  0.025 0.1 0  0.05 0.1 0  0.075 0.1 0  0.1 0.1 0  0.125 0.1 0  0.15 0.1 0  0.175 0.1 0  0.2 0.1 0  0.225 0.1 0  0.25 0.1 0  0.275 0.1 0  0.3 0.1 0  0.325 0.1 0  0.35 0.1 0  0.375 0.1 0  0.4 0.1 0  0.425 0.1 0  0.45 0.1 0  0.475 0.1 0  0.5 0.1 0  0.525 0.1 0  0.55 0.1 0  0.575 0.1 0  0.6 0.1 0  0.625 0.1 0  0.65 0.1 0  0.675 0.1 0  0.7 0.1 0  0.725 0.1 0  0.75 0.1 0  0.775 0.1 0  0.8 0.1 0  0.825 0.1 0  0.85 0.1 0  0.875 0.1 0  0.9 0.1 0  0.925 0.1 0  0.95 0.1 0  0.975 0.1 0  1 0.1 0  0 0.125 0  0.025 0.125 0  0.05 0.125 0  0.075 0.125 0  0.1 0.125 0  0.125 0.125 0  0.15 0.125 0  0.175 0.125 0  0.2 0.125 0  0.225 0.125 0  0.25 0.125 0  0.275 0.125 0  0.3 0.125 0  0.325 0.125 0  0.35 0.125 0  0.375 0.125 0  0.4 0.125 0  0.425 0.125 0  0.45 0.125 0  0.475 0.125 0  0.5 0.125 0  0.525 0.125 0  0.55 0.125 0  0.575 0.125 0  0.6 0.125 0  0.625 0.125 0  0.65 0.125 0  0.675 0.125 0  0.7 0.125 0  0.725 0.125 0  0.75 0.125 0  0.775 0.125 0  0.8 0.125 0  0.825 0.125 0  0.85 0.125 0  0.875 0.125 0  0.9 0.125 0  0.925 0.125 0  0.95 0.125 0  0.975 0.125 0  1 0.125 0  0 0.15 0  0.025 0.15 0  0.05 0.15 0  0.075 0.15 0  0.1 0.15 0  0.125 0.15 0  0.15 0.15 0  0.175 0.15 0  0.2 0.15 0  0.225 0.15 0  0.25 0.15 0  0.275 0.15 0  0.3 0.15 0  0.325 0.15 0  0.35 0.15 0  0.375 0.15 0  0.4 0.15 0  0.425 0.15 0  0.45 0.15 0  0.475 0.15 0  0.5 0.15 0  0.525 0.15 0  0.55 0.15 0  0.575 0.15 0  0.6 0.15 0  0.625 0.15 0  0.65 0.15 0  0.675 0.15 0  0.7 0.15 0  0.725 0.15 0  0.75 0.15 0  0.775 0.15 0  0.8 0.15 0  0.825 0.15 0  0.85 0.15 0  0.875 0.15 0  0.9 0.15 0  0.925 0.15 0  0.95 0.15 0  0.975 0.15 0  1 0.15 0  0 0.175 0  0.025 0.175 0  0.05 0.175 0  0.075 0.175 0  0.1 0.175 0  0.125 0.175 0  0.15 0.175 0  0.175 0.175 0  0.2 0.175 0  0.225 0.175 0  0.25 0.175 0  0.275 0.175 0  0.3 0.175 0  0.325 0.175 0  0.35 0.175 0  0.375 0.175 0  0.4 0.175 0  0.425 0.175 0  0.45 0.175 0  0.475 0.175 0  0.5 0.175 0  0.525 0.175 0  0.55 0.175 0  0.575 0.175 0  0.6 0.175 0  0.625 0.175 0  0.65 0.175 0  0.675 0.175 0  0.7 0.175 0  0.725 0.175 0  0.75 0.175 0  0.775 0.175 0  0.8 0.175 0  0.825 0.175 0  0.85 0.175 0  0.875 0.175 0  0.9 0.175 0  0.925 0.175 0  0.95 0.175 0  0.975 0.175 0  1 0.175 0  0 0.2 0  0.025 0.2 0  0.05 0.2 0  0.075 0.2 0  0.1 0.2 0  0.125 0.2 0  0.15 0.2 0  0.175 0.2 0  0.2 0.2 0  0.225 0.2 0  0.25 0.2 0  0.275 0.2 0  0.3 0.2 0  0.325 0.2 0  0.35 0.2 0  0.375 0.2 0  0.4 0.2 0  0.425 0.2 0  0.45 0.2 0  0.475 0.2 0  0.5 0.2 0  0.525 0.2 0  0.55 0.2 0  0.575 0.2 0  0.6 0.2 0  0.625 0.2 0  0.65 0.2 0  0.675 0.2 0  0.7 0.2 0  0.725 0.2 0  0.75 0.2 0  0.775 0.2 0  0.8 0.2 0  0.825 0.2 0  0.85 0.2 0  0.875 0.2 0  0.9 0.2 0  0.925 0.2 0  0.95 0.2 0  0.975 0.2 0  1 0.2 0  0 0.225 0  0.025 0.225 0  0.05 0.225 0  0.075 0.225 0  0.1 0.225 0  0.125 0.225 0  0.15 0.225 0  0.175 0.225 0  0.2 0.225 0  0.225 0.225 0  0.25 0.225 0  0.275 0.225 0  0.3 0.225 0  0.325 0.225 0  0.35 0.225 0  0.375 0.225 0  0.4 0.225 0  0.425 0.225 0  0.45 0.225 0  0.475 0.225 0  0.5 0.225 0  0.525 0.225 0  0.55 0.225 0  0.575 0.225 0  0.6 0.225 0  0.625 0.225 0  0.65 0.225 0  0.675 0.225 0  0.7 0.225 0  0.725 0.225 0  0.75 0.225 0  0.775 0.225 0  0.8 0.225 0  0.825 0.225 0  0.85 0.225 0  0.875 0.225 0  0.9 0.225 0  0.925 0.225 0  0.95 0.225 0  0.975 0.225 0  1 0.225 0  0 0.25 0  0.025 0.25 0  0.05 0.25 0  0.075 0.25 0  0.1 0.25 0  0.125 0.25 0  0.15 0.25 0  0.175 0.25 0  0.2 0.25 0  0.225 0.25 0  0.25 0.25 0  0.275 0.25 0  0.3 0.25 0  0.325 0.25 0  0.35 0.25 0  0.375 0.25 0  0.4 0.25 0  0.425 0.25 0  0.45 0.25 0  0.475 0.25 0  0.5 0.25 0  0.525 0.25 0  0.55 0.25 0  0.575 0.25 0  0.6 0.25 0  0.625 0.25 0  0.65 0.25 0  0.675 0.25 0  0.7 0.25 0  0.725 0.25 0  0.75 0.25 0  0.775 0.25 0  0.8 0.25 0  0.825 0.25 0  0.85 0.25 0  0.875 0.25 0  0.9 0.25 0  0.925 0.25 0  0.95 0.25 0  0.975 0.25 0  1 0.25 0  0 0.275 0  0.025 0.275 0  0.05 0.275 0  0.075 0.275 0  0.1 0.275 0  0.125 0.275 0  0.15 0.275 0  0.175 0.275 0  0.2 0.275 0  0.225 0.275 0  0.25 0.275 0  0.275 0.275 0  0.3 0.275 0  0.325 0.275 0  0.35 0.275 0  0.375 0.275 0  0.4 0.275 0  0.425 0.275 0  0.45 0.275 0  0.475 0.275 0  0.5 0.275 0  0.525 0.275 0  0.55 0.275 0  0.575 0.275 0  0.6 0.275 0  0.625 0.275 0  0.65 0.275 0  0.675 0.275 0  0.7 0.275 0  0.725 0.275 0  0.75 0.275 0  0.775 0.275 0  0.8 0.275 0  0.825 0.275 0  0.85 0.275 0  0.875 0.275 0  0.9 0.275 0  0.925 0.275 0  0.95 0.275 0  0.975 0.275 0  1 0.275 0  0 0.3 0  0.025 0.3 0  0.05 0.3 0  0.075 0.3 0  0.1 0.3 0  0.125 0.3 0  0.15 0.3 0  0.175 0.3 0  0.2 0.3 0  0.225 0.3 0  0.25 0.3 0  0.275 0.3 0  0.3 0.3 0  0.325 0.3 0  0.35 0.3 0  0.375 0.3 0  0.4 0.3 0  0.425 0.3 0  0.45 0.3 0  0.475 0.3 0  0.5 0.3 0  0.525 0.3 0  0.55 0.3 0  0.575 0.3 0  0.6 0.3 0  0.625 0.3 0  0.65 0.3 0  0.675 0.3 0  0.7 0.3 0  0.725 0.3 0  0.75 0.3 0  0.775 0.3 0  0.8 0.3 0  0.825 0.3 0  0.85 0.3 0  0.875 0.3 0  0.9 0.3 0  0.925 0.3 0  0.95 0.3 0  0.975 0.3 0  1 0.3 0  0 0.325 0  0.025 0.325 0  0.05 0.325 0  0.075 0.325 0  0.1 0.325 0  0.125 0.325 0  0.15 0.325 0  0.175 0.325 0  0.2 0.325 0  0.225 0.325 0  0.25 0.325 0  0.275 0.325 0  0.3 0.325 0  0.325 0.325 0  0.35 0.325 0  0.375 0.325 0  0.4 0.325 0  0.425 0.325 0  0.45 0.325 0  0.475 0.325 0  0.5 0.325 0  0.525 0.325 0  0.55 0.325 0  0.575 0.325 0  0.6 0.325 0  0.625 0.325 0  0.65 0.325 0  0.675 0.325 0  0.7 0.325 0  0.725 0.325 0  0.75 0.325 0  0.775 0.325 0  0.8 0.325 0  0.825 0.325 0  0.85 0.325 0  0.875 0.325 0  0.9 0.325 0  0.925 0.325 0  0.95 0.325 0  0.975 0.325 0  1 0.325 0  0 0.35 0  0.025 0.35 0  0.05 0.35 0  0.075 0.35 0  0.1 0.35 0  0.125 0.35 0  0.15 0.35 0  0.175 0.35 0  0.2 0.35 0  0.225 0.35 0  0.25 0.35 0  0.275 0.35 0  0.3 0.35 0  0.325 0.35 0  0.35 0.35 0  0.375 0.35 0  0.4 0.35 0  0.425 0.35 0  0.45 0.35 0  0.475 0.35 0  0.5 0.35 0  0.525 0.35 0  0.55 0.35 0  0.575 0.35 0  0.6 0.35 0  0.625 0.35 0  0.65 0.35 0  0.675 0.35 0  0.7 0.35 0  0.725 0.35 0  0.75 0.35 0  0.775 0.35 0  0.8 0.35 0  0.825 0.35 0  0.85 0.35 0  0.875 0.35 0  0.9 0.35 0  0.925 0.35 0  0.95 0.35 0  0.975 0.35 0  1 0.35 0  0 0.375 0  0.025 0.375 0  0.05 0.375 0  0.075 0.375 0  0.1 0.375 0  0.125 0.375 0  0.15 0.375 0  0.175 0.375 0  0.2 0.375 0  0.225 0.375 0  0.25 0.375 0  0.275 0.375 0  0.3 0.375 0  0.325 0.375 0  0.35 0.375 0  0.375 0.375 0  0.4 0.375 0  0.425 0.375 0  0.45 0.375 0  0.475 0.375 0  0.5 0.375 0  0.525 0.375 0  0.55 0.375 0  0.575 0.375 0  0.6 0.375 0  0.625 0.375 0  0.65 0.375 0  0.675 0.375 0  0.7 0.375 0  0.725 0.375 0  0.75 0.375 0  0.775 0.375 0  0.8 0.375 0  0.825 0.375 0  0.85 0.375 0  0.875 0.375 0  0.9 0.375 0  0.925 0.375 0  0.95 0.375 0  0.975 0.375 0  1 0.375 0  0 0.4 0  0.025 0.4 0  0.05 0.4 0  0.075 0.4 0  0.1 0.4 0  0.125 0.4 0  0.15 0.4 0  0.175 0.4 0  0.2 0.4 0  0.225 0.4 0  0.25 0.4 0  0.275 0.4 0  0.3 0.4 0  0.325 0.4 0  0.35 0.4 0  0.375 0.4 0  0.4 0.4 0  0.425 0.4 0  0.45 0.4 0  0.475 0.4 0  0.5 0.4 0  0.525 0.4 0  0.55 0.4 0  0.575 0.4 0  0.6 0.4 0  0.625 0.4 0  0.65 0.4 0  0.675 0.4 0  0.7 0.4 0  0.725 0.4 0  0.75 0.4 0  0.775 0.4 0  0.8 0.4 0  0.825 0.4 0  0.85 0.4 0  0.875 0.4 0  0.9 0.4 0  0.925 0.4 0  0.95 0.4 0  0.975 0.4 0  1 0.4 0  0 0.425 0  0.025 0.425 0  0.05 0.425 0  0.075 0.425 0  0.1 0.425 0  0.125 0.425 0  0.15 0.425 0  0.175 0.425 0  0.2 0.425 0  0.225 0.425 0  0.25 0.425 0  0.275 0.425 0  0.3 0.425 0  0.325 0.425 0  0.35 0.425 0  0.375 0.425 0  0.4 0.425 0  0.425 0.425 0  0.45 0.425 0  0.475 0.425 0  0.5 0.425 0  0.525 0.425 0  0.55 0.425 0  0.575 0.425 0  0.6 0.425 0  0.625 0.425 0  0.65 0.425 0  0.675 0.425 0  0.7 0.425 0  0.725 0.425 0  0.75 0.425 0  0.775 0.425 0  0.8 0.425 0  0.825 0.425 0  0.85 0.425 0  0.875 0.425 0  0.9 0.425 0  0.925 0.425 0  0.95 0.425 0  0.975 0.425 0  1 0.425 0  0 0.45 0  0.02
[...]
<PointData  Scalars="ControlVisualisation"> 
<DataArray  type="Float64"  Name="ControlVisualisation"  format="ascii">1.7865185111050880e-01  1.2682098686207777e-01  1.2688725079259433e-01  1.2705154204294153e-01  1.2731431724523273e-01  1.2764759008263682e-01  1.2800933525781902e-01  1.2836000081858495e-01  1.2867189854230035e-01  1.2893056424581018e-01  1.2913186931177636e-01  1.2927859376747047e-01  1.2937807132897436e-01  1.2943989675039463e-01  1.2947304035025259e-01  1.2948388945833722e-01  1.2947640432621871e-01  1.2945341346891528e-01  1.2941750578167580e-01  1.2937107947710622e-01  1.2931598325599147e-01  1.2925319500158181e-01  1.2918269425159692e-01  1.2910360269362176e-01  1.2901476259087186e-01  1.2891576357121251e-01  1.2880749306850248e-01  1.2869034574627086e-01  1.2856046823532816e-01  1.2840880910487210e-01  1.2822570262400071e-01  1.2800635011108316e-01  1.2775407781201822e-01  1.2748317893575906e-01  1.2722222292094801e-01  1.2701110972762111e-01  1.2687800921197215e-01  1.2682058122641451e-01  1.2680890088131841e-01  1.2681158413269999e-01  3.0278977638974830e-01  1.2681845946798437e-01  6.7489668365237981e-02  6.7692201797491108e-02  6.8116686781801897e-02  6.8776262463494539e-02  6.9611906481642311e-02  7.0530629805809764e-02  7.1443028320957488e-02  7.2281886872112053e-02  7.3005397821444357e-02  7.3592681421290773e-02  7.4038638891458439e-02  7.4352271866429329e-02  7.4553735940132232e-02  7.4665599235137908e-02  7.4704702922629596e-02  7.4681412891174831e-02  7.4603557595600958e-02  7.4479192749289963e-02  7.4316485292037132e-02  7.4122321665239785e-02  7.3901208471055482e-02  7.3654876073410550e-02  7.3382559677833401e-02  7.3082393194198986e-02  7.2754567219929386e-02  7.2404795732305280e-02  7.2042477239776623e-02  7.1669391340572597e-02  7.1268732529653545e-02  7.0814619472931328e-02  7.0293956914330796e-02  6.9713900744233559e-02  6.9101909282956786e-02  6.8511830223242517e-02  6.8015580125423511e-02  6.7671812770858389e-02  6.7493463186062738e-02  6.7433358920815756e-02  6.7424518098518210e-02  1.2681154802275707e-01  1.2685532681455128e-01  6.7662717050557347e-02  6.8155832136134312e-02  6.8999756053225517e-02  7.0252229794278767e-02  7.1792550745084879e-02  7.3447744660686376e-02  7.5063661692126055e-02  7.6526854913862297e-02  7.7769547667126557e-02  7.8762572804268724e-02  7.9502985645102220e-02  8.0010060640996084e-02  8.0321245834038074e-02  8.0477831576913517e-02  8.0512104664345566e-02  8.0447426437446651e-02  8.0304642497413675e-02  8.0104247837905124e-02  7.9863422260261996e-02  7.9592404989354132e-02  7.9292862440233258e-02  7.8958047885770988e-02  7.8573843555635153e-02  7.8121329475739812e-02  7.7583584599566296e-02  7.6957729898383426e-02  7.6262489257972854e-02  7.5520223176327492e-02  7.4723469587732072e-02  7.3848562075796959e-02  7.2895129269675077e-02  7.1871903123946451e-02  7.0799395205763602e-02  6.9742694310112707e-02  6.8791860369482413e-02  6.8074569251270256e-02  6.7651315355092265e-02  6.7472807438304763e-02  6.7424561644504277e-02  1.2680635245347727e-01  1.2691224836739559e-01  6.7996354833665770e-02  6.9025879554715452e-02  7.0517584351403470e-02  7.2533085027522037e-02  7.4868133641685500e-02  7.7281726354351696e-02  7.9587581668155036e-02  8.1665309700462096e-02  8.3474142373351948e-02  8.4992914140818290e-02  8.6078807057997489e-02  8.6505044658538546e-02  8.6184068495201493e-02  8.5237680167320792e-02  8.3916077927354865e-02  8.2501417275708547e-02  8.1224422521691236e-02  8.0226051796147960e-02  7.9568909136386881e-02  7.9268322486265086e-02  7.9318834414202039e-02  7.9709823871877916e-02  8.0428662843079479e-02  8.1442283172602672e-02  8.2651999588931629e-02  8.3864955346431597e-02  8.4837998498115491e-02  8.5293306734459562e-02  8.4897337246267371e-02  8.3620250454171222e-02  8.1871297772942470e-02  7.9841653411302796e-02  7.7469184898366655e-02  7.4770080531920399e-02  7.1938120734684793e-02  6.9645632051600820e-02  6.8219480043562680e-02  6.7633875878092095e-02  6.7464634682770558e-02  1.2680570060252580e-01  1.2692954997883016e-01  6.8551397790702892e-02  7.1554582728419761e-02  7.5981192198244674e-02  8.1624815365980180e-02  8.7783180626640700e-02  9.4240759744540492e-02  1.0064185648875254e-01  1.0565878875445178e-01  1.0790316107071163e-01  1.0673665304487898e-01  1.0299901939811734e-01  9.8693803875478145e-02  9.4929426203986006e-02  9.1473478837178088e-02  8.8246918383845338e-02  8.5609692197244111e-02  8.3815301753522004e-02  8.2880131672144544e-02  8.2734456822857988e-02  8.3333481378327856e-02  8.4688603418223957e-02  8.6867800699465189e-02  9.0005827227512158e-02  9.4344871074248729e-02  1.0025007693126915e-01  1.0790278409841104e-01  1.1643433096490527e-01  1.2467662978560398e-01  1.3482218781839761e-01  1.4933481166335688e-01  1.6323218661478386e-01  1.6868954720044388e-01  1.6246050772245774e-01  1.4251831332324938e-01  1.1531560858834106e-01  9.3981616313598457e-02  7.7239924628414988e-02  6.9013894722728841e-02  6.7815156806684110e-02  1.2690556265146188e-01  1.2816704027466677e-01  7.2800638054771494e-02  8.7957964384465834e-02  1.1525025343352310e-01  1.5474105555082188e-01  1.9565760522046219e-01  2.2537912129292320e-01  2.3804233240949099e-01  2.3902326456710696e-01  2.3445421461250737e-01  2.2558155035013247e-01  2.1319454797822870e-01  1.9887942951443482e-01  1.8443538534139770e-01  1.7177261819097572e-01  1.6232190952519512e-01  1.5685941732326183e-01  1.5592066072839947e-01  1.6007979050656324e-01  1.6996739601480071e-01  1.8617301570420197e-01  2.0912492519852138e-01  2.3900028254265962e-01  2.7568712178430460e-01  3.1877209002295165e-01  3.6752549692328029e-01  4.2100384061444523e-01  4.7855247482220803e-01  5.4017152108672817e-01  6.0493095868963154e-01  6.6890140953495292e-01  7.2676153242352859e-01  7.7221113396303542e-01  7.9764805366028146e-01  7.9618017295755372e-01  7.4045299063216519e-01  6.2371383238297995e-01  3.3187554646441592e-01  1.1611062434214128e-01  7.1394227342384070e-02  1.2947425605304230e-01  1.4307134659020440e-01  1.1921587964696032e-01  3.4387779369826232e-01  5.2764688388116943e-01  6.5308027184803874e-01  7.1394004983126469e-01  7.3944307339461646e-01  7.4714120938287554e-01  7.4329771819968415e-01  7.3033029510678393e-01  7.1080832019102858e-01  6.8676589607041250e-01  6.5978045077857506e-01  6.3279508933315265e-01  6.0974860910866158e-01  5.9427906703755706e-01  5.8907810442583342e-01  5.9565905348887427e-01  6.1411070143707391e-01  6.4295236320306937e-01  6.7932602419425292e-01  7.1959423474237494e-01  7.6017555484269117e-01  7.9827432708921886e-01  8.3222484987580470e-01  8.6142379412703640e-01  8.8601379408551784e-01  9.0648667572937536e-01  9.2333709350151216e-01  9.3691276421912295e-01  9.4747644039822154e-01  9.5528047924680792e-01  9.6057330689010434e-01  9.6361623879830138e-01  9.6476699202673710e-01  9.6426583519637288e-01  9.6088356465865898e-01  9.4857089300115294e-01  9.2581559351565701e-01  2.7559018842179206e-01  1.3614486192665265e-01  7.9214512084242839e-01  8.8493187995475664e-01  9.2814729053989453e-01  9.3854140045140366e-01  9.4046115965344301e-01  9.3947322526310173e-01  9.3728560206975320e-01  9.3388921188435292e-01  9.2915496796965658e-01  9.2297982929975120e-01  9.1534061317804338e-01  9.0630450081244018e-01  8.9627971969396791e-01  8.8625130814631148e-01  8.7770181581887174e-01  8.7225853514296148e-01  8.7118954635273915e-01  8.7493634241705720e-01  8.8292959476045341e-01  8.9382458157188316e-01  9.0602257636827122e-01  9.1816632809833965e-01  9.2938338910511153e-01  9.3927300644395961e-01  9.4776557491849489e-01  9.5497296554166811e-01  9.6107882030294589e-01  9.6626785511950697e-01  9.7068280715614785e-01  9.7440820569843256e-01  9.7748317513670713e-01  9.7993931343271534e-01  9.8185103059419909e-01  9.8335631361940579e-01  9.8459508179817457e-01  9.8561175446908644e-01  9.8632537597724601e-01  9.8653884147427684e-01  9.8567239210096591e-01  9.8257302523587453e-01  9.1479138004479188e-01  9.6972947318451230e-01  9.8066494033384355e-01  9.7807127372131630e-01  9.7532890595756416e-01  9.7297298215148209e-01  9.7067337141294308e-01  9.6837029205176206e-01  9.6602820643690901e-01  9.6349807192604509e-01  9.6061740019739261e-01  9.5728581430597648e-01  9.5351471415294775e-01  9.4949849138794029e-01  9.4566732131529385e-01  9.4265020121880738e-01  9.4110825465929027e-01  9.4148252263881804e-01  9.4379542219250878e-01  9.4764432493138484e-01  9.5239168777879768e-01  9.5741179644857755e-01  9.6224904899058272e-01  9.6665065468239508e-01  9.7052308985735447e-01  9.7387127707672960e-01  9.7675013789703391e-01  9.7923278182814855e-01  9.8139024380410644e-01  9.8327896871031972e-01  9.8493633950918313e-01  9.8638696154825134e-01  9.8766009160587365e-01  9.8880661385896196e-01  9.8989400782428361e-01  9.9097950519714728e-01  9.9208474623267540e-01  9.9318853426258880e-01  9.9424394858009280e-01  9.9517317959224960e-01  9.9584725378600125e-01  9.9023264327170546e-01  9.8351468989932456e-01  9.9028419527672928e-01  9.8799250409559669e-01  9.8520248216569861e-01  9.8247140614898909e-01  9.8002560388147042e-01  9.7789105868728377e-01  9.7600908633426497e-01  9.7424436821122540e-01  9.7243797234920715e-01  9.7048182169681274e-01  9.6837167808441826e-01  9.6624488798114494e-01  9.6439020324622160e-01  9.6319331278428699e-01  9.6300121057287547e-01  9.6395859344608448e-01  9.6592909981401920e-01  9.6856714154614232e-01  9.7147857841183383e-01  9.7435136947437417e-01  9.7699988226659495e-01  9.7934575949465130e-01  9.8137927313335305e-01  9.8312684124404992e-01  9.8463051853473182e-01  9.8593638204596634e-01  9.8708771237626125e-01  9.8812095482314932e-01  9.8906492179940453e-01  9.8994456092667305e-01  9.9078783756630096e-01  9.9162931693257095e-01  9.9250368182799498e-01  9.9343038266202821e-01  9.9440299832522461e-01  9.9539266278256711e-01  9.9634675327583500e-01  9.9717885285162478e-01  9.9776816064023077e-01  9.9565964357136960e-01  9.8555287881591047e-01  9.9207185449347735e-01  9.9012614163976354e-01  9.8757841985953332e-01  9.8498071100591356e-01  9.8267919268923021e-01  9.8077061046842784e-01  9.7921638823046186e-01  9.7788982132800217e-01  9.7662580300566304e-01  9.7530401299533431e-01  9.7391253434843561e-01  9.7258247073254533e-01  9.7158032392133198e-01  9.7122559034886902e-01  9.7173685006865240e-01  9.7309786069679227e-01  9.7506212558550920e-01  9.7729247327727042e-01  9.7950691584602123e-01  9.8153792937842987e-01  9.8331769753433940e-01  9.8483982209335830e-01  9.8612765538264613e-01  9.8721572302658456e-01  9.8814095537316826e-01  9.8893916850657781e-01  9.8964366609324861e-01  9.9028479535463110e-01  9.9089071202616519e-01  9.9148931648937544e-01  9.9210935511985321e-01  9.9277720037502259e-01  9.9350810777752607e-01  9.9430098603313133e-01  9.9514553767413050e-01  9.9601986467991221e-01  9.9687023374155370e-01  9.9760790647229292e-01  9.9812747694485482e-01  9.9663640467694059e-01  9.8118773787749392e-01  9.9045719138934762e-01  9.8836160540162143e-01  9.8578447096889132e-01  9.8335064685210360e-01  9.8133274624537237e-01  9.7977011285492943e-01  9.7861880763743381e-01  9.7774583879336341e-01  9.7695981732193671e-01  9.7611377093884977e-01  9.7519284842148302e-01  9.7435896426501378e-01  9.7392599369870247e-01  9.7422240583589004e-01  9.7537795052473331e-01  9.7721303866084075e-01  9.7936150656139642e-01  9.8148934319184855e-01  9.8340423054153892e-01  9.8503955549832178e-01  9.8639961514206598e-01  9.8751763405544968e-01  9.8843369378809398e-01  9.8918579933887052e-01  9.8980771858633010e-01  9.9032970269848797e-01  9.9078004307117273e-01  9.9118679373507923e-01  9.9157951359598695e-01  9.9198968705917256e-01  9.9244734787624722e-01  9.9297313892377137e-01  9.9357019343034114e-01  9.9423043556731594e-01  9.9495065171330244e-01  9.9572249848192862e-01  9.9650520691124067e-01  9.9722374271688619e-01  9.9775860499872737e-01  9.9619425949705331e-01  9.5886618891377107e-01  9.8152624681508660e-01  9.7914685195389362e-01  9.7715279228038876e-01  9.7569782036009134e-01  9.7459140184919568e-01  9.7384403519978024e-01  9.7350057084090225e-01  9.7344732299195469e-01  9.7344873259925602e-01  9.7330798641716143e-01  9.7301177365024227e-01  9.7280490902144778e-01  9.7312725606902406e-01  9.7435070887003850e-01  9.7644946685626155e-01  9.7898703176581814e-01  9.8147514722722518e-01  9.8364088529051674e-01  9.8541558210712277e-01  9.8683067010529413e-01  9.8794696802719328e-01  9.8882456968794219e-01  9.8951352176545004e-01  9.9005303479111884e-01  9.9047400343017056e-01  9.9080253696168530e-01  9.9106344270438440e-01  9.9128326312071413e-01  9.9149234041756995e-01  9.9172390426907620e-01  9.9200781100789581e-01  9.9236007098263590e-01  9.9277562497781235e-01  9.9324020449685979e-01  9.9375024804579593e-01  9.9430372217742435e-01  9.9487699542017072e-01  9.9541888127623102e-01  9.9581330140621338e-01  9.9319317829808362e-01  5.6432711876132902e-01  9.0851213713345547e-01  9.3367594144496868e-01  9.4437143876400464e-01  9.4949001051913884e-01  9.5211012484827440e-01  9.5427995942773935e-01  9.5670360236062457e-01  9.5929040340031224e-01  9.6159368245236887e-01  9.6324322115446326e-01  9.6429123823213958e-01  9.6543401830711506e-01  9.6763867831289330e-01  9.7119802732878202e-01  9.7537998969669704e-01  9.7923316084771339e-01  9.8232235767814857e-01  9.8465265576178929e-01  9.8637801468223674e-01  9.8765383180281330e-01  9.8859949897613209e-01  9.8929953353044364e-01  9.8981199525513952e-01  9.9017635433654871e-01  9.9042026369298597e-01  9.9056544903249122e-01  9.9063266900397673e-01  9.9064551296435510e-01  9.9063227462487258e-01  9.9062385699873112e-01  9.9064554040314801e-01  9.9070377648482910e-01  9.9077526020946605e-01  9.9081313265950011e-01  9.9075739852377220e-01  9.9050734074657898e-01  9.8984331489235633e-01  9.8846863840081101e-01  9.8407841156830433e-01  9.6817745918046061e-01  1.3058447261098777e-01  1.0269753016740868e-01  2.9923488714142010e-01  5.7337379128319210e-01  7.1481631566375858e-01  8.0661908808863869e-01  8.6732858501409660e-01  9.1262188069789185e-01  9.4744570353534419e-01  9.6999233249681538e-01  9.7781483740590580e-01  9.7355775720101734e-01  9.6583336208547155e-01  9.6309326548049745e-01  9.6663292719556138e-01  9.7263254068658056e-01  9.7806376177435073e-01  9.8203440528084807e-01  9.8472707034094487e-01  9.8652854463784179e-01  9.8774190801635831e-01  9.8856134301072307e-01  9.8910435570956179e-01  9.8944104214357853e-01  9.8961272590724880e-01  9.8964378791244967e-01  9.8955002552541083e-01  9.8934491228077992e-01  9.8904383205233615e-01  9.8866536414480877e-01  9.8822723346234587e-01  9.8773428255461493e-01  9.8715600924099223e-01  9.8639393321986324e-01  9.8523882286532960e-01  9.8327057662623119e-01  9.7961515304778501e-01  9.7278010471242637e-01  9.4956310195776417e-01  6.4387218516859235e-01  1.9449162243722817e-01  1.2700066205751670e-01  6.7685255834249475e-02  7.8058872323785070e-02  1.0288445875597033e-01  1.4065308301610205e-01  1.9840996840831354e-01  2.7303119049904850e-01  3.6322253802369647e-01  4.7310378184164259e-01  6.0363097700817592e-01  7.4547614479298729e-01  8.7239103056163714e-01  9.6071424389083970e-01  9.9738884318208010e-01  9.8505660837404607e-01  9.7533170279545878e-01  9.7730846830120310e-01  9.8108960169751758e-01  9.8396582487182938e-01  9.8586633448447092e-01  9.8706488982591167e-01  9.8778258548667242e-01  9.8815888093905391e-01  9.8827379732538478e-01  9.8816905973134739e-01  9.8786258818130790e-01  9.8735808888806220e-01  9.8665123139178224e-01  9.8573230300368919e-01  9.8458369506146215e-01  9.8316797250207544e-01  9.8140025462712233e-01  9.7908359364149700e-01  9.7576720734990852e-01  9.7044655626905074e-01  9.6099685638447174e-01  9.4138100681677339e-01  8.6189703752623537e-01  3.3520834348165590e-01  9.4018808710002247e-02  1.3020605954191963e-01  1.2663904596126735e-01  6.6130786709544614e-02  6.6290478266430447e-02  6.9437690776650976e-02  7.5254594043964590e-02  8.3607717610408999e-02  9.4686634002765988e-02  1.1033205444500781e-01  1.3464612991650757e-01  1.7630198800149544e-01  2.5662724444160384e-01  4.2812706306512127e-01  7.2963893280650938e-01  9.6002917514617936e-01  9.8244416315726901e-01  9.7431392757733903e-01  9.7653395705455837e-01  9.8002529914393488e-01  9.8268856097426638e-01  9.8445398844476140e-01  9.8551099333509873e-01  9.8603099572051389e-01  9.8612703819307479e-01  9.8585718545228540e-01  9.8523686546437472e-01  9.8424951234163549e-01  9.8285224169598084e-01  9.8097505813025254e-01  9.7850997199836565e-01  9.7528185058905670e-01  9.7098402169158682e-01  9.6504690378075686e-01  9.5632572118118264e-01  9.4232190363655111e-01  9.1589671615589852e-01  8.4132741545000334e-01  5.5444682926754951e-01  1.5533998610422267e-01  1.0896346924782112e-01  7.2142309736361238e-02  1.2752467171260537e-01  1.2671447756473148e-01  6.5905068912981368e-02  6.5093502763057448e-02  6.6141206149584533e-02  6.8235375985022398e-02  7.1154424093317861e-02  7.4916221109102690e-02  8.0100280175346872e-02  8.8511828625656763e-02  1.0672865560744593e-01  1.6285165633156942e-01  3.6057054352431678e-01  7.6380490241033916e-01  9.3676278008100855e-01  9.5621549957917473e-01  9.6760083442921063e-01  9.7438319433708476e-01  9.7842253805174495e-01  9.8084711277231074e-01  9.8222658779298710e-01  9.8284207862312412e-01  9.8283289413085162e-01  9.8224975050972629e-01  9.8106791534390581e-01  9.7919162596569786e-01  9.7644961478707704e-01  9.7257454084870876e-01  9.6715259756130323e-01  9.5950734305801944e-01  9.4842540742461612e-01  9.3146958458128259e-01  9.0301101997223032e-01  8.4777804786039135e-01  7.2364536770920873e-01  4.6620086571313268e-01  2.0417816483199927e-01  6.6140302798612757e-02  9.1448186631151354e-02  7.8534553456029943e-02  7.0065601031391200e-02  1.2736765215390300e-01  1.2687338012299357e-01  6.6029057294762841e-02  6.5140420499894838e-02  6.5880539494766480e-02  6.7368486625916185e-02  6.9426206228089204e-02  7.2016598896178119e-02  7.5670969657913575e-02  8.3404854879219850e-02  1.0990060874748356e-01  2.2179666839630829e-01  5.9990544166669924e-01  8.9769233942398319e-01  9.4793884568805864e-01  9.6765836727413845e-01  9.7367210575099272e-01  9.7576481086998723e-01  9.7736100053786834e-01  9.7842781891091346e-01  9.7873525730119659e-01  9.7824913401304137e-01  9.7694327646470824e-01  9.7468443710624952e-01  9.7116862120265468e-01  9.6583744538123539e-01  9.5763925491855573e-01  9.4447669610583895e-01  9.2212362252566260e-01  8.8226708430714107e-01  8.0980021763289667e-01  6.8347326043869550e-01  4.9383202904736739e-01  2.8518117991144365e-01  1.4772491372960028e-01  8.5241647166663631e-02  7.1655166059515968e-02  8.5296139998263909e-02  8.1534690881151936e-02  7.2897239097241315e-02  7.0066168053752348e-02  1.2765783868072414e-01  1.2712561638160685e-01  6.6448151627834698e-02  6.5763208352923999e-02  6.6523185052580869e-02  6.7933895920612636e-02  6.9909360195901965e-02  7.2697592598697833e-02  7.8313243555574091e-02  9.7048868824449908e-02  1.7388271275110362e-01  4.9267799031484727e-01  8.7187893454608201e-01  9.4353072203164035e-01  9.7205566969443835e-01  9.8070988332389208e-01  9.8024515198845252e-01  9.7838002375921995e-01  9.7711394600469481e-01  9.7566538892570043e-01  9.7329848036871869e-01  9.6968496855459330e-01  9.6471187899880284e-01  9.5806606622825785e-01  9.4794766443195932e-01  9.2687668965172487e-01  8.7518248092726292e-01  7.6695344358079720e-01  6.0151059210128699e-01  4.1859398084299398e-01  2.6569225364472826e-01  1.6589025696772991e-01  1.1247395503503657e-01  8.6174346377113409e-02  8.3516785589531781e-02  8.4693500126663393e-02  7.6122180242830087e-02  7.8520550860542812e-02  7.5333827918233717e-02  7.2748826338157727e-02  7.0328293556439603e-02  1.2789345135224264e-01  1.2745697757774790e-01  6.7157153079213674e-02  6.6891945374011635e-02  6.7816311184160316e-02  6.9419535209402722e-02  7.1996399253418164e-02  7.7482115580577687e-02  9.5002511551611171e-02  1.622089697