<?xml version="1.0"?>
<VTKFile type="UnstructuredGrid"  version="0.1"  >
<UnstructuredGrid>
<Piece  NumberOfPoints="1681" NumberOfCells="3200">
<Points>
<DataArray  type="Float64"  NumberOfComponents="3"  format="ascii">0 0 0  0.025 0 0  0.05 0 0  0.075 0 0  0.1 0 0  0.125 0 0  0.15 0 0  0.175 0 0  0.2 0 0  0.225 0 0  0.25 0 0  0.275 0 0  0.3 0 0  0.325 0 0  0.35 0 0  0.375 0 0  0.4 0 0  0.425 0 0  0.45 0 0  0.475 0 0  0.5 0 0  0.525 0 0  0.55 0 0  0.575 0 0  0.6 0 0  0.625 0 0  0.65 0 0  0.675 0 0  0.7 0 0  0.725 0 0  0.75 0 0  0.775 0 0  0.8 0 0  0.825 0 0  0.85 0 0  0.875 0 0  0.9 0 0  0.925 0 0  0.95 0 0  0.975 0 0  1 0 0  0 0.025 0  0.025 0.025 0  0.05 0.025 0  0.075 0.025 0  0.1 0.025 0  0.125 0.025 0  0.15 0.025 0  0.175 0.025 0  0.2 0.025 0  0.225 0.025 0  0.25 0.025 0  0.275 0.025 0  0.3 0.025 0  0.325 0.025 0  0.35 0.025 0  0.375 0.025 0  0.4 0.025 0  0.425 0.025 0  0.45 0.025 0  0.475 0.025 0  0.5 0.025 0  0.525 0.025 0  0.55 0.025 0  0.575 0.025 0  0.6 0.025 0  0.625 0.025 0  0.65 0.025 0  0.675 0.025 0  0.7 0.025 0  0.725 0.025 0  0.75 0.025 0  0.775 0.025 0  0.8 0.025 0  0.825 0.025 0  0.85 0.025 0  0.875 0.025 0  0.9 0.025 0  0.925 0.025 0  0.95 0.025 0  0.975 0.025 0  1 0.025 0  0 0.05 0  0.025 0.05 0  0.05 0.05 0  0.075 0.05 0  0.1 0.05 0  0.125 0.05 0  0.15 0.05 0  0.175 0.05 0  0.2 0.05 0  0.225 0.05 0  0.25 0.05 0  0.275 0.05 0  0.3 0.05 0  0.325 0.05 0  0.35 0.05 0  0.375 0.05 0  0.4 0.05 0  0.425 0.05 0  0.45 0.05 0  0.475 0.05 0  0.5 0.05 0  0.525 0.05 0  0.55 0.05 0  0.575 0.05 0  0.6 0.05 0  0.625 0.05 0  0.65 0.05 0  0.675 0.05 0  0.7 0.05 0  0.725 0.05 0  0.75 0.05 0  0.775 0.05 0  0.8 0.05 0  0.825 0.05 0  0.85 0.05 0  0.875 0.05 0  0.9 0.05 0  0.925 0.05 0  0.95 0.05 0  0.975 0.05 0  1 0.05 0  0 0.075 0  0.025 0.075 0  0.05 0.075 0  0.075 0.075 0  0.1 0.075 0  0.125 0.075 0  0.15 0.075 0  0.175 0.075 0  0.2 0.075 0  0.225 0.075 0  0.25 0.075 0  0.275 0.075 0  0.3 0.075 0  0.325 0.075 0  0.35 0.075 0  0.375 0.075 0  0.4 0.075 0  0.425 0.075 0  0.45 0.075 0  0.475 0.075 0  0.5 0.075 0  0.525 0.075 0  0.55 0.075 0  0.575 0.075 0  0.6 0.075 0  0.625 0.075 0  0.65 0.075 0  0.675 0.075 0  0.7 0.075 0  0.725 0.075 0  0.75 0.075 0  0.775 0.075 0  0.8 0.075 0  0.825 0.075 0  0.85 0.075 0  0.875 0.075 0  0.9 0.075 0  0.925 0.075 0  0.95 0.075 0  0.975 0.075 0  1 0.075 0  0 0.1 0  0.025 0.1 0  0.05 0.1 0  0.075 0.1 0  0.1 0.1 0  0.125 0.1 0  0.15 0.1 0  0.175 0.1 0  0.2 0.1 0  0.225 0.1 0  0.25 0.1 0  0.275 0.1 0  0.3 0.1 0  0.325 0.1 0  0.35 0.1 0  0.375 0.1 0  0.4 0.1 0  0.425 0.1 0  0.45 0.1 0  0.475 0.1 0  0.5 0.1 0  0.525 0.1 0  0.55 0.1 0  0.575 0.1 0  0.6 0.1 0  0.625 0.1 0  0.65 0.1 0  0.675 0.1 0  0.7 0.1 0  0.725 0.1 0  0.75 0.1 0  0.775 0.1 0  0.8 0.1 0  0.825 0.1 0  0.85 0.1 0  0.875 0.1 0  0.9 0.1 0  0.925 0.1 0  0.95 0.1 0  0.975 0.1 0  1 0.1 0  0 0.125 0  0.025 0.125 0  0.05 0.125 0  0.075 0.125 0  0.1 0.125 0  0.125 0.125 0  0.15 0.125 0  0.175 0.125 0  0.2 0.125 0  0.225 0.125 0  0.25 0.125 0  0.275 0.125 0  0.3 0.125 0  0.325 0.125 0  0.35 0.125 0  0.375 0.125 0  0.4 0.125 0  0.425 0.125 0  0.45 0.125 0  0.475 0.125 0  0.5 0.125 0  0.525 0.125 0  0.55 0.125 0  0.575 0.125 0  0.6 0.125 0  0.625 0.125 0  0.65 0.125 0  0.675 0.125 0  0.7 0.125 0  0.725 0.125 0  0.75 0.125 0  0.775 0.125 0  0.8 0.125 0  0.825 0.125 0  0.85 0.125 0  0.875 0.125 0  0.9 0.125 0  0.925 0.125 0  0.95 0.125 0  0.975 0.125 0  1 0.125 0  0 0.15 0  0.025 0.15 0  0.05 0.15 0  0.075 0.15 0  0.1 0.15 0  0.125 0.15 0  0.15 0.15 0  0.175 0.15 0  0.2 0.15 0  0.225 0.15 0  0.25 0.15 0  0.275 0.15 0  0.3 0.15 0  0.325 0.15 0  0.35 0.15 0  0.375 0.15 0  0.4 0.15 0  0.425 0.15 0  0.45 0.15 0  0.475 0.15 0  0.5 0.15 0  0.525 0.15 0  0.55 0.15 0  0.575 0.15 0  0.6 0.15 0  0.625 0.15 0  0.65 0.15 0  0.675 0.15 0  0.7 0.15 0  0.725 0.15 0  0.75 0.15 0  0.775 0.15 0  0.8 0.15 0  0.825 0.15 0  0.85 0.15 0  0.875 0.15 0  0.9 0.15 0  0.925 0.15 0  0.95 0.15 0  0.975 0.15 0  1 0.15 0  0 0.175 0  0.025 0.175 0  0.05 0.175 0  0.075 0.175 0  0.1 0.175 0  0.125 0.175 0  0.15 0.175 0  0.175 0.175 0  0.2 0.175 0  0.225 0.175 0  0.25 0.175 0  0.275 0.175 0  0.3 0.175 0  0.325 0.175 0  0.35 0.175 0  0.375 0.175 0  0.4 0.175 0  0.425 0.175 0  0.45 0.175 0  0.475 0.175 0  0.5 0.175 0  0.525 0.175 0  0.55 0.175 0  0.575 0.175 0  0.6 0.175 0  0.625 0.175 0  0.65 0.175 0  0.675 0.175 0  0.7 0.175 0  0.725 0.175 0  0.75 0.175 0  0.775 0.175 0  0.8 0.175 0  0.825 0.175 0  0.85 0.175 0  0.875 0.175 0  0.9 0.175 0  0.925 0.175 0  0.95 0.175 0  0.975 0.175 0  1 0.175 0  0 0.2 0  0.025 0.2 0  0.05 0.2 0  0.075 0.2 0  0.1 0.2 0  0.125 0.2 0  0.15 0.2 0  0.175 0.2 0  0.2 0.2 0  0.225 0.2 0  0.25 0.2 0  0.275 0.2 0  0.3 0.2 0  0.325 0.2 0  0.35 0.2 0  0.375 0.2 0  0.4 0.2 0  0.425 0.2 0  0.45 0.2 0  0.475 0.2 0  0.5 0.2 0  0.525 0.2 0  0.55 0.2 0  0.575 0.2 0  0.6 0.2 0  0.625 0.2 0  0.65 0.2 0  0.675 0.2 0  0.7 0.2 0  0.725 0.2 0  0.75 0.2 0  0.775 0.2 0  0.8 0.2 0  0.825 0.2 0  0.85 0.2 0  0.875 0.2 0  0.9 0.2 0  0.925 0.2 0  0.95 0.2 0  0.975 0.2 0  1 0.2 0  0 0.225 0  0.025 0.225 0  0.05 0.225 0  0.075 0.225 0  0.1 0.225 0  0.125 0.225 0  0.15 0.225 0  0.175 0.225 0  0.2 0.225 0  0.225 0.225 0  0.25 0.225 0  0.275 0.225 0  0.3 0.225 0  0.325 0.225 0  0.35 0.225 0  0.375 0.225 0  0.4 0.225 0  0.425 0.225 0  0.45 0.225 0  0.475 0.225 0  0.5 0.225 0  0.525 0.225 0  0.55 0.225 0  0.575 0.225 0  0.6 0.225 0  0.625 0.225 0  0.65 0.225 0  0.675 0.225 0  0.7 0.225 0  0.725 0.225 0  0.75 0.225 0  0.775 0.225 0  0.8 0.225 0  0.825 0.225 0  0.85 0.225 0  0.875 0.225 0  0.9 0.225 0  0.925 0.225 0  0.95 0.225 0  0.975 0.225 0  1 0.225 0  0 0.25 0  0.025 0.25 0  0.05 0.25 0  0.075 0.25 0  0.1 0.25 0  0.125 0.25 0  0.15 0.25 0  0.175 0.25 0  0.2 0.25 0  0.225 0.25 0  0.25 0.25 0  0.275 0.25 0  0.3 0.25 0  0.325 0.25 0  0.35 0.25 0  0.375 0.25 0  0.4 0.25 0  0.425 0.25 0  0.45 0.25 0  0.475 0.25 0  0.5 0.25 0  0.525 0.25 0  0.55 0.25 0  0.575 0.25 0  0.6 0.25 0  0.625 0.25 0  0.65 0.25 0  0.675 0.25 0  0.7 0.25 0  0.725 0.25 0  0.75 0.25 0  0.775 0.25 0  0.8 0.25 0  0.825 0.25 0  0.85 0.25 0  0.875 0.25 0  0.9 0.25 0  0.925 0.25 0  0.95 0.25 0  0.975 0.25 0  1 0.25 0  0 0.275 0  0.025 0.275 0  0.05 0.275 0  0.075 0.275 0  0.1 0.275 0  0.125 0.275 0  0.15 0.275 0  0.175 0.275 0  0.2 0.275 0  0.225 0.275 0  0.25 0.275 0  0.275 0.275 0  0.3 0.275 0  0.325 0.275 0  0.35 0.275 0  0.375 0.275 0  0.4 0.275 0  0.425 0.275 0  0.45 0.275 0  0.475 0.275 0  0.5 0.275 0  0.525 0.275 0  0.55 0.275 0  0.575 0.275 0  0.6 0.275 0  0.625 0.275 0  0.65 0.275 0  0.675 0.275 0  0.7 0.275 0  0.725 0.275 0  0.75 0.275 0  0.775 0.275 0  0.8 0.275 0  0.825 0.275 0  0.85 0.275 0  0.875 0.275 0  0.9 0.275 0  0.925 0.275 0  0.95 0.275 0  0.975 0.275 0  1 0.275 0  0 0.3 0  0.025 0.3 0  0.05 0.3 0  0.075 0.3 0  0.1 0.3 0  0.125 0.3 0  0.15 0.3 0  0.175 0.3 0  0.2 0.3 0  0.225 0.3 0  0.25 0.3 0  0.275 0.3 0  0.3 0.3 0  0.325 0.3 0  0.35 0.3 0  0.375 0.3 0  0.4 0.3 0  0.425 0.3 0  0.45 0.3 0  0.475 0.3 0  0.5 0.3 0  0.525 0.3 0  0.55 0.3 0  0.575 0.3 0  0.6 0.3 0  0.625 0.3 0  0.65 0.3 0  0.675 0.3 0  0.7 0.3 0  0.725 0.3 0  0.75 0.3 0  0.775 0.3 0  0.8 0.3 0  0.825 0.3 0  0.85 0.3 0  0.875 0.3 0  0.9 0.3 0  0.925 0.3 0  0.95 0.3 0  0.975 0.3 0  1 0.3 0  0 0.325 0  0.025 0.325 0  0.05 0.325 0  0.075 0.325 0  0.1 0.325 0  0.125 0.325 0  0.15 0.325 0  0.175 0.325 0  0.2 0.325 0  0.225 0.325 0  0.25 0.325 0  0.275 0.325 0  0.3 0.325 0  0.325 0.325 0  0.35 0.325 0  0.375 0.325 0  0.4 0.325 0  0.425 0.325 0  0.45 0.325 0  0.475 0.325 0  0.5 0.325 0  0.525 0.325 0  0.55 0.325 0  0.575 0.325 0  0.6 0.325 0  0.625 0.325 0  0.65 0.325 0  0.675 0.325 0  0.7 0.325 0  0.725 0.325 0  0.75 0.325 0  0.775 0.325 0  0.8 0.325 0  0.825 0.325 0  0.85 0.325 0  0.875 0.325 0  0.9 0.325 0  0.925 0.325 0  0.95 0.325 0  0.975 0.325 0  1 0.325 0  0 0.35 0  0.025 0.35 0  0.05 0.35 0  0.075 0.35 0  0.1 0.35 0  0.125 0.35 0  0.15 0.35 0  0.175 0.35 0  0.2 0.35 0  0.225 0.35 0  0.25 0.35 0  0.275 0.35 0  0.3 0.35 0  0.325 0.35 0  0.35 0.35 0  0.375 0.35 0  0.4 0.35 0  0.425 0.35 0  0.45 0.35 0  0.475 0.35 0  0.5 0.35 0  0.525 0.35 0  0.55 0.35 0  0.575 0.35 0  0.6 0.35 0  0.625 0.35 0  0.65 0.35 0  0.675 0.35 0  0.7 0.35 0  0.725 0.35 0  0.75 0.35 0  0.775 0.35 0  0.8 0.35 0  0.825 0.35 0  0.85 0.35 0  0.875 0.35 0  0.9 0.35 0  0.925 0.35 0  0.95 0.35 0  0.975 0.35 0  1 0.35 0  0 0.375 0  0.025 0.375 0  0.05 0.375 0  0.075 0.375 0  0.1 0.375 0  0.125 0.375 0  0.15 0.375 0  0.175 0.375 0  0.2 0.375 0  0.225 0.375 0  0.25 0.375 0  0.275 0.375 0  0.3 0.375 0  0.325 0.375 0  0.35 0.375 0  0.375 0.375 0  0.4 0.375 0  0.425 0.375 0  0.45 0.375 0  0.475 0.375 0  0.5 0.375 0  0.525 0.375 0  0.55 0.375 0  0.575 0.375 0  0.6 0.375 0  0.625 0.375 0  0.65 0.375 0  0.675 0.375 0  0.7 0.375 0  0.725 0.375 0  0.75 0.375 0  0.775 0.375 0  0.8 0.375 0  0.825 0.375 0  0.85 0.375 0  0.875 0.375 0  0.9 0.375 0  0.925 0.375 0  0.95 0.375 0  0.975 0.375 0  1 0.375 0  0 0.4 0  0.025 0.4 0  0.05 0.4 0  0.075 0.4 0  0.1 0.4 0  0.125 0.4 0  0.15 0.4 0  0.175 0.4 0  0.2 0.4 0  0.225 0.4 0  0.25 0.4 0  0.275 0.4 0  0.3 0.4 0  0.325 0.4 0  0.35 0.4 0  0.375 0.4 0  0.4 0.4 0  0.425 0.4 0  0.45 0.4 0  0.475 0.4 0  0.5 0.4 0  0.525 0.4 0  0.55 0.4 0  0.575 0.4 0  0.6 0.4 0  0.625 0.4 0  0.65 0.4 0  0.675 0.4 0  0.7 0.4 0  0.725 0.4 0  0.75 0.4 0  0.775 0.4 0  0.8 0.4 0  0.825 0.4 0  0.85 0.4 0  0.875 0.4 0  0.9 0.4 0  0.925 0.4 0  0.95 0.4 0  0.975 0.4 0  1 0.4 0  0 0.425 0  0.025 0.425 0  0.05 0.425 0  0.075 0.425 0  0.1 0.425 0  0.125 0.425 0  0.15 0.425 0  0.175 0.425 0  0.2 0.425 0  0.225 0.425 0  0.25 0.425 0  0.275 0.425 0  0.3 0.425 0  0.325 0.425 0  0.35 0.425 0  0.375 0.425 0  0.4 0.425 0  0.425 0.425 0  0.45 0.425 0  0.475 0.425 0  0.5 0.425 0  0.525 0.425 0  0.55 0.425 0  0.575 0.425 0  0.6 0.425 0  0.625 0.425 0  0.65 0.425 0  0.675 0.425 0  0.7 0.425 0  0.725 0.425 0  0.75 0.425 0  0.775 0.425 0  0.8 0.425 0  0.825 0.425 0  0.85 0.425 0  0.875 0.425 0  0.9 0.425 0  0.925 0.425 0  0.95 0.425 0  0.975 0.425 0  1 0.425 0  0 0.45 0  0.02
[...]
<PointData  Scalars="ControlVisualisation"> 
<DataArray  type="Float64"  Name="ControlVisualisation"  format="ascii">1.4057788782499919e-03  9.3735338251256593e-04  9.3758398937980841e-04  9.3810876571712349e-04  9.3899620155901416e-04  9.4018733136500248e-04  9.4150596981134747e-04  9.4274914552953156e-04  9.4377842660551495e-04  9.4454899079376520e-04  9.4508039621786445e-04  9.4541453407032171e-04  9.4559304187123174e-04  9.4565452422008464e-04  9.4563681841197027e-04  9.4557209586700649e-04  9.4547717765300159e-04  9.4535003221803181e-04  9.4518339334430455e-04  9.4499048085780793e-04  9.4480442132134938e-04  9.4464434157363365e-04  9.4445015594820021e-04  9.4416717890991042e-04  9.4383436964358620e-04  9.4356143362878196e-04  9.4339292928225535e-04  9.4321674276285131e-04  9.4283687428367026e-04  9.4216653763330813e-04  9.4128693295950961e-04  9.4030525402079724e-04  9.3930601236411342e-04  9.3839952230538137e-04  9.3770938777704746e-04  9.3735163920896571e-04  9.3734502016462823e-04  9.3747398190986968e-04  9.3745908410476219e-04  9.3732820423219774e-04  2.8109620042580333e-03  9.3733796038815041e-04  4.6882508604024022e-04  4.6906191671010962e-04  4.6961830997180364e-04  4.7058585631408337e-04  4.7191543260723356e-04  4.7341811160117689e-04  4.7485941777022526e-04  4.7606827035702009e-04  4.7698280246666352e-04  4.7762154085338987e-04  4.7803071099601722e-04  4.7825519178590776e-04  4.7833671932053136e-04  4.7831918468117991e-04  4.7824465503785800e-04  4.7814151832006429e-04  4.7800801699998148e-04  4.7782196660753974e-04  4.7758932365847383e-04  4.7736685414482790e-04  4.7719336252431991e-04  4.7700775740033835e-04  4.7670326307552928e-04  4.7628971595075264e-04  4.7592681714080825e-04  4.7571918236654828e-04  4.7564541889454429e-04  4.7535682261351785e-04  4.7467534500275605e-04  4.7372848664049117e-04  4.7265459443571048e-04  4.7154161453238274e-04  4.7044969610905116e-04  4.6955762684810712e-04  4.6903094877839266e-04  4.6890863611446110e-04  4.6902626379942961e-04  4.6905298159755538e-04  4.6890371842579353e-04  9.3733923576626635e-04  9.3739805070229803e-04  4.6894476888023108e-04  4.6932449147697459e-04  4.7012861812438376e-04  4.7143972015909543e-04  4.7312627404553392e-04  4.7492236125786256e-04  4.7653853214389756e-04  4.7780001443201533e-04  4.7870046293043366e-04  4.7931410737240827e-04  4.7970300761759926e-04  4.7989981737485535e-04  4.7993464915954681e-04  4.7985720362865711e-04  4.7973538122964043e-04  4.7962376478860239e-04  4.7950280783285598e-04  4.7928764042329248e-04  4.7894952747605497e-04  4.7863220077886938e-04  4.7846599421370108e-04  4.7851043710425868e-04  4.7823063822797086e-04  4.7759127785370237e-04  4.7707935683458509e-04  4.7706792246264557e-04  4.7777801032881755e-04  4.7809270044627710e-04  4.7783703107700544e-04  4.7747525843717199e-04  4.7695103048985151e-04  4.7578326459295271e-04  4.7358428031454093e-04  4.7150925702059480e-04  4.7025202697826359e-04  4.6981436947645462e-04  4.6983559122736924e-04  4.6993054574886089e-04  4.6962586581663897e-04  9.3777103840336090e-04  9.3735585906769888e-04  4.6906803764426217e-04  4.6982254535766495e-04  4.7121736138021092e-04  4.7302166367539845e-04  4.7498222257809613e-04  4.7688947183215455e-04  4.7831429307799425e-04  4.7916489540972686e-04  4.7967140460877404e-04  4.8002817180705103e-04  4.8027404398769228e-04  4.8036547509202877e-04  4.8028152801732040e-04  4.8007063633483718e-04  4.7985406896815691e-04  4.7974204049455971e-04  4.7976927149685972e-04  4.7969678922693044e-04  4.7920782941738974e-04  4.7869963777010367e-04  4.7878058479527220e-04  4.8015694299762685e-04  4.8062960762445888e-04  4.8111927636430504e-04  4.8417160641128613e-04  4.9251295365258839e-04  5.1053563788824082e-04  5.3106729531812713e-04  5.4769870139322117e-04  5.6866075169471691e-04  5.8961849380004261e-04  6.0021774305792325e-04  5.8990903914892315e-04  5.6925676035238563e-04  5.3214865787320033e-04  4.8688835276197300e-04  4.7215913981829495e-04  4.7296229783632917e-04  4.7286998004570930e-04  9.3961697113371088e-04  9.3754779023198353e-04  4.6984001632664605e-04  4.7243836919828061e-04  4.7689584385960499e-04  4.8000012322172477e-04  4.8142116090880971e-04  4.8248200607066020e-04  4.8227055012547710e-04  4.8155606769604984e-04  4.8106853004206159e-04  4.8099584309231781e-04  4.8109901867252904e-04  4.8109279299838887e-04  4.8085272709493464e-04  4.8043001510890242e-04  4.8006057835004454e-04  4.8004946921991826e-04  4.8089199129805753e-04  4.8185051257981668e-04  4.8194935159243617e-04  4.8351896889630900e-04  4.9090828878546675e-04  5.1496243587644170e-04  5.4466837682156353e-04  5.7848240533382722e-04  6.5265416944082272e-04  8.1782307186141381e-04  1.2875207540407195e-03  4.9346719588385761e-03  7.7187996361624420e-02  1.5607703516296581e-01  2.2641445478959077e-01  2.6836973338845460e-01  2.6318497337401214e-01  2.0713308923807844e-01  8.6997595233976044e-02  1.8264409050757415e-03  7.0787902270502906e-04  4.9890420265656806e-04  4.8327236548147091e-04  9.4749983827544307e-04  1.0297798137242113e-03  4.9414235666029791e-04  5.3221548403663992e-04  5.7662821656278228e-04  6.1032985231510191e-04  6.0090810990739117e-04  5.7226754833589579e-04  5.3248421528939271e-04  5.0359726098268733e-04  4.9216746781035193e-04  4.8781669056555192e-04  4.8625158954474981e-04  4.8561652741336940e-04  4.8537713143133641e-04  4.8565261920735384e-04  4.8730654819430550e-04  4.9230342081725640e-04  5.0709721903865405e-04  5.3411470501518222e-04  5.6383580074496832e-04  6.1398537309885210e-04  7.4064705584663698e-04  1.1667665943903348e-03  8.4391683056096595e-03  1.5748176311939802e-01  3.1560961150631545e-01  5.2528838744947770e-01  7.3362175450070810e-01  9.5633016590569742e-01  9.9677388020408753e-01  9.9851605582602820e-01  9.9897585423144253e-01  9.9915210529912313e-01  9.9920026524486594e-01  9.9911924677267061e-01  9.9868924921225521e-01  9.9380358507995603e-01  5.7711152523719544e-01  4.6091577976504303e-02  5.7340241295752135e-04  1.0824240587323220e-03  1.0962809203942227e-03  9.7104440231424063e-04  1.1740477543242420e-01  2.6030515915723640e-01  2.7311807686594641e-01  2.0242482114147842e-01  9.9421917353007649e-02  1.3627234100196537e-02  1.4803262005667220e-03  8.5925361481674757e-04  6.9458514260550244e-04  6.2911830860112731e-04  6.0398003081551003e-04  6.0252941897129882e-04  6.2156538848757103e-04  6.6733231928303542e-04  7.6705513987776713e-04  1.0429222720225357e-03  2.5158000209084780e-03  9.4798951634466458e-02  2.4085211133899045e-01  4.3805746662722256e-01  6.7796206851478302e-01  9.6382715038742273e-01  9.9775949411221487e-01  9.9902350804194184e-01  9.9938355497457321e-01  9.9954803754471755e-01  9.9963977791454628e-01  9.9970284585714975e-01  9.9975036981142651e-01  9.9978344919174389e-01  9.9980584543197748e-01  9.9982019255524279e-01  9.9982669436999538e-01  9.9982269547940905e-01  9.9979932207248301e-01  9.9973355545360199e-01  9.9947850010822481e-01  4.1692044754734059e-01  1.1141661004830034e-03  9.9856792623483248e-01  9.9885613150895647e-01  9.9932641350369378e-01  9.9932218370892623e-01  9.9911229702909543e-01  9.9855045882225490e-01  9.9570519297483573e-01  8.9021142578196100e-01  6.6056180404193254e-01  4.6015089576351370e-01  3.1348699319253770e-01  2.0604233534520119e-01  1.7085331309411345e-01  1.8055357647112966e-01  2.2775098087508380e-01  3.1417610359684339e-01  4.5267351917026460e-01  6.3102024436558546e-01  8.5994341242715500e-01  9.9455676952910865e-01  9.9857342776618274e-01  9.9922968020142855e-01  9.9948185726082628e-01  9.9960857572020811e-01  9.9969213769017040e-01  9.9975475175865181e-01  9.9979894105725386e-01  9.9983068331690350e-01  9.9985447689584350e-01  9.9987274601590570e-01  9.9988709251159835e-01  9.9989869777120099e-01  9.9990840831679195e-01  9.9991673363849731e-01  9.9992389032801055e-01  9.9992984150903286e-01  9.9993423465609776e-01  9.9993599597008442e-01  9.9993194461133250e-01  9.9991503458165698e-01  9.9954975827182146e-01  9.9984670212657456e-01  9.9989529798334287e-01  9.9987068331650164e-01  9.9983729940058064e-01  9.9979411958553766e-01  9.9973430692637999e-01  9.9964295417334603e-01  9.9949848524299589e-01  9.9927518389666214e-01  9.9891376355943706e-01  9.9828578970628390e-01  9.9730714455887159e-01  9.9658183688318069e-01  9.9705510547029930e-01  9.9804914057161009e-01  9.9875492428877455e-01  9.9916180455913406e-01  9.9940011400620143e-01  9.9954495288802614e-01  9.9963970252713696e-01  9.9971292085606067e-01  9.9976918722551877e-01  9.9980938847270495e-01  9.9983900429429284e-01  9.9986126918191220e-01  9.9987839683682778e-01  9.9989200631674602e-01  9.9990320792345067e-01  9.9991269298253405e-01  9.9992090556246882e-01  9.9992818964866736e-01  9.9993485357752643e-01  9.9994117046548547e-01  9.9994734672512731e-01  9.9995350230968361e-01  9.9995965542942689e-01  9.9996569422687487e-01  9.9997134397677323e-01  9.9997615784571270e-01  9.9997954555135793e-01  9.9995167082132375e-01  9.9991942829955427e-01  9.9995133778873768e-01  9.9993730501948408e-01  9.9991790313045281e-01  9.9989483882553876e-01  9.9986807883064976e-01  9.9983631738424450e-01  9.9979769784443673e-01  9.9975131733221634e-01  9.9969958222866673e-01  9.9965043555358435e-01  9.9961653733671463e-01  9.9960865994838399e-01  9.9962747013938646e-01  9.9966407037806582e-01  9.9970743671876283e-01  9.9974968300187084e-01  9.9978692958045834e-01  9.9981795806990348e-01  9.9984297302847003e-01  9.9986288787707889e-01  9.9987884008621997e-01  9.9989180946710132e-01  9.9990249815821997e-01  9.9991138991090200e-01  9.9991887826319648e-01  9.9992531413817343e-01  9.9993099734561608e-01  9.9993616028750432e-01  9.9994098524350206e-01  9.9994563202505471e-01  9.9995025598779530e-01  9.9995500325468001e-01  9.9995998722437307e-01  9.9996525638041367e-01  9.9997075398413637e-01  9.9997628017461992e-01  9.9998147748211752e-01  9.9998586326408756e-01  9.9998888717747147e-01  9.9997848707614401e-01  9.9992965648455934e-01  9.9996112114581204e-01  9.9995109243326774e-01  9.9993706626526813e-01  9.9992071339421273e-01  9.9990292026438765e-01  9.9988390328797017e-01  9.9986389246908336e-01  9.9984396470313841e-01  9.9982641613149703e-01  9.9981423194521901e-01  9.9980969687555632e-01  9.9981313353734813e-01  9.9982286629525108e-01  9.9983629740297797e-01  9.9985106068684448e-01  9.9986554835901520e-01  9.9987887935340480e-01  9.9989066437453733e-01  9.9990081505995299e-01  9.9990943336486138e-01  9.9991672809296117e-01  9.9992293477527427e-01  9.9992826209894503e-01  9.9993288072588205e-01  9.9993694118720144e-01  9.9994058701231148e-01  9.9994395511175937e-01  9.9994717127107335e-01  9.9995035188323311e-01  9.9995361071307398e-01  9.9995706287299968e-01  9.9996081757802779e-01  9.9996495737877455e-01  9.9996950434429965e-01  9.9997437614585971e-01  9.9997934946858713e-01  9.9998404240833005e-01  9.9998796991971062e-01  9.9999066370849454e-01  9.9998328025725169e-01  9.9990857031749680e-01  9.9995451485712983e-01  9.9994609551835700e-01  9.9993470826932829e-01  9.9992205952763691e-01  9.9990890396277732e-01  9.9989560334620076e-01  9.9988280435183319e-01  9.9987181549610904e-01  9.9986434818440595e-01  9.9986168946966536e-01  9.9986395164436914e-01  9.9987007485287904e-01  9.9987847661839513e-01  9.9988772046542840e-01  9.9989682549282310e-01  9.9990525730401558e-01  9.9991279030575042e-01  9.9991937339029191e-01  9.9992504531075599e-01  9.9992989312600822e-01  9.9993402950281807e-01  9.9993757372736825e-01  9.9994063720306603e-01  9.9994331899778477e-01  9.9994570997559740e-01  9.9994789866067579e-01  9.9994997399140428e-01  9.9995202579392872e-01  9.9995414606419131e-01  9.9995643131894119e-01  9.9995898249414550e-01  9.9996189792636558e-01  9.9996525598849717e-01  9.9996908567956211e-01  9.9997332947817175e-01  9.9997780719005080e-01  9.9998218861155541e-01  9.9998604010506076e-01  9.9998882694695956e-01  9.9998110055542144e-01  9.9978003210444699e-01  9.9991492708265362e-01  9.9991361301143811e-01  9.9990920557558072e-01  9.9990288517004278e-01  9.9989532177739815e-01  9.9988719197833187e-01  9.9987978415180168e-01  9.9987491678276463e-01  9.9987409053084964e-01  9.9987756113304227e-01  9.9988428487259529e-01  9.9989268475837978e-01  9.9990140721524012e-01  9.9990961252556498e-01  9.9991691497615165e-01  9.9992321597867129e-01  9.9992856117772777e-01  9.9993305213262684e-01  9.9993680312108790e-01  9.9993992516051311e-01  9.9994252164187403e-01  9.9994468668772629e-01  9.9994650419740561e-01  9.9994804877345600e-01  9.9994938894098484e-01  9.9995059116075946e-01  9.9995172291752155e-01  9.9995285478846840e-01  9.9995406216248739e-01  9.9995542660296877e-01  9.9995703483711595e-01  9.9995897295710323e-01  9.9996131227271523e-01  9.9996408601355269e-01  9.9996725844746992e-01  9.9997068933614475e-01  9.9997412185735202e-01  9.9997720108191879e-01  9.9997924684111350e-01  9.9996632148101872e-01  8.6835840001195663e-01  9.9955024625727795e-01  9.9974829851348823e-01  9.9981750193759089e-01  9.9984295548060897e-01  9.9985226894171975e-01  9.9985469237771529e-01  9.9985577171341689e-01  9.9985949008683372e-01  9.9986736249314367e-01  9.9987832690879597e-01  9.9989029939330532e-01  9.9990163500022577e-01  9.9991152507614334e-01  9.9991977222363781e-01  9.9992648594169664e-01  9.9993188415719914e-01  9.9993619561157143e-01  9.9993962186648599e-01  9.9994232853548248e-01  9.9994444868094845e-01  9.9994608957011433e-01  9.9994733884371179e-01  9.9994826918834656e-01  9.9994894215534180e-01  9.9994941178414887e-01  9.9994972798646919e-01  9.9994993931297738e-01  9.9995009458758544e-01  9.9995024358644058e-01  9.9995043646482462e-01  9.9995071943548830e-01  9.9995112447590284e-01  9.9995164700183425e-01  9.9995220773244253e-01  9.9995257273823135e-01  9.9995220150879183e-01  9.9994987332063001e-01  9.9994244089613571e-01  9.9992299575395704e-01  9.9984613948209400e-01  1.0486444718074508e-03  6.4486513038165091e-02  9.7643837133818456e-01  9.9921984308850120e-01  9.9961323787848588e-01  9.9972457815067195e-01  9.9976778892559215e-01  9.9979396544853860e-01  9.9981899211672076e-01  9.9984478387888465e-01  9.9986846049760303e-01  9.9988805910284728e-01  9.9990337197239254e-01  9.9991503144027649e-01  9.9992382750710440e-01  9.9993044635591233e-01  9.9993541796178387e-01  9.9993913362288456e-01  9.9994187772916943e-01  9.9994385661928942e-01  9.9994522094493532e-01  9.9994608192346834e-01  9.9994652260764894e-01  9.9994660554294124e-01  9.9994637784198603e-01  9.9994587439526994e-01  9.9994512011108772e-01  9.9994413091686996e-01  9.9994291153102088e-01  9.9994145019558356e-01  9.9993970792801024e-01  9.9993759698609774e-01  9.9993493368269737e-01  9.9993134259116490e-01  9.9992604667944285e-01  9.9991727608217884e-01  9.9990058575183560e-01  9.9986662853627439e-01  9.9975643211523590e-01  9.9701953097127094e-01  2.6603100067318355e-03  9.5098329054310517e-04  5.4766015933508348e-04  4.7168631027584229e-02  5.2150573155704816e-01  9.9524632076918951e-01  9.9900676156285106e-01  9.9943633171199331e-01  9.9961681382870693e-01  9.9972840099081239e-01  9.9980218329740145e-01  9.9984971750821350e-01  9.9988041185123544e-01  9.9990069321119990e-01  9.9991445217879082e-01  9.9992398656403736e-01  9.9993067489093623e-01  9.9993536835503360e-01  9.9993860890339370e-01  9.9994075123875914e-01  9.9994203251677150e-01  9.9994261324992983e-01  9.9994260161352744e-01  9.9994206803845276e-01  9.9994105433804148e-01  9.9993957793421417e-01  9.9993763178724926e-01  9.9993518184592090e-01  9.9993216097946047e-01  9.9992845337420277e-01  9.9992386147939805e-01  9.9991804571769227e-01  9.9991042088759285e-01  9.9989987392709856e-01  9.9988413504242002e-01  9.9985804468768780e-01  9.9980857834300285e-01  9.9971142302893323e-01  9.9932651194041722e-01  5.7871500641658513e-01  7.3575131975202128e-04  9.8041414728030404e-04  9.3790973266581713e-04  4.7016699782105516e-04  5.3045890510967366e-04  1.8582617394953700e-03  2.8064866895790086e-01  6.5930285101123309e-01  9.7397735743860570e-01  9.9865397383749444e-01  9.9951993985693510e-01  9.9973841002703623e-01  9.9982596059371032e-01  9.9987009103897573e-01  9.9989537836540721e-01  9.9991102747325100e-01  9.9992114590896142e-01  9.9992779875391402e-01  9.9993211693121697e-01  9.9993475952667354e-01  9.9993612716544500e-01  9.9993646821840709e-01  9.9993593448467821e-01  9.9993460937202805e-01  9.9993252229664875e-01  9.9992965515251497e-01  9.9992594104325305e-01  9.9992125063423309e-01  9.9991536294215866e-01  9.9990792769888359e-01  9.9989839235849243e-01  9.9988580177903408e-01  9.9986839887324586e-01  9.9984283282564523e-01  9.9980171493724723e-01  9.9973328527667393e-01  9.9960824182181574e-01  9.9919643085389764e-01  9.1847721518571479e-01  2.0307778420739786e-01  7.9455516572482640e-04  4.9082552896792585e-04  9.6041163267416478e-04  9.3847000538203819e-04  4.6989375705101057e-04  4.7238259649967466e-04  5.0791669790182722e-04  9.1859427470690719e-04  7.7121373895021814e-02  3.4469494479953228e-01  8.6327501182457755e-01  9.9920208795124354e-01  9.9968172160385149e-01  9.9980728588577561e-01  9.9986077447295496e-01  9.9988893812217161e-01  9.9990540033362296e-01  9.9991548606316216e-01  9.9992165921400977e-01  9.9992518800462737e-01  9.9992676899692479e-01  9.9992679317564592e-01  9.9992547065199722e-01  9.9992288942893215e-01  9.9991903715422781e-01  9.9991380015157705e-01  9.9990694216388176e-01  9.9989808311651929e-01  9.9988660610776459e-01  9.9987144790837723e-01  9.9985077254477162e-01  9.9982134169298009e-01  9.9977667899392908e-01  9.9970680682537472e-01  9.9959860613677065e-01  9.9937070230337655e-01  9.9830801384016599e-01  7.5564648527082867e-01  2.8637809424243188e-01  2.2390719409728452e-03  6.1177374700192031e-04  5.0216757874167631e-04  4.7340932712283820e-04  9.4036033089187716e-04  9.4026234250440383e-04  4.7194931208313802e-04  4.7485829382797588e-04  4.8720001288074055e-04  5.9985501290010920e-04  2.7773100728676636e-03  3.8452600663091174e-01  9.8912541537444520e-01  9.9928152287279948e-01  9.9968899341585060e-01  9.9980519307574911e-01  9.9985580059995716e-01  9.9988244247876590e-01  9.9989768745437901e-01  9.9990651582922119e-01  9.9991122400419552e-01  9.9991295812675662e-01  9.9991229199267262e-01  9.9990946984318574e-01  9.9990450687801391e-01  9.9989721482286897e-01  9.9988718265225718e-01  9.9987364907624798e-01  9.9985525264421105e-01  9.9982971109249530e-01  9.9979293741233988e-01  9.9973672749918074e-01  9.9965508816470072e-01  9.9953059783576303e-01  9.9925650313744074e-01  9.9813554514283365e-01  8.2743703520989009e-01  4.5019915730592192e-01  1.4355562342709580e-01  1.6218983544576925e-03  6.4952903156970370e-04  5.3933599716374464e-04  4.9359380810638949e-04  4.7566643117422216e-04  4.7091580664591957e-04  9.3774129965201237e-04  9.4274183995574198e-04  4.7510657635672937e-04  4.8028580259594869e-04  5.2465825957888920e-04  8.2945536238209438e-04  2.3913014891643819e-01  9.4285007943051058e-01  9.9898297863955066e-01  9.9956721566831808e-01  9.9974562920254162e-01  9.9981860052975569e-01  9.9985549582321320e-01  9.9987589634100338e-01  9.9988721184230467e-01  9.9989270422212950e-01  9.9989388477831576e-01  9.9989138040152370e-01  9.9988525851031895e-01  9.9987513932836258e-01  9.9986008335379728e-01  9.9983832820018770e-01  9.9980674968337391e-01  9.9975932331100292e-01  9.9968612733624440e-01  9.9958237247235882e-01  9.9940618158890471e-01  9.9892572246208888e-01  9.9532679147593506e-01  6.8989380150474067e-01  3.9160634652432591e-01  1.4124257633285076e-01  2.9715243830221788e-03  7.9662607224985523e-04  5.9244814778852532e-04  5.3398231356573513e-04  4.9714818453551967e-04  4.8084984044934937e-04  4.7671769887620998e-04  4.7419234013628157e-04  4.7176725281874727e-04  9.3911046495206421e-04  9.4522777273570266e-04  4.7830776310328740e-04  4.8924679297220855e-04  6.1021246396612632e-04  5.1602182255547802e-02  7.3566744821455454e-01  9.9889859439658335e-01  9.9954389438872082e-01  9.997255696