<?xml version="1.0"?>
<VTKFile type="UnstructuredGrid"  version="0.1"  >
<UnstructuredGrid>
<Piece  NumberOfPoints="1681" NumberOfCells="3200">
<Points>
<DataArray  type="Float64"  NumberOfComponents="3"  format="ascii">0 0 0  0.025 0 0  0.05 0 0  0.075 0 0  0.1 0 0  0.125 0 0  0.15 0 0  0.175 0 0  0.2 0 0  0.225 0 0  0.25 0 0  0.275 0 0  0.3 0 0  0.325 0 0  0.35 0 0  0.375 0 0  0.4 0 0  0.425 0 0  0.45 0 0  0.475 0 0  0.5 0 0  0.525 0 0  0.55 0 0  0.575 0 0  0.6 0 0  0.625 0 0  0.65 0 0  0.675 0 0  0.7 0 0  0.725 0 0  0.75 0 0  0.775 0 0  0.8 0 0  0.825 0 0  0.85 0 0  0.875 0 0  0.9 0 0  0.925 0 0  0.95 0 0  0.975 0 0  1 0 0  0 0.025 0  0.025 0.025 0  0.05 0.025 0  0.075 0.025 0  0.1 0.025 0  0.125 0.025 0  0.15 0.025 0  0.175 0.025 0  0.2 0.025 0  0.225 0.025 0  0.25 0.025 0  0.275 0.025 0  0.3 0.025 0  0.325 0.025 0  0.35 0.025 0  0.375 0.025 0  0.4 0.025 0  0.425 0.025 0  0.45 0.025 0  0.475 0.025 0  0.5 0.025 0  0.525 0.025 0  0.55 0.025 0  0.575 0.025 0  0.6 0.025 0  0.625 0.025 0  0.65 0.025 0  0.675 0.025 0  0.7 0.025 0  0.725 0.025 0  0.75 0.025 0  0.775 0.025 0  0.8 0.025 0  0.825 0.025 0  0.85 0.025 0  0.875 0.025 0  0.9 0.025 0  0.925 0.025 0  0.95 0.025 0  0.975 0.025 0  1 0.025 0  0 0.05 0  0.025 0.05 0  0.05 0.05 0  0.075 0.05 0  0.1 0.05 0  0.125 0.05 0  0.15 0.05 0  0.175 0.05 0  0.2 0.05 0  0.225 0.05 0  0.25 0.05 0  0.275 0.05 0  0.3 0.05 0  0.325 0.05 0  0.35 0.05 0  0.375 0.05 0  0.4 0.05 0  0.425 0.05 0  0.45 0.05 0  0.475 0.05 0  0.5 0.05 0  0.525 0.05 0  0.55 0.05 0  0.575 0.05 0  0.6 0.05 0  0.625 0.05 0  0.65 0.05 0  0.675 0.05 0  0.7 0.05 0  0.725 0.05 0  0.75 0.05 0  0.775 0.05 0  0.8 0.05 0  0.825 0.05 0  0.85 0.05 0  0.875 0.05 0  0.9 0.05 0  0.925 0.05 0  0.95 0.05 0  0.975 0.05 0  1 0.05 0  0 0.075 0  0.025 0.075 0  0.05 0.075 0  0.075 0.075 0  0.1 0.075 0  0.125 0.075 0  0.15 0.075 0  0.175 0.075 0  0.2 0.075 0  0.225 0.075 0  0.25 0.075 0  0.275 0.075 0  0.3 0.075 0  0.325 0.075 0  0.35 0.075 0  0.375 0.075 0  0.4 0.075 0  0.425 0.075 0  0.45 0.075 0  0.475 0.075 0  0.5 0.075 0  0.525 0.075 0  0.55 0.075 0  0.575 0.075 0  0.6 0.075 0  0.625 0.075 0  0.65 0.075 0  0.675 0.075 0  0.7 0.075 0  0.725 0.075 0  0.75 0.075 0  0.775 0.075 0  0.8 0.075 0  0.825 0.075 0  0.85 0.075 0  0.875 0.075 0  0.9 0.075 0  0.925 0.075 0  0.95 0.075 0  0.975 0.075 0  1 0.075 0  0 0.1 0  0.025 0.1 0  0.05 0.1 0  0.075 0.1 0  0.1 0.1 0  0.125 0.1 0  0.15 0.1 0  0.175 0.1 0  0.2 0.1 0  0.225 0.1 0  0.25 0.1 0  0.275 0.1 0  0.3 0.1 0  0.325 0.1 0  0.35 0.1 0  0.375 0.1 0  0.4 0.1 0  0.425 0.1 0  0.45 0.1 0  0.475 0.1 0  0.5 0.1 0  0.525 0.1 0  0.55 0.1 0  0.575 0.1 0  0.6 0.1 0  0.625 0.1 0  0.65 0.1 0  0.675 0.1 0  0.7 0.1 0  0.725 0.1 0  0.75 0.1 0  0.775 0.1 0  0.8 0.1 0  0.825 0.1 0  0.85 0.1 0  0.875 0.1 0  0.9 0.1 0  0.925 0.1 0  0.95 0.1 0  0.975 0.1 0  1 0.1 0  0 0.125 0  0.025 0.125 0  0.05 0.125 0  0.075 0.125 0  0.1 0.125 0  0.125 0.125 0  0.15 0.125 0  0.175 0.125 0  0.2 0.125 0  0.225 0.125 0  0.25 0.125 0  0.275 0.125 0  0.3 0.125 0  0.325 0.125 0  0.35 0.125 0  0.375 0.125 0  0.4 0.125 0  0.425 0.125 0  0.45 0.125 0  0.475 0.125 0  0.5 0.125 0  0.525 0.125 0  0.55 0.125 0  0.575 0.125 0  0.6 0.125 0  0.625 0.125 0  0.65 0.125 0  0.675 0.125 0  0.7 0.125 0  0.725 0.125 0  0.75 0.125 0  0.775 0.125 0  0.8 0.125 0  0.825 0.125 0  0.85 0.125 0  0.875 0.125 0  0.9 0.125 0  0.925 0.125 0  0.95 0.125 0  0.975 0.125 0  1 0.125 0  0 0.15 0  0.025 0.15 0  0.05 0.15 0  0.075 0.15 0  0.1 0.15 0  0.125 0.15 0  0.15 0.15 0  0.175 0.15 0  0.2 0.15 0  0.225 0.15 0  0.25 0.15 0  0.275 0.15 0  0.3 0.15 0  0.325 0.15 0  0.35 0.15 0  0.375 0.15 0  0.4 0.15 0  0.425 0.15 0  0.45 0.15 0  0.475 0.15 0  0.5 0.15 0  0.525 0.15 0  0.55 0.15 0  0.575 0.15 0  0.6 0.15 0  0.625 0.15 0  0.65 0.15 0  0.675 0.15 0  0.7 0.15 0  0.725 0.15 0  0.75 0.15 0  0.775 0.15 0  0.8 0.15 0  0.825 0.15 0  0.85 0.15 0  0.875 0.15 0  0.9 0.15 0  0.925 0.15 0  0.95 0.15 0  0.975 0.15 0  1 0.15 0  0 0.175 0  0.025 0.175 0  0.05 0.175 0  0.075 0.175 0  0.1 0.175 0  0.125 0.175 0  0.15 0.175 0  0.175 0.175 0  0.2 0.175 0  0.225 0.175 0  0.25 0.175 0  0.275 0.175 0  0.3 0.175 0  0.325 0.175 0  0.35 0.175 0  0.375 0.175 0  0.4 0.175 0  0.425 0.175 0  0.45 0.175 0  0.475 0.175 0  0.5 0.175 0  0.525 0.175 0  0.55 0.175 0  0.575 0.175 0  0.6 0.175 0  0.625 0.175 0  0.65 0.175 0  0.675 0.175 0  0.7 0.175 0  0.725 0.175 0  0.75 0.175 0  0.775 0.175 0  0.8 0.175 0  0.825 0.175 0  0.85 0.175 0  0.875 0.175 0  0.9 0.175 0  0.925 0.175 0  0.95 0.175 0  0.975 0.175 0  1 0.175 0  0 0.2 0  0.025 0.2 0  0.05 0.2 0  0.075 0.2 0  0.1 0.2 0  0.125 0.2 0  0.15 0.2 0  0.175 0.2 0  0.2 0.2 0  0.225 0.2 0  0.25 0.2 0  0.275 0.2 0  0.3 0.2 0  0.325 0.2 0  0.35 0.2 0  0.375 0.2 0  0.4 0.2 0  0.425 0.2 0  0.45 0.2 0  0.475 0.2 0  0.5 0.2 0  0.525 0.2 0  0.55 0.2 0  0.575 0.2 0  0.6 0.2 0  0.625 0.2 0  0.65 0.2 0  0.675 0.2 0  0.7 0.2 0  0.725 0.2 0  0.75 0.2 0  0.775 0.2 0  0.8 0.2 0  0.825 0.2 0  0.85 0.2 0  0.875 0.2 0  0.9 0.2 0  0.925 0.2 0  0.95 0.2 0  0.975 0.2 0  1 0.2 0  0 0.225 0  0.025 0.225 0  0.05 0.225 0  0.075 0.225 0  0.1 0.225 0  0.125 0.225 0  0.15 0.225 0  0.175 0.225 0  0.2 0.225 0  0.225 0.225 0  0.25 0.225 0  0.275 0.225 0  0.3 0.225 0  0.325 0.225 0  0.35 0.225 0  0.375 0.225 0  0.4 0.225 0  0.425 0.225 0  0.45 0.225 0  0.475 0.225 0  0.5 0.225 0  0.525 0.225 0  0.55 0.225 0  0.575 0.225 0  0.6 0.225 0  0.625 0.225 0  0.65 0.225 0  0.675 0.225 0  0.7 0.225 0  0.725 0.225 0  0.75 0.225 0  0.775 0.225 0  0.8 0.225 0  0.825 0.225 0  0.85 0.225 0  0.875 0.225 0  0.9 0.225 0  0.925 0.225 0  0.95 0.225 0  0.975 0.225 0  1 0.225 0  0 0.25 0  0.025 0.25 0  0.05 0.25 0  0.075 0.25 0  0.1 0.25 0  0.125 0.25 0  0.15 0.25 0  0.175 0.25 0  0.2 0.25 0  0.225 0.25 0  0.25 0.25 0  0.275 0.25 0  0.3 0.25 0  0.325 0.25 0  0.35 0.25 0  0.375 0.25 0  0.4 0.25 0  0.425 0.25 0  0.45 0.25 0  0.475 0.25 0  0.5 0.25 0  0.525 0.25 0  0.55 0.25 0  0.575 0.25 0  0.6 0.25 0  0.625 0.25 0  0.65 0.25 0  0.675 0.25 0  0.7 0.25 0  0.725 0.25 0  0.75 0.25 0  0.775 0.25 0  0.8 0.25 0  0.825 0.25 0  0.85 0.25 0  0.875 0.25 0  0.9 0.25 0  0.925 0.25 0  0.95 0.25 0  0.975 0.25 0  1 0.25 0  0 0.275 0  0.025 0.275 0  0.05 0.275 0  0.075 0.275 0  0.1 0.275 0  0.125 0.275 0  0.15 0.275 0  0.175 0.275 0  0.2 0.275 0  0.225 0.275 0  0.25 0.275 0  0.275 0.275 0  0.3 0.275 0  0.325 0.275 0  0.35 0.275 0  0.375 0.275 0  0.4 0.275 0  0.425 0.275 0  0.45 0.275 0  0.475 0.275 0  0.5 0.275 0  0.525 0.275 0  0.55 0.275 0  0.575 0.275 0  0.6 0.275 0  0.625 0.275 0  0.65 0.275 0  0.675 0.275 0  0.7 0.275 0  0.725 0.275 0  0.75 0.275 0  0.775 0.275 0  0.8 0.275 0  0.825 0.275 0  0.85 0.275 0  0.875 0.275 0  0.9 0.275 0  0.925 0.275 0  0.95 0.275 0  0.975 0.275 0  1 0.275 0  0 0.3 0  0.025 0.3 0  0.05 0.3 0  0.075 0.3 0  0.1 0.3 0  0.125 0.3 0  0.15 0.3 0  0.175 0.3 0  0.2 0.3 0  0.225 0.3 0  0.25 0.3 0  0.275 0.3 0  0.3 0.3 0  0.325 0.3 0  0.35 0.3 0  0.375 0.3 0  0.4 0.3 0  0.425 0.3 0  0.45 0.3 0  0.475 0.3 0  0.5 0.3 0  0.525 0.3 0  0.55 0.3 0  0.575 0.3 0  0.6 0.3 0  0.625 0.3 0  0.65 0.3 0  0.675 0.3 0  0.7 0.3 0  0.725 0.3 0  0.75 0.3 0  0.775 0.3 0  0.8 0.3 0  0.825 0.3 0  0.85 0.3 0  0.875 0.3 0  0.9 0.3 0  0.925 0.3 0  0.95 0.3 0  0.975 0.3 0  1 0.3 0  0 0.325 0  0.025 0.325 0  0.05 0.325 0  0.075 0.325 0  0.1 0.325 0  0.125 0.325 0  0.15 0.325 0  0.175 0.325 0  0.2 0.325 0  0.225 0.325 0  0.25 0.325 0  0.275 0.325 0  0.3 0.325 0  0.325 0.325 0  0.35 0.325 0  0.375 0.325 0  0.4 0.325 0  0.425 0.325 0  0.45 0.325 0  0.475 0.325 0  0.5 0.325 0  0.525 0.325 0  0.55 0.325 0  0.575 0.325 0  0.6 0.325 0  0.625 0.325 0  0.65 0.325 0  0.675 0.325 0  0.7 0.325 0  0.725 0.325 0  0.75 0.325 0  0.775 0.325 0  0.8 0.325 0  0.825 0.325 0  0.85 0.325 0  0.875 0.325 0  0.9 0.325 0  0.925 0.325 0  0.95 0.325 0  0.975 0.325 0  1 0.325 0  0 0.35 0  0.025 0.35 0  0.05 0.35 0  0.075 0.35 0  0.1 0.35 0  0.125 0.35 0  0.15 0.35 0  0.175 0.35 0  0.2 0.35 0  0.225 0.35 0  0.25 0.35 0  0.275 0.35 0  0.3 0.35 0  0.325 0.35 0  0.35 0.35 0  0.375 0.35 0  0.4 0.35 0  0.425 0.35 0  0.45 0.35 0  0.475 0.35 0  0.5 0.35 0  0.525 0.35 0  0.55 0.35 0  0.575 0.35 0  0.6 0.35 0  0.625 0.35 0  0.65 0.35 0  0.675 0.35 0  0.7 0.35 0  0.725 0.35 0  0.75 0.35 0  0.775 0.35 0  0.8 0.35 0  0.825 0.35 0  0.85 0.35 0  0.875 0.35 0  0.9 0.35 0  0.925 0.35 0  0.95 0.35 0  0.975 0.35 0  1 0.35 0  0 0.375 0  0.025 0.375 0  0.05 0.375 0  0.075 0.375 0  0.1 0.375 0  0.125 0.375 0  0.15 0.375 0  0.175 0.375 0  0.2 0.375 0  0.225 0.375 0  0.25 0.375 0  0.275 0.375 0  0.3 0.375 0  0.325 0.375 0  0.35 0.375 0  0.375 0.375 0  0.4 0.375 0  0.425 0.375 0  0.45 0.375 0  0.475 0.375 0  0.5 0.375 0  0.525 0.375 0  0.55 0.375 0  0.575 0.375 0  0.6 0.375 0  0.625 0.375 0  0.65 0.375 0  0.675 0.375 0  0.7 0.375 0  0.725 0.375 0  0.75 0.375 0  0.775 0.375 0  0.8 0.375 0  0.825 0.375 0  0.85 0.375 0  0.875 0.375 0  0.9 0.375 0  0.925 0.375 0  0.95 0.375 0  0.975 0.375 0  1 0.375 0  0 0.4 0  0.025 0.4 0  0.05 0.4 0  0.075 0.4 0  0.1 0.4 0  0.125 0.4 0  0.15 0.4 0  0.175 0.4 0  0.2 0.4 0  0.225 0.4 0  0.25 0.4 0  0.275 0.4 0  0.3 0.4 0  0.325 0.4 0  0.35 0.4 0  0.375 0.4 0  0.4 0.4 0  0.425 0.4 0  0.45 0.4 0  0.475 0.4 0  0.5 0.4 0  0.525 0.4 0  0.55 0.4 0  0.575 0.4 0  0.6 0.4 0  0.625 0.4 0  0.65 0.4 0  0.675 0.4 0  0.7 0.4 0  0.725 0.4 0  0.75 0.4 0  0.775 0.4 0  0.8 0.4 0  0.825 0.4 0  0.85 0.4 0  0.875 0.4 0  0.9 0.4 0  0.925 0.4 0  0.95 0.4 0  0.975 0.4 0  1 0.4 0  0 0.425 0  0.025 0.425 0  0.05 0.425 0  0.075 0.425 0  0.1 0.425 0  0.125 0.425 0  0.15 0.425 0  0.175 0.425 0  0.2 0.425 0  0.225 0.425 0  0.25 0.425 0  0.275 0.425 0  0.3 0.425 0  0.325 0.425 0  0.35 0.425 0  0.375 0.425 0  0.4 0.425 0  0.425 0.425 0  0.45 0.425 0  0.475 0.425 0  0.5 0.425 0  0.525 0.425 0  0.55 0.425 0  0.575 0.425 0  0.6 0.425 0  0.625 0.425 0  0.65 0.425 0  0.675 0.425 0  0.7 0.425 0  0.725 0.425 0  0.75 0.425 0  0.775 0.425 0  0.8 0.425 0  0.825 0.425 0  0.85 0.425 0  0.875 0.425 0  0.9 0.425 0  0.925 0.425 0  0.95 0.425 0  0.975 0.425 0  1 0.425 0  0 0.45 0  0.02
[...]
<PointData  Scalars="ControlVisualisation"> 
<DataArray  type="Float64"  Name="ControlVisualisation"  format="ascii">1.1290287065937631e-03  7.5299171161693167e-04  7.5317364465514577e-04  7.5358928297728064e-04  7.5429520936495245e-04  7.5524608140289213e-04  7.5630137909826680e-04  7.5729704965858918e-04  7.5811891289670539e-04  7.5872859441468400e-04  7.5914272906939956e-04  7.5939890717740904e-04  7.5953492026225970e-04  7.5958445775824136e-04  7.5957720323671012e-04  7.5953341029949160e-04  7.5945939912447249e-04  7.5934805771394633e-04  7.5919854918715603e-04  7.5903236229454504e-04  7.5887982140165498e-04  7.5873952325772038e-04  7.5855996477691571e-04  7.5832446361494591e-04  7.5808901265679487e-04  7.5793457981460359e-04  7.5785336182525233e-04  7.5771106635739906e-04  7.5735552291010956e-04  7.5677453696287790e-04  7.5606947884854182e-04  7.5530933517666118e-04  7.5453222290319702e-04  7.5381855104039524e-04  7.5327332941616779e-04  7.5299089200137797e-04  7.5298442390230567e-04  7.5308686543038559e-04  7.5307635991627927e-04  7.5297241520054308e-04  2.2557813942886847e-03  7.5297888438447392e-04  3.7666913036821551e-04  3.7685441909113135e-04  3.7729238203934340e-04  3.7805760861834946e-04  3.7911320372227461e-04  3.8031007170499309e-04  3.8145974166662651e-04  3.8242164731518212e-04  3.8314280472827891e-04  3.8363840688311694e-04  3.8394982565489126e-04  3.8411860965736888e-04  3.8418219501885984e-04  3.8417592675798952e-04  3.8412864740197959e-04  3.8405426426143391e-04  3.8393813203477397e-04  3.8376749322963273e-04  3.8356693757802797e-04  3.8338896888325159e-04  3.8324235407935454e-04  3.8306240440947145e-04  3.8279193529663973e-04  3.8248574261438015e-04  3.8227376083937276e-04  3.8219716935292689e-04  3.8217340418097387e-04  3.8186796782012448e-04  3.8125242598190660e-04  3.8048975735198963e-04  3.7966685301310174e-04  3.7880906053682650e-04  3.7795512634878042e-04  3.7724540076359631e-04  3.7683007197084170e-04  3.7673417951014648e-04  3.7682902613984107e-04  3.7685269524506432e-04  3.7673451609719324e-04  7.5298140735788636e-04  7.5302373346115945e-04  3.7676133270013733e-04  3.7705901729260616e-04  3.7769293182491741e-04  3.7872999302456938e-04  3.8006864709206126e-04  3.8150039709608920e-04  3.8279265911475867e-04  3.8379732641692172e-04  3.8450221811854590e-04  3.8496836163418106e-04  3.8525390239298857e-04  3.8539396514355962e-04  3.8541925771916542e-04  3.8537191962582251e-04  3.8530448237330850e-04  3.8523923182194776e-04  3.8512894228449857e-04  3.8490643027319605e-04  3.8460625558858319e-04  3.8436972514235861e-04  3.8428318236440642e-04  3.8425469737989607e-04  3.8391481020477611e-04  3.8343221541148727e-04  3.8318896124447889e-04  3.8342465016432287e-04  3.8414538250973798e-04  3.8421957533683453e-04  3.8398496828549728e-04  3.8384735071258136e-04  3.8359122680866210e-04  3.8265653224503368e-04  3.8076125196945953e-04  3.7888822834850229e-04  3.7780100272204170e-04  3.7744189216180104e-04  3.7747576641023806e-04  3.7756176215727642e-04  3.7732001301676529e-04  7.5333104323838877e-04  7.5298793887302728e-04  3.7685567145336296e-04  3.7745066274942396e-04  3.7855448130286336e-04  3.7998400926019107e-04  3.8154126085422396e-04  3.8306566631500261e-04  3.8422533009145463e-04  3.8491260860894357e-04  3.8529310964288482e-04  3.8553577218661982e-04  3.8569103852572619e-04  3.8573643768641507e-04  3.8566322925901532e-04  3.8551930017696360e-04  3.8540966591106514e-04  3.8538069825047578e-04  3.8545043492704459e-04  3.8523009107383811e-04  3.8474489288257155e-04  3.8444592339307139e-04  3.8483835317869839e-04  3.8579256681202709e-04  3.8599425664034262e-04  3.8698691691942068e-04  3.9074694092834135e-04  3.9978590694445063e-04  4.1729807731899862e-04  4.3309201130350392e-04  4.4689060403976653e-04  4.6728975806064422e-04  4.8676259493981477e-04  4.9558951720190072e-04  4.8457737844840318e-04  4.6340918146524698e-04  4.3181227342551937e-04  3.9268406767019087e-04  3.7947835109829051e-04  3.8004267255810559e-04  3.7997983644053745e-04  7.5484412421570691e-04  7.5316827695114466e-04  3.7749345979720146e-04  3.7954864203195750e-04  3.8313771314795023e-04  3.8563786429208455e-04  3.8676142302186456e-04  3.8758250711969902e-04  3.8749775180511420e-04  3.8693437427499144e-04  3.8646989916839774e-04  3.8632353270547082e-04  3.8633722086909108e-04  3.8629226383012625e-04  3.8608464736288489e-04  3.8578480033536332e-04  3.8561374331738397e-04  3.8582358663085802e-04  3.8687722879668872e-04  3.8713587069666167e-04  3.8737413475130328e-04  3.8999421903120290e-04  3.9978962648570094e-04  4.2220789889637738e-04  4.4653369798011217e-04  4.8199301246452063e-04  5.6117957874742550e-04  7.4517864393130366e-04  1.4112688689659595e-03  1.8605608234211340e-02  1.0370068133180144e-01  1.8489188374033930e-01  2.5544592842219810e-01  2.9313301630141475e-01  2.8448161013531581e-01  2.2487283880670278e-01  1.0126002191345666e-01  1.7088199546563556e-03  5.7986499076491524e-04  4.0170396019749644e-04  3.8847892938052235e-04  7.6133347552231499e-04  8.2916510086904487e-04  3.9722344179912082e-04  4.2790859946920394e-04  4.6441024789813974e-04  4.9278768221488599e-04  4.8603587005256369e-04  4.6277217470314975e-04  4.3096090090979363e-04  4.0677687197720520e-04  3.9657428177215087e-04  3.9265661214494754e-04  3.9121037661339283e-04  3.9069371242089101e-04  3.9061575828927932e-04  3.9122837182252554e-04  3.9342381979629053e-04  3.9959834483212420e-04  4.1751634213664220e-04  4.3931812351172430e-04  4.6568350722249078e-04  5.2515581357775011e-04  6.7981201705450951e-04  1.3438371655781702e-03  4.2954495550842658e-02  1.9411258300708478e-01  3.7114601562694088e-01  5.7466160813918232e-01  7.8623154896182412e-01  9.8718660241059353e-01  9.9817185303330436e-01  9.9899603890144428e-01  9.9926345040114206e-01  9.9937326579708852e-01  9.9940103193643792e-01  9.9933785924635843e-01  9.9902506004401026e-01  9.9587568521236247e-01  5.8740361110829775e-01  4.4109581991345050e-02  4.6155233363868667e-04  8.7146526574546934e-04  8.8222551357659818e-04  7.8963677728335717e-04  1.2127895178961426e-01  2.5828314150617843e-01  2.6713260186485083e-01  2.0532833958891511e-01  1.1027430879184198e-01  1.8792761974241394e-02  1.3636535479704427e-03  7.3590531851039462e-04  5.8426115118658580e-04  5.2694150902048425e-04  5.0622177551634434e-04  5.0730459578077322e-04  5.2884280108077286e-04  5.8038043962871724e-04  7.0212513855630418e-04  1.1187593753128947e-03  9.0830537823994861e-03  1.2875331904284493e-01  2.9249686059138036e-01  5.0028358701994413e-01  7.4312195404476034e-01  9.9128951350116346e-01  9.9874132470859511e-01  9.9934579534644274e-01  9.9955763253329066e-01  9.9966375924553952e-01  9.9972710439847456e-01  9.9977357800975841e-01  9.9980861433471269e-01  9.9983244794296122e-01  9.9984881291121974e-01  9.9985934644899110e-01  9.9986399260976144e-01  9.9986054469967045e-01  9.9984181818776252e-01  9.9978923606315262e-01  9.9958696416202597e-01  4.2236949769487769e-01  8.9528080866163096e-04  9.9885624168093678e-01  9.9909228101032821e-01  9.9946593525812122e-01  9.9946357559788535e-01  9.9930201286288955e-01  9.9888073780191222e-01  9.9688659129856616e-01  8.9342404977519330e-01  6.6847734472268372e-01  4.7084637155441555e-01  3.2559887485971156e-01  2.3556424678770732e-01  1.9802989877783828e-01  2.0784522484197049e-01  2.6297843459594128e-01  3.6114040412648285e-01  5.0219065768063120e-01  6.8068973014453915e-01  9.1906132050617795e-01  9.9784505310761307e-01  9.9913925380545943e-01  9.9947824197702273e-01  9.9962753881501354e-01  9.9971050946895634e-01  9.9977067415506848e-01  9.9981591741590992e-01  9.9984720760771406e-01  9.9987012730568225e-01  9.9988749891894046e-01  9.9990093140201386e-01  9.9991157610695047e-01  9.9992029826997442e-01  9.9992769560250605e-01  9.9993410836077012e-01  9.9993966475169094e-01  9.9994430371585497e-01  9.9994772024020373e-01  9.9994904834055354e-01  9.9994575018091081e-01  9.9993212993579739e-01  9.9963985892347240e-01  9.9987734590746791e-01  9.9991626989293048e-01  9.9989668773859464e-01  9.9987018319862786e-01  9.9983606683762793e-01  9.9978925793137285e-01  9.9971878830357352e-01  9.9960899680745607e-01  9.9944532177793577e-01  9.9919873688520000e-01  9.9881715962981743e-01  9.9834047693136718e-01  9.9810371499883477e-01  9.9838475519153902e-01  9.9884718996259025e-01  9.9920354990247529e-01  9.9943291505086240e-01  9.9957761371010045e-01  9.9966854870914701e-01  9.9973554492293426e-01  9.9978886145371282e-01  9.9982787114383642e-01  9.9985616839314595e-01  9.9987728768825535e-01  9.9989334033115751e-01  9.9990585336730908e-01  9.9991593097156872e-01  9.9992431668482185e-01  9.9993146565029301e-01  9.9993768685781814e-01  9.9994324056022343e-01  9.9994836822672339e-01  9.9995327805505385e-01  9.9995812018671415e-01  9.9996297579221638e-01  9.9996784725937093e-01  9.9997263755689503e-01  9.9997712473897760e-01  9.9998095155854638e-01  9.9998364444155552e-01  9.9996133363051176e-01  9.9993553090263665e-01  9.9996106989417599e-01  9.9994985450072915e-01  9.9993435647990514e-01  9.9991597308818969e-01  9.9989475453804388e-01  9.9986980469364783e-01  9.9983989460539791e-01  9.9980469414035766e-01  9.9976656213539716e-01  9.9973191829703667e-01  9.9970989398279864e-01  9.9970715992384263e-01  9.9972306285534440e-01  9.9975081344265382e-01  9.9978265678939449e-01  9.9981330490753806e-01  9.9984019537213220e-01  9.9986254046143785e-01  9.9988055763184414e-01  9.9989497628639301e-01  9.9990662451648848e-01  9.9991617734395188e-01  9.9992409758094369e-01  9.9993072103823333e-01  9.9993633601273724e-01  9.9994119924562619e-01  9.9994552538292969e-01  9.9994947872924045e-01  9.9995319268344207e-01  9.9995679130846682e-01  9.9996039896672007e-01  9.9996413108550053e-01  9.9996807394057474e-01  9.9997226021376073e-01  9.9997663874645892e-01  9.9998104576928604e-01  9.9998519365854965e-01  9.9998869575679317e-01  9.9999111111942995e-01  9.9998278717667644e-01  9.9994371213134414e-01  9.9996888930133088e-01  9.9996085626252174e-01  9.9994961735772503e-01  9.9993652068404493e-01  9.9992230799846493e-01  9.9990721337880195e-01  9.9989150844817187e-01  9.9987614839107963e-01  9.9986300891568236e-01  9.9985437652945808e-01  9.9985181813888679e-01  9.9985530002492806e-01  9.9986334283769751e-01  9.9987392849450263e-01  9.9988532017181120e-01  9.9989637413161259e-01  9.9990647142179667e-01  9.9991534479309685e-01  9.9992295361878092e-01  9.9992940187569035e-01  9.9993486495296913e-01  9.9993952638007466e-01  9.9994353917206080e-01  9.9994702981207162e-01  9.9995011225450459e-01  9.9995289547466637e-01  9.9995548245727783e-01  9.9995796730790143e-01  9.9996043895902831e-01  9.9996298718855081e-01  9.9996570442145039e-01  9.9996867790835875e-01  9.9997197198389154e-01  9.9997560120854279e-01  9.9997949619614523e-01  9.9998347533941490e-01  9.9998723119724886e-01  9.9999037470715868e-01  9.9999253067944260e-01  9.9998662200179478e-01  9.9992683661380621e-01  9.9996359643709831e-01  9.9995683276364833e-01  9.9994767313696420e-01  9.9993748954601525e-01  9.9992690997191025e-01  9.9991627230521918e-01  9.9990616140581723e-01  9.9989767999552726e-01  9.9989218849612083e-01  9.9989061480902619e-01  9.9989290140815301e-01  9.9989809566507670e-01  9.9990491329925801e-01  9.9991224980965621e-01  9.9991938144056325e-01  9.9992592906461442e-01  9.9993174044191990e-01  9.9993678930777041e-01  9.9994111658545204e-01  9.9994480036964051e-01  9.9994793652893255e-01  9.9995062224841869e-01  9.9995294521084810e-01  9.9995498234000157e-01  9.9995680431069334e-01  9.9995848016542210e-01  9.9996007888149885e-01  9.9996167012074466e-01  9.9996332599559345e-01  9.9996512338480281e-01  9.9996714333124215e-01  9.9996946457943992e-01  9.9997214898662112e-01  9.9997521785411136e-01  9.9997862259302261e-01  9.9998221637196127e-01  9.9998573274402369e-01  9.9998882315962989e-01  9.9999105866236426e-01  9.9998487708737738e-01  9.9982384391081458e-01  9.9993189863209908e-01  9.9993077393750895e-01  9.9992714223444190e-01  9.9992195774252457e-01  9.9991578317107566e-01  9.9990922007318594e-01  9.9990338076840002e-01  9.9989976556966942e-01  9.9989952112167868e-01  9.9990271863791991e-01  9.9990840622138477e-01  9.9991528333338009e-01  9.9992229115253706e-01  9.9992880295532249e-01  9.9993454894352474e-01  9.9993947513574566e-01  9.9994363096921457e-01  9.9994710351633820e-01  9.9994998764081255e-01  9.9995237503601520e-01  9.9995435090067353e-01  9.9995599200296759e-01  9.9995736576489858e-01  9.9995853160669002e-01  9.9995954388006780e-01  9.9996045524089228e-01  9.9996131913681907e-01  9.9996219138411746e-01  9.9996313194732733e-01  9.9996420619519377e-01  9.9996548386075779e-01  9.9996703400167752e-01  9.9996891319150916e-01  9.9997114677310195e-01  9.9997370427681276e-01  9.9997647126985145e-01  9.9997924026587970e-01  9.9998172581272715e-01  9.9998338206131954e-01  9.9997304754964400e-01  8.6308190860633638e-01  9.9963930434110937e-01  9.9979794468657401e-01  9.9985325513801071e-01  9.9987344551987145e-01  9.9988071589066074e-01  9.9988258949810493e-01  9.9988364187523171e-01  9.9988707016612999e-01  9.9989390934690492e-01  9.9990310734609300e-01  9.9991292168549839e-01  9.9992206885051893e-01  9.9992996313632743e-01  9.9993649524783368e-01  9.9994178141324741e-01  9.9994601019329976e-01  9.9994937044105014e-01  9.9995202528591243e-01  9.9995410787916483e-01  9.9995572532010957e-01  9.9995696422955771e-01  9.9995789547823444e-01  9.9995857768733198e-01  9.9995906021441927e-01  9.9995938643503268e-01  9.9995959640414200e-01  9.9995972911699937e-01  9.9995982380627668e-01  9.9995992052417604e-01  9.9996005979937452e-01  9.9996027901755158e-01  9.9996060391195085e-01  9.9996103034650463e-01  9.9996149372338305e-01  9.9996180498005216e-01  9.9996152898709822e-01  9.9995968602351992e-01  9.9995374532603487e-01  9.9993823209688770e-01  9.9987684588997072e-01  8.4319899641730378e-04  6.6540591685079517e-02  9.7471878224027175e-01  9.9936698129090307e-01  9.9968614286890400e-01  9.9977614790058988e-01  9.9981118878920860e-01  9.9983305704847958e-01  9.9985427288589812e-01  9.9987582531791108e-01  9.9989523194422414e-01  9.9991105743877773e-01  9.9992329698505034e-01  9.9993255195161168e-01  9.9993949846319696e-01  9.9994470253357515e-01  9.9994859341412778e-01  9.9995148468804596e-01  9.9995360297831093e-01  9.9995511238004520e-01  9.9995613293134966e-01  9.9995675354648006e-01  9.9995704085220771e-01  9.9995704508390504e-01  9.9995680410503740e-01  9.9995634588612037e-01  9.9995569075152757e-01  9.9995485187910393e-01  9.9995383343748323e-01  9.9995262625940651e-01  9.9995119925445664e-01  9.9994948189038735e-01  9.9994732540107012e-01  9.9994442579398202e-01  9.9994015311742201e-01  9.9993307423566713e-01  9.9991958957671412e-01  9.9989229647372535e-01  9.9980318099688259e-01  9.9749218238063631e-01  2.1416328285157127e-03  7.6430424985882703e-04  4.4021120462721619e-04  4.9702468489962605e-02  5.2363417258032663e-01  9.9575183940837486e-01  9.9917648630197620e-01  9.9953538799296571e-01  9.9968791524490352e-01  9.9978179781485010e-01  9.9984230514680705e-01  9.9988057651495421e-01  9.9990503426393296e-01  9.9992110121417055e-01  9.9993196043894705e-01  9.9993946137947198e-01  9.9994470368920751e-01  9.9994836265666753e-01  9.9995086696118085e-01  9.9995249685322796e-01  9.9995343978327100e-01  9.9995382284876855e-01  9.9995373179324032e-01  9.9995322251082153e-01  9.9995232808411505e-01  9.9995106178364068e-01  9.9994941715712304e-01  9.9994736626927372e-01  9.9994485496574770e-01  9.9994178951105639e-01  9.9993800809864553e-01  9.9993323474000950e-01  9.9992699098058568e-01  9.9991836377350629e-01  9.9990548947833291e-01  9.9988411394585630e-01  9.9984401332553774e-01  9.9976482538119016e-01  9.9944389413947532e-01  5.6648422091749284e-01  5.8760041983082936e-04  7.8793213935646742e-04  7.5349433773525616e-04  3.7775481912217894e-04  4.2582393058492350e-04  1.5075834988694931e-03  2.8079978709605286e-01  6.5421743471438265e-01  9.6160016287880901e-01  9.9890132498656425e-01  9.9962053423316477e-01  9.9979354825008404e-01  9.9986235995067152e-01  9.9989700040948237e-01  9.9991684640309830e-01  9.9992912058571737e-01  9.9993704164445374e-01  9.9994222715510983e-01  9.9994556299814119e-01  9.9994756555015274e-01  9.9994854881548656e-01  9.9994870768971300e-01  9.9994816105850037e-01  9.9994697326850868e-01  9.9994516549802048e-01  9.9994272069650658e-01  9.9993958136327921e-01  9.9993563774561489e-01  9.9993070329261047e-01  9.9992448969718473e-01  9.9991653714015727e-01  9.9990604113012360e-01  9.9989153257298058e-01  9.9987018684183904e-01  9.9983573156192507e-01  9.9977937698837460e-01  9.9967557370122784e-01  9.9931725776605429e-01  8.9249129481095735e-01  1.9122480464433012e-01  6.2894677103137581e-04  3.9415752903595015e-04  7.7170623181816627e-04  7.5395978431741170e-04  3.7759416283372115e-04  3.7956130119951649e-04  4.0814777704813730e-04  7.4676711566545265e-04  7.3522279832352475e-02  3.4335032232074209e-01  8.9363259056830202e-01  9.9939478124897918e-01  9.9975250855405629e-01  9.9984840743844539e-01  9.9988977326386907e-01  9.9991167550903881e-01  9.9992449840528863e-01  9.9993233633833734e-01  9.9993709322125301e-01  9.9993975143007008e-01  9.9994085020600953e-01  9.9994069128577823e-01  9.9993943529808327e-01  9.9993714604489403e-01  9.9993380515333863e-01  9.9992930866332808e-01  9.9992345296653051e-01  9.9991591134205460e-01  9.9990614797932365e-01  9.9989322783602197e-01  9.9987556779131159e-01  9.9985033613493690e-01  9.9981176112972481e-01  9.9975335427949874e-01  9.9966150158923972e-01  9.9945438358604133e-01  9.9836876676106212e-01  7.2623500573217004e-01  2.7447231102739172e-01  1.5916618169617607e-03  4.8665174966921343e-04  4.0291316438903285e-04  3.8032231915006856e-04  7.5542316492956433e-04  7.5542700123586886e-04  3.7928322640597259e-04  3.8162389356107235e-04  3.9222912429788081e-04  4.9367410310272692e-04  3.6493799701357950e-03  4.1805885204884574e-01  9.9473542213345600e-01  9.9946421014300391e-01  9.9975971247965534e-01  9.9984706565362647e-01  9.9988581506013685e-01  9.9990636621097118e-01  9.9991813298708299e-01  9.9992489300370235e-01  9.9992839745159334e-01  9.9992951862269341e-01  9.9992868572735194e-01  9.9992607016935109e-01  9.9992165888260032e-01  9.9991527502091415e-01  9.9990654075664287e-01  9.9989475565259034e-01  9.9987869730332102e-01  9.9985630077050669e-01  9.9982381767603556e-01  9.9977358791702753e-01  9.9970318666480507e-01  9.9959293676170136e-01  9.9932274071832372e-01  9.9797779130636899e-01  7.8375674042035681e-01  4.2179223122720505e-01  1.2665293440042119e-01  1.1319262082514850e-03  5.1164386977288630e-04  4.3105367570631217e-04  3.9558041448521989e-04  3.8209355293959045e-04  3.7835444081635430e-04  7.5330732775860589e-04  7.5743536306744274e-04  3.8180867521393736e-04  3.8586329346837272e-04  4.2279593266316974e-04  7.0892750778645463e-04  2.3797922448482650e-01  9.6991404844799789e-01  9.9925182641086241e-01  9.9967027509862516e-01  9.9980216377601216e-01  9.9985716286698700e-01  9.9988528222253270e-01  9.9990086024602054e-01  9.9990941398248934e-01  9.9991338367008320e-01  9.9991388526230562e-01  9.9991134928180170e-01  9.9990575966100403e-01  9.9989671466684493e-01  9.9988330558395455e-01  9.9986389492128069e-01  9.9983548272232570e-01  9.9979210556694753e-01  9.9972856518397191e-01  9.9963634007704949e-01  9.9945822772251458e-01  9.9890994572794656e-01  9.8572925724554850e-01  6.4047548431690748e-01  3.5905579296978363e-01  1.1880601317353512e-01  1.6405738086508015e-03  6.0162224854166924e-04  4.6873064711864160e-04  4.2645521483058860e-04  3.9772586962454000e-04  3.8614533621522988e-04  3.8300209991540133e-04  3.8097895033046685e-04  3.7904387800009962e-04  7.5441537098674797e-04  7.5951205270486906e-04  3.8453349396322102e-04  3.9507215076267692e-04  5.0246874418118472e-04  4.4975452985068672e-02  7.6177605679543814e-01  9.9918748397610624e-01  9.9965049706307119e-01  9.997868232