<?xml version="1.0"?>
<VTKFile type="UnstructuredGrid"  version="0.1"  >
<UnstructuredGrid>
<Piece  NumberOfPoints="1681" NumberOfCells="3200">
<Points>
<DataArray  type="Float64"  NumberOfComponents="3"  format="ascii">0 0 0  0.025 0 0  0.05 0 0  0.075 0 0  0.1 0 0  0.125 0 0  0.15 0 0  0.175 0 0  0.2 0 0  0.225 0 0  0.25 0 0  0.275 0 0  0.3 0 0  0.325 0 0  0.35 0 0  0.375 0 0  0.4 0 0  0.425 0 0  0.45 0 0  0.475 0 0  0.5 0 0  0.525 0 0  0.55 0 0  0.575 0 0  0.6 0 0  0.625 0 0  0.65 0 0  0.675 0 0  0.7 0 0  0.725 0 0  0.75 0 0  0.775 0 0  0.8 0 0  0.825 0 0  0.85 0 0  0.875 0 0  0.9 0 0  0.925 0 0  0.95 0 0  0.975 0 0  1 0 0  0 0.025 0  0.025 0.025 0  0.05 0.025 0  0.075 0.025 0  0.1 0.025 0  0.125 0.025 0  0.15 0.025 0  0.175 0.025 0  0.2 0.025 0  0.225 0.025 0  0.25 0.025 0  0.275 0.025 0  0.3 0.025 0  0.325 0.025 0  0.35 0.025 0  0.375 0.025 0  0.4 0.025 0  0.425 0.025 0  0.45 0.025 0  0.475 0.025 0  0.5 0.025 0  0.525 0.025 0  0.55 0.025 0  0.575 0.025 0  0.6 0.025 0  0.625 0.025 0  0.65 0.025 0  0.675 0.025 0  0.7 0.025 0  0.725 0.025 0  0.75 0.025 0  0.775 0.025 0  0.8 0.025 0  0.825 0.025 0  0.85 0.025 0  0.875 0.025 0  0.9 0.025 0  0.925 0.025 0  0.95 0.025 0  0.975 0.025 0  1 0.025 0  0 0.05 0  0.025 0.05 0  0.05 0.05 0  0.075 0.05 0  0.1 0.05 0  0.125 0.05 0  0.15 0.05 0  0.175 0.05 0  0.2 0.05 0  0.225 0.05 0  0.25 0.05 0  0.275 0.05 0  0.3 0.05 0  0.325 0.05 0  0.35 0.05 0  0.375 0.05 0  0.4 0.05 0  0.425 0.05 0  0.45 0.05 0  0.475 0.05 0  0.5 0.05 0  0.525 0.05 0  0.55 0.05 0  0.575 0.05 0  0.6 0.05 0  0.625 0.05 0  0.65 0.05 0  0.675 0.05 0  0.7 0.05 0  0.725 0.05 0  0.75 0.05 0  0.775 0.05 0  0.8 0.05 0  0.825 0.05 0  0.85 0.05 0  0.875 0.05 0  0.9 0.05 0  0.925 0.05 0  0.95 0.05 0  0.975 0.05 0  1 0.05 0  0 0.075 0  0.025 0.075 0  0.05 0.075 0  0.075 0.075 0  0.1 0.075 0  0.125 0.075 0  0.15 0.075 0  0.175 0.075 0  0.2 0.075 0  0.225 0.075 0  0.25 0.075 0  0.275 0.075 0  0.3 0.075 0  0.325 0.075 0  0.35 0.075 0  0.375 0.075 0  0.4 0.075 0  0.425 0.075 0  0.45 0.075 0  0.475 0.075 0  0.5 0.075 0  0.525 0.075 0  0.55 0.075 0  0.575 0.075 0  0.6 0.075 0  0.625 0.075 0  0.65 0.075 0  0.675 0.075 0  0.7 0.075 0  0.725 0.075 0  0.75 0.075 0  0.775 0.075 0  0.8 0.075 0  0.825 0.075 0  0.85 0.075 0  0.875 0.075 0  0.9 0.075 0  0.925 0.075 0  0.95 0.075 0  0.975 0.075 0  1 0.075 0  0 0.1 0  0.025 0.1 0  0.05 0.1 0  0.075 0.1 0  0.1 0.1 0  0.125 0.1 0  0.15 0.1 0  0.175 0.1 0  0.2 0.1 0  0.225 0.1 0  0.25 0.1 0  0.275 0.1 0  0.3 0.1 0  0.325 0.1 0  0.35 0.1 0  0.375 0.1 0  0.4 0.1 0  0.425 0.1 0  0.45 0.1 0  0.475 0.1 0  0.5 0.1 0  0.525 0.1 0  0.55 0.1 0  0.575 0.1 0  0.6 0.1 0  0.625 0.1 0  0.65 0.1 0  0.675 0.1 0  0.7 0.1 0  0.725 0.1 0  0.75 0.1 0  0.775 0.1 0  0.8 0.1 0  0.825 0.1 0  0.85 0.1 0  0.875 0.1 0  0.9 0.1 0  0.925 0.1 0  0.95 0.1 0  0.975 0.1 0  1 0.1 0  0 0.125 0  0.025 0.125 0  0.05 0.125 0  0.075 0.125 0  0.1 0.125 0  0.125 0.125 0  0.15 0.125 0  0.175 0.125 0  0.2 0.125 0  0.225 0.125 0  0.25 0.125 0  0.275 0.125 0  0.3 0.125 0  0.325 0.125 0  0.35 0.125 0  0.375 0.125 0  0.4 0.125 0  0.425 0.125 0  0.45 0.125 0  0.475 0.125 0  0.5 0.125 0  0.525 0.125 0  0.55 0.125 0  0.575 0.125 0  0.6 0.125 0  0.625 0.125 0  0.65 0.125 0  0.675 0.125 0  0.7 0.125 0  0.725 0.125 0  0.75 0.125 0  0.775 0.125 0  0.8 0.125 0  0.825 0.125 0  0.85 0.125 0  0.875 0.125 0  0.9 0.125 0  0.925 0.125 0  0.95 0.125 0  0.975 0.125 0  1 0.125 0  0 0.15 0  0.025 0.15 0  0.05 0.15 0  0.075 0.15 0  0.1 0.15 0  0.125 0.15 0  0.15 0.15 0  0.175 0.15 0  0.2 0.15 0  0.225 0.15 0  0.25 0.15 0  0.275 0.15 0  0.3 0.15 0  0.325 0.15 0  0.35 0.15 0  0.375 0.15 0  0.4 0.15 0  0.425 0.15 0  0.45 0.15 0  0.475 0.15 0  0.5 0.15 0  0.525 0.15 0  0.55 0.15 0  0.575 0.15 0  0.6 0.15 0  0.625 0.15 0  0.65 0.15 0  0.675 0.15 0  0.7 0.15 0  0.725 0.15 0  0.75 0.15 0  0.775 0.15 0  0.8 0.15 0  0.825 0.15 0  0.85 0.15 0  0.875 0.15 0  0.9 0.15 0  0.925 0.15 0  0.95 0.15 0  0.975 0.15 0  1 0.15 0  0 0.175 0  0.025 0.175 0  0.05 0.175 0  0.075 0.175 0  0.1 0.175 0  0.125 0.175 0  0.15 0.175 0  0.175 0.175 0  0.2 0.175 0  0.225 0.175 0  0.25 0.175 0  0.275 0.175 0  0.3 0.175 0  0.325 0.175 0  0.35 0.175 0  0.375 0.175 0  0.4 0.175 0  0.425 0.175 0  0.45 0.175 0  0.475 0.175 0  0.5 0.175 0  0.525 0.175 0  0.55 0.175 0  0.575 0.175 0  0.6 0.175 0  0.625 0.175 0  0.65 0.175 0  0.675 0.175 0  0.7 0.175 0  0.725 0.175 0  0.75 0.175 0  0.775 0.175 0  0.8 0.175 0  0.825 0.175 0  0.85 0.175 0  0.875 0.175 0  0.9 0.175 0  0.925 0.175 0  0.95 0.175 0  0.975 0.175 0  1 0.175 0  0 0.2 0  0.025 0.2 0  0.05 0.2 0  0.075 0.2 0  0.1 0.2 0  0.125 0.2 0  0.15 0.2 0  0.175 0.2 0  0.2 0.2 0  0.225 0.2 0  0.25 0.2 0  0.275 0.2 0  0.3 0.2 0  0.325 0.2 0  0.35 0.2 0  0.375 0.2 0  0.4 0.2 0  0.425 0.2 0  0.45 0.2 0  0.475 0.2 0  0.5 0.2 0  0.525 0.2 0  0.55 0.2 0  0.575 0.2 0  0.6 0.2 0  0.625 0.2 0  0.65 0.2 0  0.675 0.2 0  0.7 0.2 0  0.725 0.2 0  0.75 0.2 0  0.775 0.2 0  0.8 0.2 0  0.825 0.2 0  0.85 0.2 0  0.875 0.2 0  0.9 0.2 0  0.925 0.2 0  0.95 0.2 0  0.975 0.2 0  1 0.2 0  0 0.225 0  0.025 0.225 0  0.05 0.225 0  0.075 0.225 0  0.1 0.225 0  0.125 0.225 0  0.15 0.225 0  0.175 0.225 0  0.2 0.225 0  0.225 0.225 0  0.25 0.225 0  0.275 0.225 0  0.3 0.225 0  0.325 0.225 0  0.35 0.225 0  0.375 0.225 0  0.4 0.225 0  0.425 0.225 0  0.45 0.225 0  0.475 0.225 0  0.5 0.225 0  0.525 0.225 0  0.55 0.225 0  0.575 0.225 0  0.6 0.225 0  0.625 0.225 0  0.65 0.225 0  0.675 0.225 0  0.7 0.225 0  0.725 0.225 0  0.75 0.225 0  0.775 0.225 0  0.8 0.225 0  0.825 0.225 0  0.85 0.225 0  0.875 0.225 0  0.9 0.225 0  0.925 0.225 0  0.95 0.225 0  0.975 0.225 0  1 0.225 0  0 0.25 0  0.025 0.25 0  0.05 0.25 0  0.075 0.25 0  0.1 0.25 0  0.125 0.25 0  0.15 0.25 0  0.175 0.25 0  0.2 0.25 0  0.225 0.25 0  0.25 0.25 0  0.275 0.25 0  0.3 0.25 0  0.325 0.25 0  0.35 0.25 0  0.375 0.25 0  0.4 0.25 0  0.425 0.25 0  0.45 0.25 0  0.475 0.25 0  0.5 0.25 0  0.525 0.25 0  0.55 0.25 0  0.575 0.25 0  0.6 0.25 0  0.625 0.25 0  0.65 0.25 0  0.675 0.25 0  0.7 0.25 0  0.725 0.25 0  0.75 0.25 0  0.775 0.25 0  0.8 0.25 0  0.825 0.25 0  0.85 0.25 0  0.875 0.25 0  0.9 0.25 0  0.925 0.25 0  0.95 0.25 0  0.975 0.25 0  1 0.25 0  0 0.275 0  0.025 0.275 0  0.05 0.275 0  0.075 0.275 0  0.1 0.275 0  0.125 0.275 0  0.15 0.275 0  0.175 0.275 0  0.2 0.275 0  0.225 0.275 0  0.25 0.275 0  0.275 0.275 0  0.3 0.275 0  0.325 0.275 0  0.35 0.275 0  0.375 0.275 0  0.4 0.275 0  0.425 0.275 0  0.45 0.275 0  0.475 0.275 0  0.5 0.275 0  0.525 0.275 0  0.55 0.275 0  0.575 0.275 0  0.6 0.275 0  0.625 0.275 0  0.65 0.275 0  0.675 0.275 0  0.7 0.275 0  0.725 0.275 0  0.75 0.275 0  0.775 0.275 0  0.8 0.275 0  0.825 0.275 0  0.85 0.275 0  0.875 0.275 0  0.9 0.275 0  0.925 0.275 0  0.95 0.275 0  0.975 0.275 0  1 0.275 0  0 0.3 0  0.025 0.3 0  0.05 0.3 0  0.075 0.3 0  0.1 0.3 0  0.125 0.3 0  0.15 0.3 0  0.175 0.3 0  0.2 0.3 0  0.225 0.3 0  0.25 0.3 0  0.275 0.3 0  0.3 0.3 0  0.325 0.3 0  0.35 0.3 0  0.375 0.3 0  0.4 0.3 0  0.425 0.3 0  0.45 0.3 0  0.475 0.3 0  0.5 0.3 0  0.525 0.3 0  0.55 0.3 0  0.575 0.3 0  0.6 0.3 0  0.625 0.3 0  0.65 0.3 0  0.675 0.3 0  0.7 0.3 0  0.725 0.3 0  0.75 0.3 0  0.775 0.3 0  0.8 0.3 0  0.825 0.3 0  0.85 0.3 0  0.875 0.3 0  0.9 0.3 0  0.925 0.3 0  0.95 0.3 0  0.975 0.3 0  1 0.3 0  0 0.325 0  0.025 0.325 0  0.05 0.325 0  0.075 0.325 0  0.1 0.325 0  0.125 0.325 0  0.15 0.325 0  0.175 0.325 0  0.2 0.325 0  0.225 0.325 0  0.25 0.325 0  0.275 0.325 0  0.3 0.325 0  0.325 0.325 0  0.35 0.325 0  0.375 0.325 0  0.4 0.325 0  0.425 0.325 0  0.45 0.325 0  0.475 0.325 0  0.5 0.325 0  0.525 0.325 0  0.55 0.325 0  0.575 0.325 0  0.6 0.325 0  0.625 0.325 0  0.65 0.325 0  0.675 0.325 0  0.7 0.325 0  0.725 0.325 0  0.75 0.325 0  0.775 0.325 0  0.8 0.325 0  0.825 0.325 0  0.85 0.325 0  0.875 0.325 0  0.9 0.325 0  0.925 0.325 0  0.95 0.325 0  0.975 0.325 0  1 0.325 0  0 0.35 0  0.025 0.35 0  0.05 0.35 0  0.075 0.35 0  0.1 0.35 0  0.125 0.35 0  0.15 0.35 0  0.175 0.35 0  0.2 0.35 0  0.225 0.35 0  0.25 0.35 0  0.275 0.35 0  0.3 0.35 0  0.325 0.35 0  0.35 0.35 0  0.375 0.35 0  0.4 0.35 0  0.425 0.35 0  0.45 0.35 0  0.475 0.35 0  0.5 0.35 0  0.525 0.35 0  0.55 0.35 0  0.575 0.35 0  0.6 0.35 0  0.625 0.35 0  0.65 0.35 0  0.675 0.35 0  0.7 0.35 0  0.725 0.35 0  0.75 0.35 0  0.775 0.35 0  0.8 0.35 0  0.825 0.35 0  0.85 0.35 0  0.875 0.35 0  0.9 0.35 0  0.925 0.35 0  0.95 0.35 0  0.975 0.35 0  1 0.35 0  0 0.375 0  0.025 0.375 0  0.05 0.375 0  0.075 0.375 0  0.1 0.375 0  0.125 0.375 0  0.15 0.375 0  0.175 0.375 0  0.2 0.375 0  0.225 0.375 0  0.25 0.375 0  0.275 0.375 0  0.3 0.375 0  0.325 0.375 0  0.35 0.375 0  0.375 0.375 0  0.4 0.375 0  0.425 0.375 0  0.45 0.375 0  0.475 0.375 0  0.5 0.375 0  0.525 0.375 0  0.55 0.375 0  0.575 0.375 0  0.6 0.375 0  0.625 0.375 0  0.65 0.375 0  0.675 0.375 0  0.7 0.375 0  0.725 0.375 0  0.75 0.375 0  0.775 0.375 0  0.8 0.375 0  0.825 0.375 0  0.85 0.375 0  0.875 0.375 0  0.9 0.375 0  0.925 0.375 0  0.95 0.375 0  0.975 0.375 0  1 0.375 0  0 0.4 0  0.025 0.4 0  0.05 0.4 0  0.075 0.4 0  0.1 0.4 0  0.125 0.4 0  0.15 0.4 0  0.175 0.4 0  0.2 0.4 0  0.225 0.4 0  0.25 0.4 0  0.275 0.4 0  0.3 0.4 0  0.325 0.4 0  0.35 0.4 0  0.375 0.4 0  0.4 0.4 0  0.425 0.4 0  0.45 0.4 0  0.475 0.4 0  0.5 0.4 0  0.525 0.4 0  0.55 0.4 0  0.575 0.4 0  0.6 0.4 0  0.625 0.4 0  0.65 0.4 0  0.675 0.4 0  0.7 0.4 0  0.725 0.4 0  0.75 0.4 0  0.775 0.4 0  0.8 0.4 0  0.825 0.4 0  0.85 0.4 0  0.875 0.4 0  0.9 0.4 0  0.925 0.4 0  0.95 0.4 0  0.975 0.4 0  1 0.4 0  0 0.425 0  0.025 0.425 0  0.05 0.425 0  0.075 0.425 0  0.1 0.425 0  0.125 0.425 0  0.15 0.425 0  0.175 0.425 0  0.2 0.425 0  0.225 0.425 0  0.25 0.425 0  0.275 0.425 0  0.3 0.425 0  0.325 0.425 0  0.35 0.425 0  0.375 0.425 0  0.4 0.425 0  0.425 0.425 0  0.45 0.425 0  0.475 0.425 0  0.5 0.425 0  0.525 0.425 0  0.55 0.425 0  0.575 0.425 0  0.6 0.425 0  0.625 0.425 0  0.65 0.425 0  0.675 0.425 0  0.7 0.425 0  0.725 0.425 0  0.75 0.425 0  0.775 0.425 0  0.8 0.425 0  0.825 0.425 0  0.85 0.425 0  0.875 0.425 0  0.9 0.425 0  0.925 0.425 0  0.95 0.425 0  0.975 0.425 0  1 0.425 0  0 0.45 0  0.02
[...]
<PointData  Scalars="ControlVisualisation"> 
<DataArray  type="Float64"  Name="ControlVisualisation"  format="ascii">2.1705599368682793e-01  1.5477167985790147e-01  1.5486431018106245e-01  1.5521866503412557e-01  1.5584655282594867e-01  1.5667213366589711e-01  1.5758810894620662e-01  1.5849466043205307e-01  1.5932218873164805e-01  1.6003562729521167e-01  1.6062735836054315e-01  1.6110641720423097e-01  1.6148908267134127e-01  1.6179270852873531e-01  1.6203257234057117e-01  1.6222074398442188e-01  1.6236598777730696e-01  1.6247402483350659e-01  1.6254781417084485e-01  1.6258774726654857e-01  1.6259177908705125e-01  1.6255556900743318e-01  1.6247271198790630e-01  1.6233512969580724e-01  1.6213367573423626e-01  1.6185898600117371e-01  1.6150256079439862e-01  1.6105799849860458e-01  1.6052225315874491e-01  1.5989686939045222e-01  1.5918939671109039e-01  1.5841551034544135e-01  1.5760252523830828e-01  1.5679352525814380e-01  1.5604891913480967e-01  1.5543993240423673e-01  1.5502399567136954e-01  1.5481464585215382e-01  1.5476436534847759e-01  1.5478476428689131e-01  3.6338921623078679e-01  1.5476768971067156e-01  8.7420556530613716e-02  8.7997034434613416e-02  8.9330583262370644e-02  9.1509283102217176e-02  9.4373613221793662e-02  9.7648010878700120e-02  1.0104635395165759e-01  1.0433183113070368e-01  1.0734321751966525e-01  1.0999491692485777e-01  1.1226104640849213e-01  1.1415438800644424e-01  1.1570755765719065e-01  1.1695939801272176e-01  1.1794659928744593e-01  1.1869920941412121e-01  1.1923850106234932e-01  1.1957607365589872e-01  1.1971363426132414e-01  1.1964335121903878e-01  1.1934891129890712e-01  1.1880744852828669e-01  1.1799242810366756e-01  1.1687745686746723e-01  1.1544090462957943e-01  1.1367112054806797e-01  1.1157181602531238e-01  1.0916682665998730e-01  1.0650317599929099e-01  1.0365142288423138e-01  1.0070324767338745e-01  9.7767865735365347e-02  9.4969846235282429e-02  9.2449058910680254e-02  9.0352107785106911e-02  8.8801609907371154e-02  8.7850226103561829e-02  8.7414411889501220e-02  8.7296845175167448e-02  1.5478453236204415e-01  1.5482045053040222e-01  8.7975674743131477e-02  8.9908332643065358e-02  9.3302273321077711e-02  9.8519154752109941e-02  1.0550466545621362e-01  1.1397814672406414e-01  1.2359328692554417e-01  1.3396816756815885e-01  1.4471443926661787e-01  1.5548713995695501e-01  1.6600741941513508e-01  1.7603924160071927e-01  1.8535369507266800e-01  1.9371716553132312e-01  2.0090708706254246e-01  2.0673545494539686e-01  2.1106171941227347e-01  2.1379081041648823e-01  2.1486289091336391e-01  2.1424360123504460e-01  2.1192007422859360e-01  2.0790356291186438e-01  2.0223697754666697e-01  1.9500568885866237e-01  1.8635163951738803e-01  1.7649158884877145e-01  1.6573686112127900e-01  1.5450288745759772e-01  1.4328724463196715e-01  1.3259827925717141e-01  1.2284707023205296e-01  1.1426021231629235e-01  1.0688538892533875e-01  1.0068979031214786e-01  9.5663127684811750e-02  9.1861247529844703e-02  8.9336104902432850e-02  8.7953216829657302e-02  8.7363607110042124e-02  1.5475164662651753e-01  1.5505459555652951e-01  8.9338381933043012e-02  9.3734450004501035e-02  9.9844800296271380e-02  1.0843950510791575e-01  1.1993317585698728e-01  1.3447935652103482e-01  1.5223307469130348e-01  1.7351630044067706e-01  1.9862925940799286e-01  2.2678899208415090e-01  2.5499673477590545e-01  2.7864049821195536e-01  2.9394524411660050e-01  3.0003948377974166e-01  2.9886675862915169e-01  2.9353296545736424e-01  2.8673389130606491e-01  2.8011470825139340e-01  2.7440432020988237e-01  2.6985110907825255e-01  2.6662468317545762e-01  2.6502086100425515e-01  2.6536861761020830e-01  2.6756002968660636e-01  2.7028897735730217e-01  2.7052711938310947e-01  2.6417332885443839e-01  2.4826311436647197e-01  2.2338779557995511e-01  1.9399371816579183e-01  1.6589566781972312e-01  1.4303005217280046e-01  1.2609409542598587e-01  1.1369273774553129e-01  1.0431926830965571e-01  9.7235009325486427e-02  9.2169270806622544e-02  8.9041089088982978e-02  8.7515003678145437e-02  1.5470551358513457e-01  1.5550734040084835e-01  9.1967628274962243e-02  1.0205239850081402e-01  1.1478687485123691e-01  1.3179363383544501e-01  1.5479700938420166e-01  1.8588260492289038e-01  2.2729594606479328e-01  2.7633637200655237e-01  3.1805969224250358e-01  3.3183038643681040e-01  3.1494833865391103e-01  2.8931725313522527e-01  2.7735194704256583e-01  2.8437429583779072e-01  3.0396946564399552e-01  3.2808968940767252e-01  3.5118214798708969e-01  3.7019161281789675e-01  3.8354788862153077e-01  3.9032881152895493e-01  3.8975951456787900e-01  3.8096630589562192e-01  3.6294424575657647e-01  3.3483692082079264e-01  2.9685215641253176e-01  2.5239441696597581e-01  2.1167055647904620e-01  1.9383752096637297e-01  2.1693933088783152e-01  2.6946927307766150e-01  3.0304313296969737e-01  2.8418922092227850e-01  2.3072786160345166e-01  1.7814423065419038e-01  1.4207940334677449e-01  1.1897923433091293e-01  1.0232745114264470e-01  9.2504386852618178e-02  8.8070970772883367e-02  1.5464665359685720e-01  1.5666867227586923e-01  9.9283927588601550e-02  1.2732354289022260e-01  1.6939625807079706e-01  2.3729222500164965e-01  3.2812590666545716e-01  3.9173768708909507e-01  3.8461043044981663e-01  3.5814983415026946e-01  3.6764122363194840e-01  4.0771741839353093e-01  4.5726301973532918e-01  5.0428604756725726e-01  5.4474889443563335e-01  5.7826428102508598e-01  6.0569806389896341e-01  6.2815563567521371e-01  6.4661764824547463e-01  6.6184395454827394e-01  6.7437747305441920e-01  6.8457642579773426e-01  6.9264356726199916e-01  6.9863721421113567e-01  7.0245638889363249e-01  7.0379854709678658e-01  7.0209711222662219e-01  6.9645865012798114e-01  6.8563291901530288e-01  6.6805290467453438e-01  6.4195362629207875e-01  6.0547476379398746e-01  5.5643296071204418e-01  4.9137788638962376e-01  4.0613816163918209e-01  3.1939158287410907e-01  3.7446926600936681e-01  4.3815281597870193e-01  1.8877442917501366e-01  1.1464706534630478e-01  9.1059232888374489e-02  1.5513089846130354e-01  1.7124494759046671e-01  1.3752473393052767e-01  3.6517502028812632e-01  3.7572399754588831e-01  4.7813129244767283e-01  5.9942697398548228e-01  6.6584327972252211e-01  7.0126149322641673e-01  7.2127160283774694e-01  7.3375547934473906e-01  7.4263396592508868e-01  7.4984498873475003e-01  7.5633999540100616e-01  7.6258644436078704e-01  7.6881890794892827e-01  7.7515765510911072e-01  7.8165931966674351e-01  7.8833811720204572e-01  7.9517809441003984e-01  8.0214374638360919e-01  8.0918823730256051e-01  8.1625473862308529e-01  8.2326601972249391e-01  8.3010000166012410e-01  8.3655558959299348e-01  8.4232611734162732e-01  8.4701771098928258e-01  8.5026683902909239e-01  8.5199255504985816e-01  8.5271250761256590e-01  8.5365291678544497e-01  8.5627888170183164e-01  8.6123909050112069e-01  8.6750948318221122e-01  8.7263190784887690e-01  8.7350839112949419e-01  8.6486394023284952e-01  8.2721028251347573e-01  5.4664876490948244e-01  1.5271357360014015e-01  1.6077307758765377e-01  5.3422028815944644e-01  7.1108178616910667e-01  8.4999519628759834e-01  8.6654669783801996e-01  8.6900208732860129e-01  8.6989013102280288e-01  8.6965160927660701e-01  8.6711055407757998e-01  8.6238964895514447e-01  8.5665825386776029e-01  8.5111799326925930e-01  8.4654428549378102e-01  8.4330289661959212e-01  8.4149491224444761e-01  8.4107893377308729e-01  8.4194691989819326e-01  8.4396252720753684e-01  8.4697560069751521e-01  8.5082586137039717e-01  8.5534460381889310e-01  8.6035770091380803e-01  8.6568952845281988e-01  8.7116668571307854e-01  8.7662213801607947e-01  8.8190442421887993e-01  8.8690276987262551e-01  8.9160244974387981e-01  8.9616816498869756e-01  9.0099371527095273e-01  9.0657920487856025e-01  9.1315097069929463e-01  9.2028633218355171e-01  9.2715786960962432e-01  9.3348705218662720e-01  9.3989631923538164e-01  9.4671936195507489e-01  9.5318545005466992e-01  9.5801240614000838e-01  9.6003439789597111e-01  9.5114502278955415e-01  7.9126451782350515e-01  9.2718203387232534e-01  9.4769824162115890e-01  9.3997220504920487e-01  9.3241362630117486e-01  9.2645788468821644e-01  9.2003781666285334e-01  9.1349172683995827e-01  9.0670005011782340e-01  8.9923884717902702e-01  8.9143516831487679e-01  8.8405848250627328e-01  8.7778445498031454e-01  8.7301792804831657e-01  8.6991003158045377e-01  8.6842046344370816e-01  8.6839307539978727e-01  8.6962621378128702e-01  8.7191711152806872e-01  8.7507682526505504e-01  8.7892896396410980e-01  8.8330791385190854e-01  8.8806444629855963e-01  8.9307723646981563e-01  8.9826329087616763e-01  9.0358055520143199e-01  9.0902119536759651e-01  9.1459893723362795e-01  9.2033033493788530e-01  9.2620016116190906e-01  9.3211697056870801e-01  9.3793862076421630e-01  9.4367619894546395e-01  9.4970794023159899e-01  9.5643891452554286e-01  9.6351076281807180e-01  9.6995333040120979e-01  9.7529178720589038e-01  9.7966294855113467e-01  9.8349937496091111e-01  9.8648346968383871e-01  9.7138333634440222e-01  9.5664139091073097e-01  9.7109599298591887e-01  9.6276329668032701e-01  9.5309075943897148e-01  9.4488765101496097e-01  9.3787561795722663e-01  9.3069331031871794e-01  9.2293868852559591e-01  9.1448637580918779e-01  9.0574593418881277e-01  8.9748845418055623e-01  8.9040181728280543e-01  8.8493913931092072e-01  8.8131484265585602e-01  8.7951788537897602e-01  8.7936477126205115e-01  8.8059187372220615e-01  8.8293843424576923e-01  8.8618528177149269e-01  8.9015540795631132e-01  8.9470232545570338e-01  8.9970336284918639e-01  9.0505736470572817e-01  9.1067820157390345e-01  9.1648103618436105e-01  9.2236801401351276e-01  9.2822323847070543e-01  9.3392470777814829e-01  9.3938173895433752e-01  9.4460310806165526e-01  9.4976388840701609e-01  9.5516252856503225e-01  9.6096201818487359e-01  9.6689761187216572e-01  9.7247667991976583e-01  9.7760245930505740e-01  9.8244905334538513e-01  9.8679384592644825e-01  9.9043541623269249e-01  9.9293878037606265e-01  9.8615869328514294e-01  9.6132202732045957e-01  9.7564631995795914e-01  9.6798336401985852e-01  9.5822930285182917e-01  9.4926419563041209e-01  9.4176450092089037e-01  9.3422282564702297e-01  9.2609276822395559e-01  9.1733447055189898e-01  9.0836158201180783e-01  8.9994418659061115e-01  8.9279604699644632e-01  8.8740070288919104e-01  8.8398663307376379e-01  8.8252644104564049e-01  8.8279408320225417e-01  8.8448013100304967e-01  8.8729683784300584e-01  8.9102104097699952e-01  8.9548291095288934e-01  9.0053945460856366e-01  9.0605811212995757e-01  9.1190881122922751e-01  9.1795424739617404e-01  9.2404078031373771e-01  9.3000434561915080e-01  9.3570022230700167e-01  9.4104894512242998e-01  9.4607826853530552e-01  9.5093213536675769e-01  9.5580862933021338e-01  9.6081733360342259e-01  9.6584787632807978e-01  9.7068188249313381e-01  9.7540847511871764e-01  9.8026459870052363e-01  9.8493182098104326e-01  9.8886813746685587e-01  9.9203815023854103e-01  9.9412798145498138e-01  9.8950015113351342e-01  9.5161121135776749e-01  9.7133411128580460e-01  9.6286853122171456e-01  9.5200885423981541e-01  9.4274381874940505e-01  9.3471838978575972e-01  9.2627826824814430e-01  9.1767403518920632e-01  9.0901774266468272e-01  9.0048418725620694e-01  8.9269541053799317e-01  8.8636327421783423e-01  8.8198149765074707e-01  8.7972445850841319e-01  8.7946015724784143e-01  8.8085920266288975e-01  8.8355314223116743e-01  8.8724952630044229e-01  8.9175252041446618e-01  8.9691756760165431e-01  9.0260379139563796e-01  9.0866002834081139e-01  9.1493186175570629e-01  9.2126078676455958e-01  9.2747441708877476e-01  9.3339849269781017e-01  9.3891058290898943e-01  9.4400228565039468e-01  9.4878247402169935e-01  9.5340077076026652e-01  9.5795275691092463e-01  9.6242053983903575e-01  9.6667736586054898e-01  9.7074880382405604e-01  9.7505976863659216e-01  9.7973370137116877e-01  9.8418756434701460e-01  9.8784198681337332e-01  9.9084078315343227e-01  9.9297504676705750e-01  9.8799980006633470e-01  9.1040877251482910e-01  9.4857945134085764e-01  9.3692729407337894e-01  9.2777948080037942e-01  9.1917448386226186e-01  9.0929794405831832e-01  9.0023435300639809e-01  8.9288554871968784e-01  8.8601993962767711e-01  8.7909029104311720e-01  8.7282594833760963e-01  8.6829342105884932e-01  8.6617013928211772e-01  8.6654610173943158e-01  8.6902298261688937e-01  8.7296858796842414e-01  8.7780412521295148e-01  8.8317475943268431e-01  8.8893940248792291e-01  8.9504917418062968e-01  9.0143810459238749e-01  9.0799606421659329e-01  9.1459788918454765e-01  9.2111971843090423e-01  9.2742164262415983e-01  9.3334746279677028e-01  9.3878625227593959e-01  9.4374806943073353e-01  9.4835082721067931e-01  9.5271177063470536e-01  9.5686781104279051e-01  9.6077596254391529e-01  9.6437003125180609e-01  9.6782667460333860e-01  9.7164833606202505e-01  9.7591892562162008e-01  9.8001995460022995e-01  9.8324063248766091e-01  9.8549187031997498e-01  9.8694484485407830e-01  9.7878276905450257e-01  4.4998796493631066e-01  7.3312242901844993e-01  8.1064040718284014e-01  8.2874001241917261e-01  8.2943617431800820e-01  8.2833155749616616e-01  8.2587094240818559e-01  8.2060188317660487e-01  8.1320175843982667e-01  8.0660459372971505e-01  8.0363123653442015e-01  8.0566691111274757e-01  8.1268785725530346e-01  8.2359172245077694e-01  8.3657221882717947e-01  8.4974575621616000e-01  8.6180845662399252e-01  8.7229788602773972e-01  8.8139360236203512e-01  8.8952459647014703e-01  8.9706373498472436e-01  9.0422490289880253e-01  9.1110404833841152e-01  9.1773180900249762e-01  9.2407408186161344e-01  9.3002970089257830e-01  9.3548912907416915e-01  9.4042131449171829e-01  9.4488669132125980e-01  9.4895666602049500e-01  9.5264746053963745e-01  9.5592796931605850e-01  9.5878707613665159e-01  9.6142423266490651e-01  9.6426802087940122e-01  9.6744091942151000e-01  9.7039583073655034e-01  9.7212054888722110e-01  9.7099078589393173e-01  9.6018236828506742e-01  9.1739272558186868e-01  1.5957960295895401e-01  1.1815710275817411e-01  2.2690121326568707e-01  4.1498633186349232e-01  4.5688665529132033e-01  4.3046390117575795e-01  4.3117093491862479e-01  4.5226690878934928e-01  4.8159541059620625e-01  5.1448470282098935e-01  5.5098787940436644e-01  5.9331981539643430e-01  6.4229645780544731e-01  6.9480005653911359e-01  7.4499574903284815e-01  7.8787099194314214e-01  8.2141092060559917e-01  8.4626997879100996e-01  8.6437675084106624e-01  8.7780220941663323e-01  8.8821073536481121e-01  8.9674897237438000e-01  9.0415384731178183e-01  9.1088281411639471e-01  9.1717579471713007e-01  9.2308771502923492e-01  9.2855808871804590e-01  9.3350777345750413e-01  9.3789239687962600e-01  9.4168546315461266e-01  9.4484791861798012e-01  9.4733195552235072e-01  9.4911977557925620e-01  9.5029208594667181e-01  9.5095009692561250e-01  9.5085870369888026e-01  9.4894982081270607e-01  9.4181523432833147e-01  9.1278515072465805e-01  4.5231411134319843e-01  2.1477585969754193e-01  1.5706663218048700e-01  9.5851660560175508e-02  1.1358203231292753e-01  1.3955722241338192e-01  1.7321475985973483e-01  2.1533560449901457e-01  2.6493726996517075e-01  3.1895631720229639e-01  3.7058000963302762e-01  4.0719583174887014e-01  4.1713938383347410e-01  4.1400051665108117e-01  4.4035624551475605e-01  5.1413710499998622e-01  6.0800194365245697e-01  6.9212511929966714e-01  7.5621150880513266e-01  8.0190117325230126e-01  8.3378653396108082e-01  8.5603677769010278e-01  8.7179754800042486e-01  8.8331323363050152e-01  8.9215703408735803e-01  8.9941088993322971e-01  9.0576307896182295e-01  9.1157007101538257e-01  9.1693722037482561e-01  9.2181749650335609e-01  9.2608837800583133e-01  9.2959033042926131e-01  9.3215162549213271e-01  9.3361719046375047e-01  9.3386469523927351e-01  9.3273574808958415e-01  9.2964293423137290e-01  9.2266145906725461e-01  9.0687869841812341e-01  8.6655468956438186e-01  5.7335754074104117e-01  1.3322639128663413e-01  1.6202763426495101e-01  1.5657560288264943e-01  9.3211135015430380e-02  1.0098021890012690e-01  1.1083663186273177e-01  1.2502931715664159e-01  1.4391398869416078e-01  1.6756576883669061e-01  1.9632294827500962e-01  2.3113496044495033e-01  2.7262474688439414e-01  3.1791324556198319e-01  3.6060266301951682e-01  4.0619154687294090e-01  4.7768826976160084e-01  5.6971102189961231e-01  6.5221371202448197e-01  7.1542494392811096e-01  7.6314021497585793e-01  7.9921679467642515e-01  8.2615031359022439e-01  8.4598160283033585e-01  8.6054786829985608e-01  8.7143658179871275e-01  8.7991865547040127e-01  8.8691286508385514e-01  8.9299236601367304e-01  8.9842896834061048e-01  9.0325235754331912e-01  9.0730205575405820e-01  9.1027437697765956e-01  9.1178262897839391e-01  9.1142728187840694e-01  9.0883220153980548e-01  9.0350871739847827e-01  8.9402968925109472e-01  8.7488689547629306e-01  8.2329853349330429e-01  5.7040805026388375e-01  3.2526754994979679e-01  1.0937247303911310e-01  1.5973230939055549e-01  1.5665472510739742e-01  9.2533415594137136e-02  9.7492195621091043e-02  1.0363443302545663e-01  1.1351108454836960e-01  1.2756289609055313e-01  1.4603285271921998e-01  1.6918908599288807e-01  1.9749135410251104e-01  2.3221691638186129e-01  2.7706762007224167e-01  3.4223412467663061e-01  4.4525667605404207e-01  5.7750668398354710e-01  6.7762039710911059e-01  7.2091340278806426e-01  7.4071813836907507e-01  7.5986159138534526e-01  7.8040955103269904e-01  7.9932581971217487e-01  8.1497757505435875e-01  8.2738798847601225e-01  8.3733154409604915e-01  8.4567322250359100e-01  8.5306459896812503e-01  8.5987437596867489e-01  8.6620845919708445e-01  8.7192129902724425e-01  8.7659316150237609e-01  8.7950617817828913e-01  8.7965982406068333e-01  8.7580481270327093e-01  8.6633999453986332e-01  8.4856596434201104e-01  8.1540080796200176e-01  7.4040584073408189e-01  4.6822029715798408e-01  3.5561247260446072e-03  1.6918657511207913e-01  1.0514428300735679e-01  1.5898970053822303e-01  1.5692483015165515e-01  9.2759848446819046e-02  9.7018369368032320e-02  1.0199255865759550e-01  1.1035406225406805e-01  1.2274353824840081e-01  1.3970822027623991e-01  1.6182291906352880e-01  1.8942374041013452e-01  2.2328950079110099e-01  2.7045107341187447e-01  3.5944662620399426e-01  5.2932286652351879e-01  7.2273180909386614e-01  8.1218519150817181e-01  8.0811980826296570e-01  7.8696431363128749e-01  7.7852974216445003e-01  7.7999435823684926e-01  7.8393278070395667e-01  7.8656098832716981e-01  7.8739321451831867e-01  7.8747049318598561e-01  7.8802059681559922e-01  7.8983307552089910e-01  7.9315213596875800e-01  7.9776122364611557e-01  8.0301748033119957e-01  8.0774664398392160e-01  8.1002606843517344e-01  8.0689436443386009e-01  7.9383040817208750e-01  7.6316722328841957e-01  6.9832007310801758e-01  5.5292793848855637e-01  2.1556364033407005e-01  4.4139273563295778e-02  2.4885740078398669e-01  1.3727295522182437e-01  1.0353456795467671e-01  1.5882812696956589e-01  1.5732228216616734e-01  9.3684574890172609e-02  9.8507643473172812e-02  1.0352372138645970e-01  1.1168407477975474e-01  1.2388713285025628e-01  1.4102610905290686e-01  1.6409517619449801e-01  1.9368535435367967e-01  2.3080678448268996e-01  2.8875958720827716e-01  4.2180553204961346e-01  6.5814964967758116e-01  8.3501649877841322e-01  8.5924458792717828e-01  8.2380939169299539e-01  7.9701684272683260e-01  7.8698643465414109e-01  7.8309009532413654e-01  7.7625347772248898e-01  7.6286364860621825e-01  7.4377204504639749e-01  7.2194209371197804e-01  7.0029802288474752e-01  6.8060890608335245e-01  6.6328564716019645e-01  6.4751995842745846e-01  6.3128770053275673e-01  6.1099705656678238e-01  5.8078067034109004e-01  5.3161501333345673e-01  4.5098574906515082e-01  3.2686867705097200e-01  1.7240992172564867e-01  9.0351977290960117e-02  1.8193043912429890e-01  2.3942837006571865e-01  1.7880742396703547e-01  1.3005456954332373e-01  1.0269983724557685e-01  1.5873677568216460e-01  1.5779434945142407e-01  9.5174700376574467e-02  1.0167284995953502e-01  1.0772552063564669e-01  1.1680191130749909e-01  1.3021958549043491e-01  1.4936150346973870e-01  1.7596422953858773e-01  2.117824878