<?xml version="1.0"?>
<VTKFile type="UnstructuredGrid"  version="0.1"  >
<UnstructuredGrid>
<Piece  NumberOfPoints="1681" NumberOfCells="3200">
<Points>
<DataArray  type="Float64"  NumberOfComponents="3"  format="ascii">0 0 0  0.025 0 0  0.05 0 0  0.075 0 0  0.1 0 0  0.125 0 0  0.15 0 0  0.175 0 0  0.2 0 0  0.225 0 0  0.25 0 0  0.275 0 0  0.3 0 0  0.325 0 0  0.35 0 0  0.375 0 0  0.4 0 0  0.425 0 0  0.45 0 0  0.475 0 0  0.5 0 0  0.525 0 0  0.55 0 0  0.575 0 0  0.6 0 0  0.625 0 0  0.65 0 0  0.675 0 0  0.7 0 0  0.725 0 0  0.75 0 0  0.775 0 0  0.8 0 0  0.825 0 0  0.85 0 0  0.875 0 0  0.9 0 0  0.925 0 0  0.95 0 0  0.975 0 0  1 0 0  0 0.025 0  0.025 0.025 0  0.05 0.025 0  0.075 0.025 0  0.1 0.025 0  0.125 0.025 0  0.15 0.025 0  0.175 0.025 0  0.2 0.025 0  0.225 0.025 0  0.25 0.025 0  0.275 0.025 0  0.3 0.025 0  0.325 0.025 0  0.35 0.025 0  0.375 0.025 0  0.4 0.025 0  0.425 0.025 0  0.45 0.025 0  0.475 0.025 0  0.5 0.025 0  0.525 0.025 0  0.55 0.025 0  0.575 0.025 0  0.6 0.025 0  0.625 0.025 0  0.65 0.025 0  0.675 0.025 0  0.7 0.025 0  0.725 0.025 0  0.75 0.025 0  0.775 0.025 0  0.8 0.025 0  0.825 0.025 0  0.85 0.025 0  0.875 0.025 0  0.9 0.025 0  0.925 0.025 0  0.95 0.025 0  0.975 0.025 0  1 0.025 0  0 0.05 0  0.025 0.05 0  0.05 0.05 0  0.075 0.05 0  0.1 0.05 0  0.125 0.05 0  0.15 0.05 0  0.175 0.05 0  0.2 0.05 0  0.225 0.05 0  0.25 0.05 0  0.275 0.05 0  0.3 0.05 0  0.325 0.05 0  0.35 0.05 0  0.375 0.05 0  0.4 0.05 0  0.425 0.05 0  0.45 0.05 0  0.475 0.05 0  0.5 0.05 0  0.525 0.05 0  0.55 0.05 0  0.575 0.05 0  0.6 0.05 0  0.625 0.05 0  0.65 0.05 0  0.675 0.05 0  0.7 0.05 0  0.725 0.05 0  0.75 0.05 0  0.775 0.05 0  0.8 0.05 0  0.825 0.05 0  0.85 0.05 0  0.875 0.05 0  0.9 0.05 0  0.925 0.05 0  0.95 0.05 0  0.975 0.05 0  1 0.05 0  0 0.075 0  0.025 0.075 0  0.05 0.075 0  0.075 0.075 0  0.1 0.075 0  0.125 0.075 0  0.15 0.075 0  0.175 0.075 0  0.2 0.075 0  0.225 0.075 0  0.25 0.075 0  0.275 0.075 0  0.3 0.075 0  0.325 0.075 0  0.35 0.075 0  0.375 0.075 0  0.4 0.075 0  0.425 0.075 0  0.45 0.075 0  0.475 0.075 0  0.5 0.075 0  0.525 0.075 0  0.55 0.075 0  0.575 0.075 0  0.6 0.075 0  0.625 0.075 0  0.65 0.075 0  0.675 0.075 0  0.7 0.075 0  0.725 0.075 0  0.75 0.075 0  0.775 0.075 0  0.8 0.075 0  0.825 0.075 0  0.85 0.075 0  0.875 0.075 0  0.9 0.075 0  0.925 0.075 0  0.95 0.075 0  0.975 0.075 0  1 0.075 0  0 0.1 0  0.025 0.1 0  0.05 0.1 0  0.075 0.1 0  0.1 0.1 0  0.125 0.1 0  0.15 0.1 0  0.175 0.1 0  0.2 0.1 0  0.225 0.1 0  0.25 0.1 0  0.275 0.1 0  0.3 0.1 0  0.325 0.1 0  0.35 0.1 0  0.375 0.1 0  0.4 0.1 0  0.425 0.1 0  0.45 0.1 0  0.475 0.1 0  0.5 0.1 0  0.525 0.1 0  0.55 0.1 0  0.575 0.1 0  0.6 0.1 0  0.625 0.1 0  0.65 0.1 0  0.675 0.1 0  0.7 0.1 0  0.725 0.1 0  0.75 0.1 0  0.775 0.1 0  0.8 0.1 0  0.825 0.1 0  0.85 0.1 0  0.875 0.1 0  0.9 0.1 0  0.925 0.1 0  0.95 0.1 0  0.975 0.1 0  1 0.1 0  0 0.125 0  0.025 0.125 0  0.05 0.125 0  0.075 0.125 0  0.1 0.125 0  0.125 0.125 0  0.15 0.125 0  0.175 0.125 0  0.2 0.125 0  0.225 0.125 0  0.25 0.125 0  0.275 0.125 0  0.3 0.125 0  0.325 0.125 0  0.35 0.125 0  0.375 0.125 0  0.4 0.125 0  0.425 0.125 0  0.45 0.125 0  0.475 0.125 0  0.5 0.125 0  0.525 0.125 0  0.55 0.125 0  0.575 0.125 0  0.6 0.125 0  0.625 0.125 0  0.65 0.125 0  0.675 0.125 0  0.7 0.125 0  0.725 0.125 0  0.75 0.125 0  0.775 0.125 0  0.8 0.125 0  0.825 0.125 0  0.85 0.125 0  0.875 0.125 0  0.9 0.125 0  0.925 0.125 0  0.95 0.125 0  0.975 0.125 0  1 0.125 0  0 0.15 0  0.025 0.15 0  0.05 0.15 0  0.075 0.15 0  0.1 0.15 0  0.125 0.15 0  0.15 0.15 0  0.175 0.15 0  0.2 0.15 0  0.225 0.15 0  0.25 0.15 0  0.275 0.15 0  0.3 0.15 0  0.325 0.15 0  0.35 0.15 0  0.375 0.15 0  0.4 0.15 0  0.425 0.15 0  0.45 0.15 0  0.475 0.15 0  0.5 0.15 0  0.525 0.15 0  0.55 0.15 0  0.575 0.15 0  0.6 0.15 0  0.625 0.15 0  0.65 0.15 0  0.675 0.15 0  0.7 0.15 0  0.725 0.15 0  0.75 0.15 0  0.775 0.15 0  0.8 0.15 0  0.825 0.15 0  0.85 0.15 0  0.875 0.15 0  0.9 0.15 0  0.925 0.15 0  0.95 0.15 0  0.975 0.15 0  1 0.15 0  0 0.175 0  0.025 0.175 0  0.05 0.175 0  0.075 0.175 0  0.1 0.175 0  0.125 0.175 0  0.15 0.175 0  0.175 0.175 0  0.2 0.175 0  0.225 0.175 0  0.25 0.175 0  0.275 0.175 0  0.3 0.175 0  0.325 0.175 0  0.35 0.175 0  0.375 0.175 0  0.4 0.175 0  0.425 0.175 0  0.45 0.175 0  0.475 0.175 0  0.5 0.175 0  0.525 0.175 0  0.55 0.175 0  0.575 0.175 0  0.6 0.175 0  0.625 0.175 0  0.65 0.175 0  0.675 0.175 0  0.7 0.175 0  0.725 0.175 0  0.75 0.175 0  0.775 0.175 0  0.8 0.175 0  0.825 0.175 0  0.85 0.175 0  0.875 0.175 0  0.9 0.175 0  0.925 0.175 0  0.95 0.175 0  0.975 0.175 0  1 0.175 0  0 0.2 0  0.025 0.2 0  0.05 0.2 0  0.075 0.2 0  0.1 0.2 0  0.125 0.2 0  0.15 0.2 0  0.175 0.2 0  0.2 0.2 0  0.225 0.2 0  0.25 0.2 0  0.275 0.2 0  0.3 0.2 0  0.325 0.2 0  0.35 0.2 0  0.375 0.2 0  0.4 0.2 0  0.425 0.2 0  0.45 0.2 0  0.475 0.2 0  0.5 0.2 0  0.525 0.2 0  0.55 0.2 0  0.575 0.2 0  0.6 0.2 0  0.625 0.2 0  0.65 0.2 0  0.675 0.2 0  0.7 0.2 0  0.725 0.2 0  0.75 0.2 0  0.775 0.2 0  0.8 0.2 0  0.825 0.2 0  0.85 0.2 0  0.875 0.2 0  0.9 0.2 0  0.925 0.2 0  0.95 0.2 0  0.975 0.2 0  1 0.2 0  0 0.225 0  0.025 0.225 0  0.05 0.225 0  0.075 0.225 0  0.1 0.225 0  0.125 0.225 0  0.15 0.225 0  0.175 0.225 0  0.2 0.225 0  0.225 0.225 0  0.25 0.225 0  0.275 0.225 0  0.3 0.225 0  0.325 0.225 0  0.35 0.225 0  0.375 0.225 0  0.4 0.225 0  0.425 0.225 0  0.45 0.225 0  0.475 0.225 0  0.5 0.225 0  0.525 0.225 0  0.55 0.225 0  0.575 0.225 0  0.6 0.225 0  0.625 0.225 0  0.65 0.225 0  0.675 0.225 0  0.7 0.225 0  0.725 0.225 0  0.75 0.225 0  0.775 0.225 0  0.8 0.225 0  0.825 0.225 0  0.85 0.225 0  0.875 0.225 0  0.9 0.225 0  0.925 0.225 0  0.95 0.225 0  0.975 0.225 0  1 0.225 0  0 0.25 0  0.025 0.25 0  0.05 0.25 0  0.075 0.25 0  0.1 0.25 0  0.125 0.25 0  0.15 0.25 0  0.175 0.25 0  0.2 0.25 0  0.225 0.25 0  0.25 0.25 0  0.275 0.25 0  0.3 0.25 0  0.325 0.25 0  0.35 0.25 0  0.375 0.25 0  0.4 0.25 0  0.425 0.25 0  0.45 0.25 0  0.475 0.25 0  0.5 0.25 0  0.525 0.25 0  0.55 0.25 0  0.575 0.25 0  0.6 0.25 0  0.625 0.25 0  0.65 0.25 0  0.675 0.25 0  0.7 0.25 0  0.725 0.25 0  0.75 0.25 0  0.775 0.25 0  0.8 0.25 0  0.825 0.25 0  0.85 0.25 0  0.875 0.25 0  0.9 0.25 0  0.925 0.25 0  0.95 0.25 0  0.975 0.25 0  1 0.25 0  0 0.275 0  0.025 0.275 0  0.05 0.275 0  0.075 0.275 0  0.1 0.275 0  0.125 0.275 0  0.15 0.275 0  0.175 0.275 0  0.2 0.275 0  0.225 0.275 0  0.25 0.275 0  0.275 0.275 0  0.3 0.275 0  0.325 0.275 0  0.35 0.275 0  0.375 0.275 0  0.4 0.275 0  0.425 0.275 0  0.45 0.275 0  0.475 0.275 0  0.5 0.275 0  0.525 0.275 0  0.55 0.275 0  0.575 0.275 0  0.6 0.275 0  0.625 0.275 0  0.65 0.275 0  0.675 0.275 0  0.7 0.275 0  0.725 0.275 0  0.75 0.275 0  0.775 0.275 0  0.8 0.275 0  0.825 0.275 0  0.85 0.275 0  0.875 0.275 0  0.9 0.275 0  0.925 0.275 0  0.95 0.275 0  0.975 0.275 0  1 0.275 0  0 0.3 0  0.025 0.3 0  0.05 0.3 0  0.075 0.3 0  0.1 0.3 0  0.125 0.3 0  0.15 0.3 0  0.175 0.3 0  0.2 0.3 0  0.225 0.3 0  0.25 0.3 0  0.275 0.3 0  0.3 0.3 0  0.325 0.3 0  0.35 0.3 0  0.375 0.3 0  0.4 0.3 0  0.425 0.3 0  0.45 0.3 0  0.475 0.3 0  0.5 0.3 0  0.525 0.3 0  0.55 0.3 0  0.575 0.3 0  0.6 0.3 0  0.625 0.3 0  0.65 0.3 0  0.675 0.3 0  0.7 0.3 0  0.725 0.3 0  0.75 0.3 0  0.775 0.3 0  0.8 0.3 0  0.825 0.3 0  0.85 0.3 0  0.875 0.3 0  0.9 0.3 0  0.925 0.3 0  0.95 0.3 0  0.975 0.3 0  1 0.3 0  0 0.325 0  0.025 0.325 0  0.05 0.325 0  0.075 0.325 0  0.1 0.325 0  0.125 0.325 0  0.15 0.325 0  0.175 0.325 0  0.2 0.325 0  0.225 0.325 0  0.25 0.325 0  0.275 0.325 0  0.3 0.325 0  0.325 0.325 0  0.35 0.325 0  0.375 0.325 0  0.4 0.325 0  0.425 0.325 0  0.45 0.325 0  0.475 0.325 0  0.5 0.325 0  0.525 0.325 0  0.55 0.325 0  0.575 0.325 0  0.6 0.325 0  0.625 0.325 0  0.65 0.325 0  0.675 0.325 0  0.7 0.325 0  0.725 0.325 0  0.75 0.325 0  0.775 0.325 0  0.8 0.325 0  0.825 0.325 0  0.85 0.325 0  0.875 0.325 0  0.9 0.325 0  0.925 0.325 0  0.95 0.325 0  0.975 0.325 0  1 0.325 0  0 0.35 0  0.025 0.35 0  0.05 0.35 0  0.075 0.35 0  0.1 0.35 0  0.125 0.35 0  0.15 0.35 0  0.175 0.35 0  0.2 0.35 0  0.225 0.35 0  0.25 0.35 0  0.275 0.35 0  0.3 0.35 0  0.325 0.35 0  0.35 0.35 0  0.375 0.35 0  0.4 0.35 0  0.425 0.35 0  0.45 0.35 0  0.475 0.35 0  0.5 0.35 0  0.525 0.35 0  0.55 0.35 0  0.575 0.35 0  0.6 0.35 0  0.625 0.35 0  0.65 0.35 0  0.675 0.35 0  0.7 0.35 0  0.725 0.35 0  0.75 0.35 0  0.775 0.35 0  0.8 0.35 0  0.825 0.35 0  0.85 0.35 0  0.875 0.35 0  0.9 0.35 0  0.925 0.35 0  0.95 0.35 0  0.975 0.35 0  1 0.35 0  0 0.375 0  0.025 0.375 0  0.05 0.375 0  0.075 0.375 0  0.1 0.375 0  0.125 0.375 0  0.15 0.375 0  0.175 0.375 0  0.2 0.375 0  0.225 0.375 0  0.25 0.375 0  0.275 0.375 0  0.3 0.375 0  0.325 0.375 0  0.35 0.375 0  0.375 0.375 0  0.4 0.375 0  0.425 0.375 0  0.45 0.375 0  0.475 0.375 0  0.5 0.375 0  0.525 0.375 0  0.55 0.375 0  0.575 0.375 0  0.6 0.375 0  0.625 0.375 0  0.65 0.375 0  0.675 0.375 0  0.7 0.375 0  0.725 0.375 0  0.75 0.375 0  0.775 0.375 0  0.8 0.375 0  0.825 0.375 0  0.85 0.375 0  0.875 0.375 0  0.9 0.375 0  0.925 0.375 0  0.95 0.375 0  0.975 0.375 0  1 0.375 0  0 0.4 0  0.025 0.4 0  0.05 0.4 0  0.075 0.4 0  0.1 0.4 0  0.125 0.4 0  0.15 0.4 0  0.175 0.4 0  0.2 0.4 0  0.225 0.4 0  0.25 0.4 0  0.275 0.4 0  0.3 0.4 0  0.325 0.4 0  0.35 0.4 0  0.375 0.4 0  0.4 0.4 0  0.425 0.4 0  0.45 0.4 0  0.475 0.4 0  0.5 0.4 0  0.525 0.4 0  0.55 0.4 0  0.575 0.4 0  0.6 0.4 0  0.625 0.4 0  0.65 0.4 0  0.675 0.4 0  0.7 0.4 0  0.725 0.4 0  0.75 0.4 0  0.775 0.4 0  0.8 0.4 0  0.825 0.4 0  0.85 0.4 0  0.875 0.4 0  0.9 0.4 0  0.925 0.4 0  0.95 0.4 0  0.975 0.4 0  1 0.4 0  0 0.425 0  0.025 0.425 0  0.05 0.425 0  0.075 0.425 0  0.1 0.425 0  0.125 0.425 0  0.15 0.425 0  0.175 0.425 0  0.2 0.425 0  0.225 0.425 0  0.25 0.425 0  0.275 0.425 0  0.3 0.425 0  0.325 0.425 0  0.35 0.425 0  0.375 0.425 0  0.4 0.425 0  0.425 0.425 0  0.45 0.425 0  0.475 0.425 0  0.5 0.425 0  0.525 0.425 0  0.55 0.425 0  0.575 0.425 0  0.6 0.425 0  0.625 0.425 0  0.65 0.425 0  0.675 0.425 0  0.7 0.425 0  0.725 0.425 0  0.75 0.425 0  0.775 0.425 0  0.8 0.425 0  0.825 0.425 0  0.85 0.425 0  0.875 0.425 0  0.9 0.425 0  0.925 0.425 0  0.95 0.425 0  0.975 0.425 0  1 0.425 0  0 0.45 0  0.02
[...]
<PointData  Scalars="ControlVisualisation"> 
<DataArray  type="Float64"  Name="ControlVisualisation"  format="ascii">4.3995913100775447e-01  4.3993811820534473e-01  4.3993936799529876e-01  4.3994620060311185e-01  4.3995835671454936e-01  4.3997315978020385e-01  4.3998803197679620e-01  4.4000139915977055e-01  4.4001265909590132e-01  4.4002183672981704e-01  4.4002925943639587e-01  4.4003534530093397e-01  4.4004049442901466e-01  4.4004504639315256e-01  4.4004927235238184e-01  4.4005338210118777e-01  4.4005753553609767e-01  4.4006185363983835e-01  4.4006642700084780e-01  4.4007132118817716e-01  4.4007657873033879e-01  4.4008221742258158e-01  4.4008822442420614e-01  4.4009454521042740e-01  4.4010106598225973e-01  4.4010758772488207e-01  4.4011378999216233e-01  4.4011918327382765e-01  4.4012305163459337e-01  4.4012439451506086e-01  4.4012189205171448e-01  4.4011394493358941e-01  4.4009888620628118e-01  4.4007549726118417e-01  4.4004394583833290e-01  4.4000709778990466e-01  4.3997139325996160e-01  4.3994577443801886e-01  4.3993629599056805e-01  4.3993775493495418e-01  4.3997961930969182e-01  4.3993803408509835e-01  4.3988286429352769e-01  4.3992013314708950e-01  4.4000858618582811e-01  4.4014654981627949e-01  4.4031098596402590e-01  4.4047673861953646e-01  4.4062738810969160e-01  4.4075609380311304e-01  4.4086259211160012e-01  4.4094998407338598e-01  4.4102251932435488e-01  4.4108439892993495e-01  4.4113926796741265e-01  4.4119008753109296e-01  4.4123918046068683e-01  4.4128833635938619e-01  4.4133891991109764e-01  4.4139195827465788e-01  4.4144819832316218e-01  4.4150813007938933e-01  4.4157197328777564e-01  4.4163962200275603e-01  4.4171053855311504e-01  4.4178358403119922e-01  4.4185676859114509e-01  4.4192690353206487e-01  4.4198914331953770e-01  4.4203642921839081e-01  4.4205890673141796e-01  4.4204351616449367e-01  4.4197419143255595e-01  4.4183348734536321e-01  4.4160680774990391e-01  4.4129058228098622e-01  4.4090404843153902e-01  4.4049924399581508e-01  4.4015679939506930e-01  4.3994688928942133e-01  4.3987467093656751e-01  4.3993771126902625e-01  4.3993869232589794e-01  4.3992202308166306e-01  4.4006837048320568e-01  4.4030914411085592e-01  4.4063284341853265e-01  4.4099933743076464e-01  4.4136191302388161e-01  4.4168948022484561e-01  4.4196949360656707e-01  4.4220231155671524e-01  4.4239483117424688e-01  4.4255611100242820e-01  4.4269501921385063e-01  4.4281924360781394e-01  4.4293504879703172e-01  4.4304737548153883e-01  4.4316005660296848e-01  4.4327603955901829e-01  4.4339756602907243e-01  4.4352629061935117e-01  4.4366333074110936e-01  4.4380924146251821e-01  4.4396390510825945e-01  4.4412631845553852e-01  4.4429425196405004e-01  4.4446374745707856e-01  4.4462841697230560e-01  4.4477851481354286e-01  4.4489979488341114e-01  4.4497227086500429e-01  4.4496922198935790e-01  4.4485722491228158e-01  4.4459868296950822e-01  4.4415915901877895e-01  4.4352240597678516e-01  4.4271262412474077e-01  4.4181660529555539e-01  4.4097766607065297e-01  4.4032787731571410e-01  4.3994543781465612e-01  4.3993530145995124e-01  4.3994505905324394e-01  4.4003469820971247e-01  4.4037921119392892e-01  4.4077999821540115e-01  4.4121593431805145e-01  4.4166549926177295e-01  4.4209187714201909e-01  4.4246942348039303e-01  4.4278962105822800e-01  4.4305607121740043e-01  4.4327815545834709e-01  4.4346676535684354e-01  4.4363210819677318e-01  4.4378286470508738e-01  4.4392605848742189e-01  4.4406723351309257e-01  4.4421072299750436e-01  4.4435990650709539e-01  4.4451741203661754e-01  4.4468524729172076e-01  4.4486485400768966e-01  4.4505707923974719e-01  4.4526205253164086e-01  4.4547894984639780e-01  4.4570561541004772e-01  4.4593800280766860e-01  4.4616939033658937e-01  4.4638933077671356e-01  4.4658232912470441e-01  4.4672633667625927e-01  4.4679136119117835e-01  4.4673892147230970e-01  4.4652375557013063e-01  4.4610026307944634e-01  4.4543656907535573e-01  4.4453625834789318e-01  4.4346057201782829e-01  4.4230931505223670e-01  4.4116389780938581e-01  4.4019037843750586e-01  4.3994143742290548e-01  4.3996147525391693e-01  4.4028139829699159e-01  4.4100070354462306e-01  4.4158226600576878e-01  4.4203572958478365e-01  4.4243069669461504e-01  4.4278215246771252e-01  4.4308696491188743e-01  4.4334540239082110e-01  4.4356340791239524e-01  4.4374974022537333e-01  4.4391351257068612e-01  4.4406292124842595e-01  4.4420482720646187e-01  4.4434477655703397e-01  4.4448719646805163e-01  4.4463562839213644e-01  4.4479293582919077e-01  4.4496146208762088e-01  4.4514313002263667e-01  4.4533948056274392e-01  4.4555164553156257e-01  4.4578024559728274e-01  4.4602519742198010e-01  4.4628540596580119e-01  4.4655830940401620e-01  4.4683923751592852e-01  4.4712054489652209e-01  4.4739049921066865e-01  4.4763196422817814e-01  4.4782105620185947e-01  4.4792624040275780e-01  4.4790879624401353e-01  4.4772632962721415e-01  4.4734037442613706e-01  4.4672661152490500e-01  4.4586775077723673e-01  4.4467768636373922e-01  4.4293294899443503e-01  4.4079182030496233e-01  4.3996810448023432e-01  4.3999397405570373e-01  4.4086776106826064e-01  4.4228187242322675e-01  4.4301312689978761e-01  4.4329382393797334e-01  4.4344837472816312e-01  4.4358120732623235e-01  4.4370888932942742e-01  4.4383069698792876e-01  4.4394623340992490e-01  4.4405721118384384e-01  4.4416643643540082e-01  4.4427694148625935e-01  4.4439157119039918e-01  4.4451285706089078e-01  4.4464302897830799e-01  4.4478407686244631e-01  4.4493781912390518e-01  4.4510595827210286e-01  4.4529011484610181e-01  4.4549183466009334e-01  4.4571256449657143e-01  4.4595358952723274e-01  4.4621592277192462e-01  4.4650013344771017e-01  4.4680609799327203e-01  4.4713265665742918e-01  4.4747716344462901e-01  4.4783493568210486e-01  4.4819865516663254e-01  4.4855787225056082e-01  4.4889895704767468e-01  4.4920612293869794e-01  4.4946438922454351e-01  4.4966347425627334e-01  4.4979363044970372e-01  4.4977496119177329e-01  4.4919014880242331e-01  4.4680735182353715e-01  4.4213957590800812e-01  4.4001220660856577e-01  4.4030844586029710e-01  4.4269516482814636e-01  4.4510155903019094e-01  4.4551179328308382e-01  4.4515816263254976e-01  4.4478038889541943e-01  4.4452656466451401e-01  4.4438116196360061e-01  4.4431035235003302e-01  4.4428960104785253e-01  4.4430387943488719e-01  4.4434435837833347e-01  4.4440592702411064e-01  4.4448570838274359e-01  4.4458221542149390e-01  4.4469487274233821e-01  4.4482374165816657e-01  4.4496935956135719e-01  4.4513264468849384e-01  4.4531483898915430e-01  4.4551747343086140e-01  4.4574234656996986e-01  4.4599151128956710e-01  4.4626726798403193e-01  4.4657216668311006e-01  4.4690902762971779e-01  4.4728100288208050e-01  4.4769172642580468e-01  4.4814564825263387e-01  4.4864873873589528e-01  4.4920992766032158e-01  4.4984396900369028e-01  4.5057699971370357e-01  4.5145681700556317e-01  4.5256878859837030e-01  4.5404587467132929e-01  4.5598106720381798e-01  4.5789107115768712e-01  4.5679499393713252e-01  4.4760418713204414e-01  4.4030040564018535e-01  4.4384263460494494e-01  4.4908658981933586e-01  4.5087615738651482e-01  4.4940438023315382e-01  4.4761491146640919e-01  4.4634699593316118e-01  4.4554868050392155e-01  4.4506031431960918e-01  4.4476615564554411e-01  4.4459599190230148e-01  4.4450826922506254e-01  4.4447802554131599e-01  4.4448994618197585e-01  4.4453450648942805e-01  4.4460580248805465e-01  4.4470029647741099e-01  4.4481607131110268e-01  4.4495237868243237e-01  4.4510936542887519e-01  4.4528791410155938e-01  4.4548956303759923e-01  4.4571648878140646e-01  4.4597154628633495e-01  4.4625837392512863e-01  4.4658158442930768e-01  4.4694708378458042e-01  4.4736259469451389e-01  4.4783852187726186e-01  4.4838940683624579e-01  4.4903642701549185e-01  4.4981180072139765e-01  4.5076675516623543e-01  4.5198638997418267e-01  4.5361790711501282e-01  4.5592353826060167e-01  4.5936890791438206e-01  4.6468871824653979e-01  4.7245423586099194e-01  4.8003336624969117e-01  4.7518000945657246e-01  4.4706213237349868e-01  4.5473312766855356e-01  4.6409947793621525e-01  4.5977748801353846e-01  4.5418909395661727e-01  4.5025942156078524e-01  4.4788551766886026e-01  4.4648507774361440e-01  4.4564760975536094e-01  4.4513969863830705e-01  4.4483294751028923e-01  4.4465499591658980e-01  4.4456355869853731e-01  4.4453305913907237e-01  4.4454763442812989e-01  4.4459734339318763e-01  4.4467602856035382e-01  4.4478006916312612e-01  4.4490763715916198e-01  4.4505825316520398e-01  4.4523253384319789e-01  4.4543207363680526e-01  4.4565943451412365e-01  4.4591823924047719e-01  4.4621338385941189e-01  4.4655140949956179e-01  4.4694110971731765e-01  4.4739450915472551e-01  4.4792845407781001e-01  4.4856724801249448e-01  4.4934713513213553e-01  4.5032417054517265e-01  4.5158853890509587e-01  4.5329171925663192e-01  4.5569989410998329e-01  4.5930270913899640e-01  4.6503173095790007e-01  4.7464117975135028e-01  4.9098217172822772e-01  5.1585707111425194e-01  5.3986435135251365e-01  4.8271812607252479e-01  4.6551015899578613e-01  4.8066680860934968e-01  4.6806526792220016e-01  4.5821238638707118e-01  4.5231627336921615e-01  4.4900532543032040e-01  4.4712682477546267e-01  4.4602585174228659e-01  4.4536319285123238e-01  4.4496070800131193e-01  4.4472095277593970e-01  4.4458816139689938e-01  4.4452908741153185e-01  4.4452329495706278e-01  4.4455801535015960e-01  4.4462530326989885e-01  4.4472040512135386e-01  4.4484079955531242e-01  4.4498563310740907e-01  4.4515540585197233e-01  4.4535183241624376e-01  4.4557784529964128e-01  4.4583773679178951e-01  4.4613746283827821e-01  4.4648516519772707e-01  4.4689201729397687e-01  4.4737358075012174e-01  4.4795200434765581e-01  4.4865966629469689e-01  4.4954538283378870e-01  4.5068535946929050e-01  4.5220328586367209e-01  4.5430884085165135e-01  4.5737467580611213e-01  4.6209736270318325e-01  4.6983554714034342e-01  4.8329564942929260e-01  5.0756739454530342e-01  5.4947895433836547e-01  6.0515826503331904e-01  5.3056480119241978e-01  4.6877037175988229e-01  4.8802949076212143e-01  4.7158186258089635e-01  4.5978271815911859e-01  4.5304703217709352e-01  4.4936255731386998e-01  4.4730147686319233e-01  4.4610363174982237e-01  4.4538601140886797e-01  4.4495030380982509e-01  4.4468927708335204e-01  4.4454206092758625e-01  4.4447258742969598e-01  4.4445878225590812e-01  4.4448688979628265e-01  4.4454836186718982e-01  4.4463808601600996e-01  4.4475335194230409e-01  4.4489325009274694e-01  4.4505834386386373e-01  4.4525053513636459e-01  4.4547308902583876e-01  4.4573081649429558e-01  4.4603044403834796e-01  4.4638123739758961e-01  4.4679600273564812e-01  4.4729268307910464e-01  4.4789693559167038e-01  4.4864638784809496e-01  4.4959787788219413e-01  4.5084020755052934e-01  4.5251751617837532e-01  4.5487395506841843e-01  4.5834286694464893e-01  4.6373154671746847e-01  4.7260666254192707e-01  4.8807881859535596e-01  5.1597062441786867e-01  5.6438269702092825e-01  6.3141763298203302e-01  5.5511033412393584e-01  4.6268167088181356e-01  4.8189787533229850e-01  4.6853586638828504e-01  4.5822250415582383e-01  4.5217828720034769e-01  4.4883405078788874e-01  4.4695086010382151e-01  4.4585281728664539e-01  4.4519423653188883e-01  4.4479485901103027e-01  4.4455673079316443e-01  4.4442397901752917e-01  4.4436338010461413e-01  4.4435455274564623e-01  4.4438479445457052e-01  4.4444624211157469e-01  4.4453425209353553e-01  4.4464645643107542e-01  4.4478221820794089e-01  4.4494234330734012e-01  4.4512897719340611e-01  4.4534565825604433e-01  4.4559753041367289e-01  4.4589174758963918e-01  4.4623814028343450e-01  4.4665027107168837e-01  4.4714710010501157e-01  4.4775564813016672e-01  4.4851535174304252e-01  4.4948539453846509e-01  4.5075746951013806e-01  4.5247883763474828e-01  4.5489563010427259e-01  4.5843728754258739e-01  4.6388510414438539e-01  4.7270752893999118e-01  4.8766707013885791e-01  5.1338920975929203e-01  5.5463066649859771e-01  6.0461927865687726e-01  5.4236025159149981e-01  4.5073693548695853e-01  4.6570690130951481e-01  4.6029982038588424e-01  4.5415934891766890e-01  4.5001190129696877e-01  4.4757297653119626e-01  4.4615818080600850e-01  4.4532116093504842e-01  4.4481682537240907e-01  4.4451288381922865e-01  4.4433571638089780e-01  4.4424259229601709e-01  4.4420777940825740e-01  4.4421536934644229e-01  4.4425544158967833e-01  4.4432192311908042e-01  4.4441135522570757e-01  4.4452217276466521e-01  4.4465429339214479e-01  4.4480891228444613e-01  4.4498845135523729e-01  4.4519664518965696e-01  4.4543877130449266e-01  4.4572205791980934e-01  4.4605633538554534e-01  4.4645504711149259e-01  4.4693681763964577e-01  4.4752791734854497e-01  4.4826621897288194e-01  4.4920771753817740e-01  4.5043759912109910e-01  4.5208963398311208e-01  4.5438120339075755e-01  4.5767798458049030e-01  4.6261294250159446e-01  4.7029085200949139e-01  4.8252570812550144e-01  5.0151065591027788e-01  5.2621848410232508e-01  5.4139254316452079e-01  4.9962386285158605e-01  4.4179138381831612e-01  4.4936687492143179e-01  4.5107994158227227e-01  4.4926148253950399e-01  4.4728135977713401e-01  4.4593769831738467e-01  4.4511229602788788e-01  4.4461440158022619e-01  4.4431636795921076e-01  4.4414329274224268e-01  4.4405151639471430e-01  4.4401498312702575e-01  4.4401773646757869e-01  4.4404986209559372e-01  4.4410525060050038e-01  4.4418032029171600e-01  4.4427327233008307e-01  4.4438365683208392e-01  4.4451213564148306e-01  4.4466038314332840e-01  4.4483109836845913e-01  4.4502812275061215e-01  4.4525667548064596e-01  4.4552373743235818e-01  4.4583863993086587e-01  4.4621395266432023e-01  4.4666682621923248e-01  4.4722104728283169e-01  4.4791024156441150e-01  4.4878297155584029e-01  4.4991103211371031e-01  4.5140322511685149e-01  4.5342849547508635e-01  4.5625422362486140e-01  4.6030410902081509e-01  4.6621475188215861e-01  4.7472283517769270e-01  4.8563274258752875e-01  4.9358188424390370e-01  4.8294189528211695e-01  4.5631229211090479e-01  4.4006066086535867e-01  4.4217192006535222e-01  4.4483928576403431e-01  4.4522634106686448e-01  4.4477245201774629e-01  4.4432566496532527e-01  4.4402958693484884e-01  4.4385796491538670e-01  4.4376936408080303e-01  4.4373479375562852e-01  4.4373632806794711e-01  4.4376314003473405e-01  4.4380870905152253e-01  4.4386919083787563e-01  4.4394248948261322e-01  4.4402772682175706e-01  4.4412494094804267e-01  4.4423492453337671e-01  4.4435915791967046e-01  4.4449981561059548e-01  4.4465983947771942e-01  4.4484308277329881e-01  4.4505453927190120e-01  4.4530068401844597e-01  4.4558996885365737e-01  4.4593354065976260e-01  4.4634628853979252e-01  4.4684838653541831e-01  4.4746759450524604e-01  4.4824273064022818e-01  4.4922895327672968e-01  4.5050576345438736e-01  4.5218870238764608e-01  4.5444427949295374e-01  4.5749928648442295e-01  4.6159898314332809e-01  4.6673392801419217e-01  4.7157734406297502e-01  4.7086060593256751e-01  4.5669904970804132e-01  4.4201379054562390e-01  4.3997425671229345e-01  4.4062983389445654e-01  4.4201750866036726e-01  4.4271837212031101e-01  4.4292502518709875e-01  4.4300428580140533e-01  4.4307598799979925e-01  4.4315787621039282e-01  4.4324544976941277e-01  4.4333431155509928e-01  4.4342251074698402e-01  4.4350985325099784e-01  4.4359706940323812e-01  4.4368534966688533e-01  4.4377613020427470e-01  4.4387101829929987e-01  4.4397179048959046e-01  4.4408043150334209e-01  4.4419920133459834e-01  4.4433072809845081e-01  4.4447813068858028e-01  4.4464518015493421e-01  4.4483651385108797e-01  4.4505792291144763e-01  4.4531674264764354e-01  4.4562238831554007e-01  4.4598709698731787e-01  4.4642696153366596e-01  4.4696337507719269e-01  4.4762503704865347e-01  4.4845067369883762e-01  4.4949247946768439e-01  4.5081958278666773e-01  4.5251819824520922e-01  4.5467594327545247e-01  4.5730812216884348e-01  4.6010108393313809e-01  4.6170367301609211e-01  4.5867320973754405e-01  4.4833864226146042e-01  4.4054089516372635e-01  4.3995712224916000e-01  4.4021278230975996e-01  4.4086596299068148e-01  4.4137613424566063e-01  4.4174406641466579e-01  4.4205348188743671e-01  4.4233194333804626e-01  4.4257936368752460e-01  4.4279425755412433e-01  4.4297874875021742e-01  4.4313731172247489e-01  4.4327526018824726e-01  4.4339778457489676e-01  4.4350957051412987e-01  4.4361472313656281e-01  4.4371683931903366e-01  4.4381913806534024e-01  4.4392460845615933e-01  4.4403615990744855e-01  4.4415677266247638e-01  4.4428965319244079e-01  4.4443840302482118e-01  4.4460721238267603e-01  4.4480109291119074e-01  4.4502616722023930e-01  4.4529003708605319e-01  4.4560225635619821e-01  4.4597493677582584e-01  4.4642350909602352e-01  4.4696763183429122e-01  4.4763214254545786e-01  4.4844766141136494e-01  4.4944964198557846e-01  4.5067232440609556e-01  4.5212736566640654e-01  4.5373893899197104e-01  4.5516681206280946e-01  4.5541628057981676e-01  4.5248131369817290e-01  4.4530599961522704e-01  4.4035922814408479e-01  4.3994564722894219e-01  4.4001279085074596e-01  4.4032098919143409e-01  4.4067076601426508e-01  4.4104478002486452e-01  4.4143280159671605e-01  4.4180818546796863e-01  4.4214820827077800e-01  4.4244293269173884e-01  4.4269196759958535e-01  4.4290024134459821e-01  4.4307477214933311e-01  4.4322283710395849e-01  4.4335113460162751e-01  4.4346550245146693e-01  4.4357092444386814e-01  4.4367166417606135e-01  4.4377144433808585e-01  4.4387363328640012e-01  4.4398142487861003e-01  4.4409800990618975e-01  4.4422674358392522e-01  4.4437131645667433e-01  4.4453593735085206e-01  4.4472553723052333e-01  4.4494600179649751e-01  4.4520443714569080e-01  4.4550946376596690e-01  4.4587151291608845e-01  4.4630305127917863e-01  4.4681855060527359e-01  4.4743376545662261e-01  4.4816326727828815e-01  4.4901362486683627e-01  4.4996559638782196e-01  4.5092873510411963e-01  4.5163173271885870e-01  4.5140251108514318e-01  4.4898246535980380e-01  4.4379721114786119e-01  4.4024783528893152e-01  4.3994036998270436e-01  4.3992087311770078e-01  4.4006646499243740e-01  4.4031897641170709e-01  4.4066743392876878e-01  4.4107155025062283e-01  4.4148254733980935e-01  4.4186507265288161e-01  4.4220118254485546e-01  4.4248609868669092e-01  4.4272292961078835e-01  4.4291844398954572e-01  4.4308050302812008e-01  4.4321670749615782e-01  4.4333382222950174e-01  4.4343763600986663e-01  4.4353303627614837e-01  4.4362417447799102e-01  4.4371465735226068e-01  4.4380773480584007e-01  4.4390647409726369e-01  4.4401391952988800e-01  4.4413324098390106e-01  4.4426787563896675e-01  4.4442166617960571e-01  4.4459899563249461e-01  4.4480491276203388e-01  4.4504523027012405e-01  4.4532655616064915e-01  4.4565617707249688e-01  4.4604163106546291e-01  4.4648963912353073e-01  4.4700368694640485e-01  4.4757862286530287e-01  4.4818823128332652e-01  4.4875559746817401e-01  4.4908286688219179e-01  4.4870571904569345e-01  4.4675728111027940e-01  4.4282874584055321e-01  4.4017488790500886e-01  4.3993925464867351e-01  4.3989219065237001e-01  4.3997763253431904e-01  4.4018705001613506e-01  4.4051434044074844e-01  4.4091220653902935e-01  4.4132732517326773e-01  4.4172011007925133e-01  4.4206853285611797e-01  4.4236486391299507e-01  4.4261046534253745e-01  4.4281136556162864e-01  4.4297532143419610e-01  4.4311014550482103e-01  4.4322292013163972e-01  4.4331973548813430e-01  4.4340570380743966e-01  4.4348509884415438e-01  4.4356153762979372e-01  4.4363816387799437e-01  4.4371781600226479e-01  4.4380317484447451e-01  4.4389689153734402e-01  4.4400169728857830e-01  4.4412049569132883e-01  4.4425643483154381e-01  4.4441295054623475e-01  4.4459376239259296e-01  4.4480278772274923e-01  4.4504391203039467e-01  4.4532050545672613e-01  4.4563448044191095e-01  4.4598446832752892e-01  4.4636211795678571e-01  4.4674388187319569e-01  4.4707112430051466e-01  4.4720075612748916e-01  4.4679744433821594e-01  4.4522163282687788e-01  4.4216546948921459e-01  4.4012332681740640e-01  4.3994167642433518e-01  4.3991278779068704e-01  4.4001231323165158e-01  4.4022031925744604e-01  4.4053663435616913e-01  4.4092021737273823e-01  4.4132156489285379e-01  4.4170227535552142e-01  4.420401643