<?xml version="1.0"?>
<VTKFile type="UnstructuredGrid"  version="0.1"  >
<UnstructuredGrid>
<Piece  NumberOfPoints="1681" NumberOfCells="3200">
<Points>
<DataArray  type="Float64"  NumberOfComponents="3"  format="ascii">0 0 0  0.025 0 0  0.05 0 0  0.075 0 0  0.1 0 0  0.125 0 0  0.15 0 0  0.175 0 0  0.2 0 0  0.225 0 0  0.25 0 0  0.275 0 0  0.3 0 0  0.325 0 0  0.35 0 0  0.375 0 0  0.4 0 0  0.425 0 0  0.45 0 0  0.475 0 0  0.5 0 0  0.525 0 0  0.55 0 0  0.575 0 0  0.6 0 0  0.625 0 0  0.65 0 0  0.675 0 0  0.7 0 0  0.725 0 0  0.75 0 0  0.775 0 0  0.8 0 0  0.825 0 0  0.85 0 0  0.875 0 0  0.9 0 0  0.925 0 0  0.95 0 0  0.975 0 0  1 0 0  0 0.025 0  0.025 0.025 0  0.05 0.025 0  0.075 0.025 0  0.1 0.025 0  0.125 0.025 0  0.15 0.025 0  0.175 0.025 0  0.2 0.025 0  0.225 0.025 0  0.25 0.025 0  0.275 0.025 0  0.3 0.025 0  0.325 0.025 0  0.35 0.025 0  0.375 0.025 0  0.4 0.025 0  0.425 0.025 0  0.45 0.025 0  0.475 0.025 0  0.5 0.025 0  0.525 0.025 0  0.55 0.025 0  0.575 0.025 0  0.6 0.025 0  0.625 0.025 0  0.65 0.025 0  0.675 0.025 0  0.7 0.025 0  0.725 0.025 0  0.75 0.025 0  0.775 0.025 0  0.8 0.025 0  0.825 0.025 0  0.85 0.025 0  0.875 0.025 0  0.9 0.025 0  0.925 0.025 0  0.95 0.025 0  0.975 0.025 0  1 0.025 0  0 0.05 0  0.025 0.05 0  0.05 0.05 0  0.075 0.05 0  0.1 0.05 0  0.125 0.05 0  0.15 0.05 0  0.175 0.05 0  0.2 0.05 0  0.225 0.05 0  0.25 0.05 0  0.275 0.05 0  0.3 0.05 0  0.325 0.05 0  0.35 0.05 0  0.375 0.05 0  0.4 0.05 0  0.425 0.05 0  0.45 0.05 0  0.475 0.05 0  0.5 0.05 0  0.525 0.05 0  0.55 0.05 0  0.575 0.05 0  0.6 0.05 0  0.625 0.05 0  0.65 0.05 0  0.675 0.05 0  0.7 0.05 0  0.725 0.05 0  0.75 0.05 0  0.775 0.05 0  0.8 0.05 0  0.825 0.05 0  0.85 0.05 0  0.875 0.05 0  0.9 0.05 0  0.925 0.05 0  0.95 0.05 0  0.975 0.05 0  1 0.05 0  0 0.075 0  0.025 0.075 0  0.05 0.075 0  0.075 0.075 0  0.1 0.075 0  0.125 0.075 0  0.15 0.075 0  0.175 0.075 0  0.2 0.075 0  0.225 0.075 0  0.25 0.075 0  0.275 0.075 0  0.3 0.075 0  0.325 0.075 0  0.35 0.075 0  0.375 0.075 0  0.4 0.075 0  0.425 0.075 0  0.45 0.075 0  0.475 0.075 0  0.5 0.075 0  0.525 0.075 0  0.55 0.075 0  0.575 0.075 0  0.6 0.075 0  0.625 0.075 0  0.65 0.075 0  0.675 0.075 0  0.7 0.075 0  0.725 0.075 0  0.75 0.075 0  0.775 0.075 0  0.8 0.075 0  0.825 0.075 0  0.85 0.075 0  0.875 0.075 0  0.9 0.075 0  0.925 0.075 0  0.95 0.075 0  0.975 0.075 0  1 0.075 0  0 0.1 0  0.025 0.1 0  0.05 0.1 0  0.075 0.1 0  0.1 0.1 0  0.125 0.1 0  0.15 0.1 0  0.175 0.1 0  0.2 0.1 0  0.225 0.1 0  0.25 0.1 0  0.275 0.1 0  0.3 0.1 0  0.325 0.1 0  0.35 0.1 0  0.375 0.1 0  0.4 0.1 0  0.425 0.1 0  0.45 0.1 0  0.475 0.1 0  0.5 0.1 0  0.525 0.1 0  0.55 0.1 0  0.575 0.1 0  0.6 0.1 0  0.625 0.1 0  0.65 0.1 0  0.675 0.1 0  0.7 0.1 0  0.725 0.1 0  0.75 0.1 0  0.775 0.1 0  0.8 0.1 0  0.825 0.1 0  0.85 0.1 0  0.875 0.1 0  0.9 0.1 0  0.925 0.1 0  0.95 0.1 0  0.975 0.1 0  1 0.1 0  0 0.125 0  0.025 0.125 0  0.05 0.125 0  0.075 0.125 0  0.1 0.125 0  0.125 0.125 0  0.15 0.125 0  0.175 0.125 0  0.2 0.125 0  0.225 0.125 0  0.25 0.125 0  0.275 0.125 0  0.3 0.125 0  0.325 0.125 0  0.35 0.125 0  0.375 0.125 0  0.4 0.125 0  0.425 0.125 0  0.45 0.125 0  0.475 0.125 0  0.5 0.125 0  0.525 0.125 0  0.55 0.125 0  0.575 0.125 0  0.6 0.125 0  0.625 0.125 0  0.65 0.125 0  0.675 0.125 0  0.7 0.125 0  0.725 0.125 0  0.75 0.125 0  0.775 0.125 0  0.8 0.125 0  0.825 0.125 0  0.85 0.125 0  0.875 0.125 0  0.9 0.125 0  0.925 0.125 0  0.95 0.125 0  0.975 0.125 0  1 0.125 0  0 0.15 0  0.025 0.15 0  0.05 0.15 0  0.075 0.15 0  0.1 0.15 0  0.125 0.15 0  0.15 0.15 0  0.175 0.15 0  0.2 0.15 0  0.225 0.15 0  0.25 0.15 0  0.275 0.15 0  0.3 0.15 0  0.325 0.15 0  0.35 0.15 0  0.375 0.15 0  0.4 0.15 0  0.425 0.15 0  0.45 0.15 0  0.475 0.15 0  0.5 0.15 0  0.525 0.15 0  0.55 0.15 0  0.575 0.15 0  0.6 0.15 0  0.625 0.15 0  0.65 0.15 0  0.675 0.15 0  0.7 0.15 0  0.725 0.15 0  0.75 0.15 0  0.775 0.15 0  0.8 0.15 0  0.825 0.15 0  0.85 0.15 0  0.875 0.15 0  0.9 0.15 0  0.925 0.15 0  0.95 0.15 0  0.975 0.15 0  1 0.15 0  0 0.175 0  0.025 0.175 0  0.05 0.175 0  0.075 0.175 0  0.1 0.175 0  0.125 0.175 0  0.15 0.175 0  0.175 0.175 0  0.2 0.175 0  0.225 0.175 0  0.25 0.175 0  0.275 0.175 0  0.3 0.175 0  0.325 0.175 0  0.35 0.175 0  0.375 0.175 0  0.4 0.175 0  0.425 0.175 0  0.45 0.175 0  0.475 0.175 0  0.5 0.175 0  0.525 0.175 0  0.55 0.175 0  0.575 0.175 0  0.6 0.175 0  0.625 0.175 0  0.65 0.175 0  0.675 0.175 0  0.7 0.175 0  0.725 0.175 0  0.75 0.175 0  0.775 0.175 0  0.8 0.175 0  0.825 0.175 0  0.85 0.175 0  0.875 0.175 0  0.9 0.175 0  0.925 0.175 0  0.95 0.175 0  0.975 0.175 0  1 0.175 0  0 0.2 0  0.025 0.2 0  0.05 0.2 0  0.075 0.2 0  0.1 0.2 0  0.125 0.2 0  0.15 0.2 0  0.175 0.2 0  0.2 0.2 0  0.225 0.2 0  0.25 0.2 0  0.275 0.2 0  0.3 0.2 0  0.325 0.2 0  0.35 0.2 0  0.375 0.2 0  0.4 0.2 0  0.425 0.2 0  0.45 0.2 0  0.475 0.2 0  0.5 0.2 0  0.525 0.2 0  0.55 0.2 0  0.575 0.2 0  0.6 0.2 0  0.625 0.2 0  0.65 0.2 0  0.675 0.2 0  0.7 0.2 0  0.725 0.2 0  0.75 0.2 0  0.775 0.2 0  0.8 0.2 0  0.825 0.2 0  0.85 0.2 0  0.875 0.2 0  0.9 0.2 0  0.925 0.2 0  0.95 0.2 0  0.975 0.2 0  1 0.2 0  0 0.225 0  0.025 0.225 0  0.05 0.225 0  0.075 0.225 0  0.1 0.225 0  0.125 0.225 0  0.15 0.225 0  0.175 0.225 0  0.2 0.225 0  0.225 0.225 0  0.25 0.225 0  0.275 0.225 0  0.3 0.225 0  0.325 0.225 0  0.35 0.225 0  0.375 0.225 0  0.4 0.225 0  0.425 0.225 0  0.45 0.225 0  0.475 0.225 0  0.5 0.225 0  0.525 0.225 0  0.55 0.225 0  0.575 0.225 0  0.6 0.225 0  0.625 0.225 0  0.65 0.225 0  0.675 0.225 0  0.7 0.225 0  0.725 0.225 0  0.75 0.225 0  0.775 0.225 0  0.8 0.225 0  0.825 0.225 0  0.85 0.225 0  0.875 0.225 0  0.9 0.225 0  0.925 0.225 0  0.95 0.225 0  0.975 0.225 0  1 0.225 0  0 0.25 0  0.025 0.25 0  0.05 0.25 0  0.075 0.25 0  0.1 0.25 0  0.125 0.25 0  0.15 0.25 0  0.175 0.25 0  0.2 0.25 0  0.225 0.25 0  0.25 0.25 0  0.275 0.25 0  0.3 0.25 0  0.325 0.25 0  0.35 0.25 0  0.375 0.25 0  0.4 0.25 0  0.425 0.25 0  0.45 0.25 0  0.475 0.25 0  0.5 0.25 0  0.525 0.25 0  0.55 0.25 0  0.575 0.25 0  0.6 0.25 0  0.625 0.25 0  0.65 0.25 0  0.675 0.25 0  0.7 0.25 0  0.725 0.25 0  0.75 0.25 0  0.775 0.25 0  0.8 0.25 0  0.825 0.25 0  0.85 0.25 0  0.875 0.25 0  0.9 0.25 0  0.925 0.25 0  0.95 0.25 0  0.975 0.25 0  1 0.25 0  0 0.275 0  0.025 0.275 0  0.05 0.275 0  0.075 0.275 0  0.1 0.275 0  0.125 0.275 0  0.15 0.275 0  0.175 0.275 0  0.2 0.275 0  0.225 0.275 0  0.25 0.275 0  0.275 0.275 0  0.3 0.275 0  0.325 0.275 0  0.35 0.275 0  0.375 0.275 0  0.4 0.275 0  0.425 0.275 0  0.45 0.275 0  0.475 0.275 0  0.5 0.275 0  0.525 0.275 0  0.55 0.275 0  0.575 0.275 0  0.6 0.275 0  0.625 0.275 0  0.65 0.275 0  0.675 0.275 0  0.7 0.275 0  0.725 0.275 0  0.75 0.275 0  0.775 0.275 0  0.8 0.275 0  0.825 0.275 0  0.85 0.275 0  0.875 0.275 0  0.9 0.275 0  0.925 0.275 0  0.95 0.275 0  0.975 0.275 0  1 0.275 0  0 0.3 0  0.025 0.3 0  0.05 0.3 0  0.075 0.3 0  0.1 0.3 0  0.125 0.3 0  0.15 0.3 0  0.175 0.3 0  0.2 0.3 0  0.225 0.3 0  0.25 0.3 0  0.275 0.3 0  0.3 0.3 0  0.325 0.3 0  0.35 0.3 0  0.375 0.3 0  0.4 0.3 0  0.425 0.3 0  0.45 0.3 0  0.475 0.3 0  0.5 0.3 0  0.525 0.3 0  0.55 0.3 0  0.575 0.3 0  0.6 0.3 0  0.625 0.3 0  0.65 0.3 0  0.675 0.3 0  0.7 0.3 0  0.725 0.3 0  0.75 0.3 0  0.775 0.3 0  0.8 0.3 0  0.825 0.3 0  0.85 0.3 0  0.875 0.3 0  0.9 0.3 0  0.925 0.3 0  0.95 0.3 0  0.975 0.3 0  1 0.3 0  0 0.325 0  0.025 0.325 0  0.05 0.325 0  0.075 0.325 0  0.1 0.325 0  0.125 0.325 0  0.15 0.325 0  0.175 0.325 0  0.2 0.325 0  0.225 0.325 0  0.25 0.325 0  0.275 0.325 0  0.3 0.325 0  0.325 0.325 0  0.35 0.325 0  0.375 0.325 0  0.4 0.325 0  0.425 0.325 0  0.45 0.325 0  0.475 0.325 0  0.5 0.325 0  0.525 0.325 0  0.55 0.325 0  0.575 0.325 0  0.6 0.325 0  0.625 0.325 0  0.65 0.325 0  0.675 0.325 0  0.7 0.325 0  0.725 0.325 0  0.75 0.325 0  0.775 0.325 0  0.8 0.325 0  0.825 0.325 0  0.85 0.325 0  0.875 0.325 0  0.9 0.325 0  0.925 0.325 0  0.95 0.325 0  0.975 0.325 0  1 0.325 0  0 0.35 0  0.025 0.35 0  0.05 0.35 0  0.075 0.35 0  0.1 0.35 0  0.125 0.35 0  0.15 0.35 0  0.175 0.35 0  0.2 0.35 0  0.225 0.35 0  0.25 0.35 0  0.275 0.35 0  0.3 0.35 0  0.325 0.35 0  0.35 0.35 0  0.375 0.35 0  0.4 0.35 0  0.425 0.35 0  0.45 0.35 0  0.475 0.35 0  0.5 0.35 0  0.525 0.35 0  0.55 0.35 0  0.575 0.35 0  0.6 0.35 0  0.625 0.35 0  0.65 0.35 0  0.675 0.35 0  0.7 0.35 0  0.725 0.35 0  0.75 0.35 0  0.775 0.35 0  0.8 0.35 0  0.825 0.35 0  0.85 0.35 0  0.875 0.35 0  0.9 0.35 0  0.925 0.35 0  0.95 0.35 0  0.975 0.35 0  1 0.35 0  0 0.375 0  0.025 0.375 0  0.05 0.375 0  0.075 0.375 0  0.1 0.375 0  0.125 0.375 0  0.15 0.375 0  0.175 0.375 0  0.2 0.375 0  0.225 0.375 0  0.25 0.375 0  0.275 0.375 0  0.3 0.375 0  0.325 0.375 0  0.35 0.375 0  0.375 0.375 0  0.4 0.375 0  0.425 0.375 0  0.45 0.375 0  0.475 0.375 0  0.5 0.375 0  0.525 0.375 0  0.55 0.375 0  0.575 0.375 0  0.6 0.375 0  0.625 0.375 0  0.65 0.375 0  0.675 0.375 0  0.7 0.375 0  0.725 0.375 0  0.75 0.375 0  0.775 0.375 0  0.8 0.375 0  0.825 0.375 0  0.85 0.375 0  0.875 0.375 0  0.9 0.375 0  0.925 0.375 0  0.95 0.375 0  0.975 0.375 0  1 0.375 0  0 0.4 0  0.025 0.4 0  0.05 0.4 0  0.075 0.4 0  0.1 0.4 0  0.125 0.4 0  0.15 0.4 0  0.175 0.4 0  0.2 0.4 0  0.225 0.4 0  0.25 0.4 0  0.275 0.4 0  0.3 0.4 0  0.325 0.4 0  0.35 0.4 0  0.375 0.4 0  0.4 0.4 0  0.425 0.4 0  0.45 0.4 0  0.475 0.4 0  0.5 0.4 0  0.525 0.4 0  0.55 0.4 0  0.575 0.4 0  0.6 0.4 0  0.625 0.4 0  0.65 0.4 0  0.675 0.4 0  0.7 0.4 0  0.725 0.4 0  0.75 0.4 0  0.775 0.4 0  0.8 0.4 0  0.825 0.4 0  0.85 0.4 0  0.875 0.4 0  0.9 0.4 0  0.925 0.4 0  0.95 0.4 0  0.975 0.4 0  1 0.4 0  0 0.425 0  0.025 0.425 0  0.05 0.425 0  0.075 0.425 0  0.1 0.425 0  0.125 0.425 0  0.15 0.425 0  0.175 0.425 0  0.2 0.425 0  0.225 0.425 0  0.25 0.425 0  0.275 0.425 0  0.3 0.425 0  0.325 0.425 0  0.35 0.425 0  0.375 0.425 0  0.4 0.425 0  0.425 0.425 0  0.45 0.425 0  0.475 0.425 0  0.5 0.425 0  0.525 0.425 0  0.55 0.425 0  0.575 0.425 0  0.6 0.425 0  0.625 0.425 0  0.65 0.425 0  0.675 0.425 0  0.7 0.425 0  0.725 0.425 0  0.75 0.425 0  0.775 0.425 0  0.8 0.425 0  0.825 0.425 0  0.85 0.425 0  0.875 0.425 0  0.9 0.425 0  0.925 0.425 0  0.95 0.425 0  0.975 0.425 0  1 0.425 0  0 0.45 0  0.02
[...]
<PointData  Scalars="ControlVisualisation"> 
<DataArray  type="Float64"  Name="ControlVisualisation"  format="ascii">9.3811763291734324e-02  6.4846655787173066e-02  6.4856435465318732e-02  6.4882336964383419e-02  6.4929794545312475e-02  6.4996692872402631e-02  6.5074096185461866e-02  6.5151234242532552e-02  6.5219851219803837e-02  6.5275817556233809e-02  6.5318544852958113e-02  6.5349467511884252e-02  6.5370633659029606e-02  6.5383920996166800e-02  6.5390823645167490e-02  6.5392505037207213e-02  6.5389945049992834e-02  6.5384151885905267e-02  6.5376309601296950e-02  6.5367544198889224e-02  6.5358220244291540e-02  6.5347414334365528e-02  6.5333849983693404e-02  6.5317741121057135e-02  6.5301124319380524e-02  6.5285606556842152e-02  6.5269569986494178e-02  6.5248360435354952e-02  6.5217438189713525e-02  6.5174731745534134e-02  6.5120658739976744e-02  6.5057535418026544e-02  6.4990069698681402e-02  6.4926307704100475e-02  6.4876026537452933e-02  6.4848196591882873e-02  6.4844457135579431e-02  6.4851852601393215e-02  6.4852758842852867e-02  6.4846474533282017e-02  1.6623480778368710e-01  6.4845715823644470e-02  3.3590961100237710e-02  3.3606232627535211e-02  3.3645359856714130e-02  3.3717057701315299e-02  3.3818950444158752e-02  3.3938425363503222e-02  3.4059407386760152e-02  3.4168739846563372e-02  3.4259161446276096e-02  3.4328975323478839e-02  3.4379927245444898e-02  3.4414973899391479e-02  3.4436984348991721e-02  3.4448370518471924e-02  3.4451098237143291e-02  3.4446756660115423e-02  3.4436826694788022e-02  3.4423182604442382e-02  3.4408027942570779e-02  3.4392567929801818e-02  3.4375585338921079e-02  3.4354304034944147e-02  3.4327910427519127e-02  3.4299972819356622e-02  3.4275534448581953e-02  3.4255005970189260e-02  3.4230713966445725e-02  3.4193659388003526e-02  3.4138410052636611e-02  3.4063656625649003e-02  3.3971702866371155e-02  3.3868732476545864e-02  3.3764712775847881e-02  3.3675112633140478e-02  3.3617201755553792e-02  3.3597066375042818e-02  3.3602304741460490e-02  3.3606083707954974e-02  3.3596808871206821e-02  6.4846981357310762e-02  6.4845103370815255e-02  3.3596442046033070e-02  3.3625578211822944e-02  3.3689345222286352e-02  3.3796201463879988e-02  3.3936217384753754e-02  3.4090466401308035e-02  3.4239399674902624e-02  3.4368847291543304e-02  3.4472282952623626e-02  3.4549935537353388e-02  3.4605600847943001e-02  3.4643418092049863e-02  3.4666568509842462e-02  3.4677583993301467e-02  3.4678656211560910e-02  3.4671330394235991e-02  3.4656732459908322e-02  3.4637174105493183e-02  3.4617191399963006e-02  3.4601143098448521e-02  3.4588628440685804e-02  3.4572049745201575e-02  3.4546512255417161e-02  3.4521599893982138e-02  3.4516336980049023e-02  3.4544219655938402e-02  3.4597534722885959e-02  3.4666769658938917e-02  3.4737938237537673e-02  3.4781800884066051e-02  3.4752329083367776e-02  3.4604271482850821e-02  3.4328476993916598e-02  3.4016509544890057e-02  3.3787268476268249e-02  3.3675471190718211e-02  3.3656034101506464e-02  3.3667302941395867e-02  3.3645780154404982e-02  6.4869480642626362e-02  6.4836288338459502e-02  3.3600942055291134e-02  3.3668135817308528e-02  3.3798263981346596e-02  3.3969810413362118e-02  3.4151667812023251e-02  3.4317094818084030e-02  3.4451454267126091e-02  3.4550451313660115e-02  3.4617707764469180e-02  3.4662014660117348e-02  3.4692290643523353e-02  3.4713099521511394e-02  3.4725238772476401e-02  3.4729351436949142e-02  3.4727412606533656e-02  3.4720933248838154e-02  3.4709373719363598e-02  3.4693933444938346e-02  3.4685623429587219e-02  3.4703583121934868e-02  3.4763203854614101e-02  3.4866108169238463e-02  3.5035159291331004e-02  3.5360321147371983e-02  3.5994233537063262e-02  3.7091662732947388e-02  3.8628917664433743e-02  4.0547638177081562e-02  4.2797924839950451e-02  4.5115962998001399e-02  4.6978238106709078e-02  4.7549456578077118e-02  4.6099795021607805e-02  4.3159550500445405e-02  3.9425327476080074e-02  3.5655914424346589e-02  3.3931591076714035e-02  3.3844727626625173e-02  3.3873857869012342e-02  6.4978166331902801e-02  6.4842330916452764e-02  3.3652341243173817e-02  3.4029794874148589e-02  3.4799797784083569e-02  3.5543532640172286e-02  3.5999385328731939e-02  3.6113485228327170e-02  3.5970902582175120e-02  3.5709640012149921e-02  3.5442189667398143e-02  3.5230956215984446e-02  3.5093440540467473e-02  3.5015892809798596e-02  3.4975168941780009e-02  3.4957424326614847e-02  3.4963424471153658e-02  3.5002848225035986e-02  3.5086640789300655e-02  3.5240282727313721e-02  3.5551134449017717e-02  3.6199191802020102e-02  3.7448117962226982e-02  3.9486762421254915e-02  4.2505017885918185e-02  4.7318690756360630e-02  5.6063500778999194e-02  7.4231989573073462e-02  1.1409188678885293e-01  1.9050824973268546e-01  2.9187761630615094e-01  3.7654340301415606e-01  4.2160392220934090e-01  4.3147086209563706e-01  4.1765169093330123e-01  3.7217185709238110e-01  2.6039419336332836e-01  1.0656697961158888e-01  5.0871760343642589e-02  3.5802623316586887e-02  3.4360124581209822e-02  6.5400024243669891e-02  6.6965835152366635e-02  3.5217370054592946e-02  3.9865767920805581e-02  4.8292988024185531e-02  5.7304549200829495e-02  6.1360496008099515e-02  5.9974850752159324e-02  5.5433826226011333e-02  5.0135508025068991e-02  4.5595716280579519e-02  4.2309381991332350e-02  4.0216841091440525e-02  3.8991670031515394e-02  3.8350783610481137e-02  3.8161423344654374e-02  3.8418024596876953e-02  3.9233097903057020e-02  4.0764167451314372e-02  4.3225959557008350e-02  4.7394095531087012e-02  5.5364592869082914e-02  7.2649660747355946e-02  1.1539609238074851e-01  2.1377961125618697e-01  3.6254756991530834e-01  5.0530235007432189e-01  6.6614278021566786e-01  8.1653503203459910e-01  8.9475592215985200e-01  9.2972713418439101e-01  9.4671067668460962e-01  9.5551799180157060e-01  9.5991773742513953e-01  9.6109146919763555e-01  9.5833354216046107e-01  9.4720659772392723e-01  9.0465308966220126e-01  6.4216842845342914e-01  1.6317016172372756e-01  3.8418961185713314e-02  6.9426365232183485e-02  7.4680416921911991e-02  6.8838172780132253e-02  2.9090937772815284e-01  4.7119519282577194e-01  5.0400701619424282e-01  4.6580317781627040e-01  3.9014009928181737e-01  3.1564296478408671e-01  2.4883047086315929e-01  1.8596074895517931e-01  1.3696191341259545e-01  1.0641093842634104e-01  9.1452172356372832e-02  8.3955358307174849e-02  8.1657554232066623e-02  8.5782792526237328e-02  1.0036988195430299e-01  1.3522789546749520e-01  2.0680364462793582e-01  3.3098237976163397e-01  4.9754688530507718e-01  6.5853680629088207e-01  8.0208516300189114e-01  8.9715933654915170e-01  9.3862295199893320e-01  9.5763799656964443e-01  9.6800928733460556e-01  9.7457588145478302e-01  9.7914980334123647e-01  9.8242621133062080e-01  9.8478082845394499e-01  9.8647607164222129e-01  9.8768275844708353e-01  9.8848116083412052e-01  9.8885531152007822e-01  9.8864453436773325e-01  9.8736650341707310e-01  9.8354153700684122e-01  9.6962146671779803e-01  4.9227158527547088e-01  7.2502073874591871e-02  9.3036799347291088e-01  9.5299811018409852e-01  9.6872093308870688e-01  9.6990865452764130e-01  9.6689334457716225e-01  9.6130645056877251e-01  9.5237551819069033e-01  9.3799808957901021e-01  9.1318660762585990e-01  8.6680876066976220e-01  7.7827354606438059e-01  6.3967429512665464e-01  5.1884079388750814e-01  4.8008216120521324e-01  5.0423368338161001e-01  5.7310421628686892e-01  6.8157203401865885e-01  7.9933035258001983e-01  8.8172186956835996e-01  9.2607903983357254e-01  9.4964585366358145e-01  9.6323125981012458e-01  9.7174554783845057e-01  9.7758270218693666e-01  9.8182015501671172e-01  9.8493453680625864e-01  9.8725622466526075e-01  9.8902624578044718e-01  9.9040231012316360e-01  9.9149126896118800e-01  9.9237239717964632e-01  9.9310584965656212e-01  9.9373481816715958e-01  9.9428595829539312e-01  9.9476969782661973e-01  9.9518005481741434e-01  9.9548912926303235e-01  9.9562241817201580e-01  9.9537017067663469e-01  9.9424260204033255e-01  9.7136693408332653e-01  9.8973019244264904e-01  9.9314241981029083e-01  9.9181558815766857e-01  9.9010819149306839e-01  9.8815823858473462e-01  9.8590172251766650e-01  9.8320806315630671e-01  9.7988395249818638e-01  9.7570526652982847e-01  9.7052393081019006e-01  9.6449741062440553e-01  9.5844046296609897e-01  9.5391622719752733e-01  9.5240815138407486e-01  9.5423596500337737e-01  9.5855894096423455e-01  9.6407029844676628e-01  9.6968959965136825e-01  9.7480587424496390e-01  9.7914233257273453e-01  9.8265108172304461e-01  9.8542462362978089e-01  9.8759743784877241e-01  9.8929813277177814e-01  9.9063805575682817e-01  9.9170980433477540e-01  9.9258591894764192e-01  9.9331867300186372e-01  9.9394450175839621e-01  9.9449069804802948e-01  9.9498051985543179e-01  9.9543484693638262e-01  9.9587142758779623e-01  9.9630327998130686e-01  9.9673724152291110e-01  9.9717270537447200e-01  9.9759986462105432e-01  9.9799817308750616e-01  9.9833587947355673e-01  9.9857268703670687e-01  9.9665151210759251e-01  9.9445605657732927e-01  9.9665593345936709e-01  9.9574150562357011e-01  9.9451036970198192e-01  9.9311908769653612e-01  9.9164463862647534e-01  9.9009982284098330e-01  9.8845681317224843e-01  9.8669451541543274e-01  9.8484941436969442e-01  9.8306032277783240e-01  9.8157826089515798e-01  9.8070086261096989e-01  9.8063453991325344e-01  9.8137791057357182e-01  9.8272902306807475e-01  9.8439923383850370e-01  9.8613164311269197e-01  9.8775819763389916e-01  9.8919931501130842e-01  9.9043661509537506e-01  9.9148281798997173e-01  9.9236148061810836e-01  9.9309812706276845e-01  9.9371775611227653e-01  9.9424424248180143e-01  9.9469937890407356e-01  9.9510172063076574e-01  9.9546655338012002e-01  9.9580705753775556e-01  9.9613559814386687e-01  9.9646409564301353e-01  9.9680322701270352e-01  9.9716073478243483e-01  9.9753921287776559e-01  9.9793342968344600e-01  9.9832806560188991e-01  9.9869725314742619e-01  9.9900716174220716e-01  9.9922016453411922e-01  9.9849423449965002e-01  9.9513876084908892e-01  9.9729355493496241e-01  9.9658575294245655e-01  9.9561137655025167e-01  9.9451171547407624e-01  9.9338647035959893e-01  9.9227447374149635e-01  9.9117683911863641e-01  9.9009893392697002e-01  9.8908481656330971e-01  9.8823226000707043e-01  9.8767229935958512e-01  9.8751204686980187e-01  9.8777462994939691e-01  9.8838592961693172e-01  9.8921623087666033e-01  9.9013564449180891e-01  9.9104693908936103e-01  9.9189207760212683e-01  9.9264487726094075e-01  9.9330011822061959e-01  9.9386385606495686e-01  9.9434676714678338e-01  9.9476072555734263e-01  9.9511761325110437e-01  9.9542905421707295e-01  9.9570621167644624e-01  9.9595952267202692e-01  9.9619867493584591e-01  9.9643294418212425e-01  9.9667157845769905e-01  9.9692375383520526e-01  9.9719778626154798e-01  9.9749951895423405e-01  9.9782993471923698e-01  9.9818223027442488e-01  9.9853963287164094e-01  9.9887467356963600e-01  9.9915341446632611e-01  9.9934391101409992e-01  9.9882763311692180e-01  9.9371166703952485e-01  9.9681140757380771e-01  9.9615618227569891e-01  9.9529736846779415e-01  9.9438653646157060e-01  9.9350348993342963e-01  9.9266789847019443e-01  9.9187522712772425e-01  9.9113509373202413e-01  9.9049700990427292e-01  9.9004933686707519e-01  9.8988254441523382e-01  9.9003530905406989e-01  9.9046749912650223e-01  9.9108358223412008e-01  9.9177968914333769e-01  9.9247604402934453e-01  9.9312474249204175e-01  9.9370358509063861e-01  9.9420695494066536e-01  9.9463842285010406e-01  9.9500580936721650e-01  9.9531828387976085e-01  9.9558497392471734e-01  9.9581454395514579e-01  9.9601522343075810e-01  9.9619492569227319e-01  9.9636134432644619e-01  9.9652208797942188e-01  9.9668488821437395e-01  9.9685775375524810e-01  9.9704882548958640e-01  9.9726569241954521e-01  9.9751401365736803e-01  9.9779540072741224e-01  9.9810491419437919e-01  9.9842884859944814e-01  9.9874326045760009e-01  9.9901762490052060e-01  9.9921529039822998e-01  9.9867550080947654e-01  9.8552149849133130e-01  9.9402564731926191e-01  9.9366705623070051e-01  9.9319626220180068e-01  9.9270160127123019e-01  9.9221871318926347e-01  9.9174145314157980e-01  9.9126350113294337e-01  9.9081274755417559e-01  9.9046902524018698e-01  9.9034147182841381e-01  9.9050527326932358e-01  9.9094708495025963e-01  9.9157482369708183e-01  9.9227586192562167e-01  9.9296379261589629e-01  9.9359025727549133e-01  9.9413631218018395e-01  9.9460022982898189e-01  9.9498855028135813e-01  9.9531091322591247e-01  9.9557745213686255e-01  9.9579764999590892e-01  9.9597999418159056e-01  9.9613205024863083e-01  9.9626071014198125e-01  9.9637246438703020e-01  9.9647364131299410e-01  9.9657062210885450e-01  9.9667003350295269e-01  9.9677884869952571e-01  9.9690424094884045e-01  9.9705302341719249e-01  9.9723051750502223e-01  9.9743882513823190e-01  9.9767471987972656e-01  9.9792737340185911e-01  9.9817778957607650e-01  9.9840047907474327e-01  9.9854862897556096e-01  9.9764982468247854e-01  7.4441797186580105e-01  9.7093503308777596e-01  9.8125645979472753e-01  9.8544272137259592e-01  9.8742967364809453e-01  9.8841564394319581e-01  9.8887503796525866e-01  9.8902594120453835e-01  9.8904255015210929e-01  9.8912758394104694e-01  9.8946406540818865e-01  9.9010951899490041e-01  9.9096823558988389e-01  9.9188552895327498e-01  9.9274486126947759e-01  9.9349159936067766e-01  9.9411410172902459e-01  9.9462144983428091e-01  9.9502973485321589e-01  9.9535561281215368e-01  9.9561390015351048e-01  9.9581701243120990e-01  9.9597512830502888e-01  9.9609659361251690e-01  9.9618837267434623e-01  9.9625646680082403e-01  9.9630626580968207e-01  9.9634282366192162e-01  9.9637105919369062e-01  9.9639587329627677e-01  9.9642212875992286e-01  9.9645431730414002e-01  9.9649571322319075e-01  9.9654671804886019e-01  9.9660207701881409e-01  9.9664559010901810e-01  9.9663985663829724e-01  9.9650236479017373e-01  9.9603750105572031e-01  9.9469988527422615e-01  9.8949316438759727e-01  6.9009904059169500e-02  1.1193741180206250e-01  7.7448558620643326e-01  9.4065840142486101e-01  9.6660676549998159e-01  9.7629238125260631e-01  9.8085979277513191e-01  9.8320951503291520e-01  9.8459361534383960e-01  9.8576962865597262e-01  9.8716055397039215e-01  9.8876792925256163e-01  9.9034285525422494e-01  9.9169986873367977e-01  9.9278947323423750e-01  9.9363765628752465e-01  9.9428912508735046e-01  9.9478637879091669e-01  9.9516410734713345e-01  9.9544871705693572e-01  9.9565980449966907e-01  9.9581184987221893e-01  9.9591561586315613e-01  9.9597919419785430e-01  9.9600875923998611e-01  9.9600908930958909e-01  9.9598390651725921e-01  9.9593605587522349e-01  9.9586748727983421e-01  9.9577897219415279e-01  9.9566947078247048e-01  9.9553466576574567e-01  9.9536378976080575e-01  9.9513311073011801e-01  9.9479224132801058e-01  9.9422732841317452e-01  9.9316215203560076e-01  9.9095184447878648e-01  9.8418789251431826e-01  9.0611772340766172e-01  1.4577150796510413e-01  6.5479958118470294e-02  3.5776474121253551e-02  7.2051818372552132e-02  4.8871808027503361e-01  8.2015205760829035e-01  9.0662333511141635e-01  9.4920023300598999e-01  9.6486108837982310e-01  9.7191933502123284e-01  9.7747254292850894e-01  9.8248025699689356e-01  9.8640902005769737e-01  9.8922478434935135e-01  9.9118991132185974e-01  9.9256255267746163e-01  9.9352922220516227e-01  9.9421949993508696e-01  9.9471453330842896e-01  9.9506757119029599e-01  9.9531394621811897e-01  9.9547721401044942e-01  9.9557319213205397e-01  9.9561250251138933e-01  9.9560213563828681e-01  9.9554637558210146e-01  9.9544724917150262e-01  9.9530459404563820e-01  9.9511576394478196e-01  9.9487475419329441e-01  9.9457019833607407e-01  9.9418188479874881e-01  9.9367391285237905e-01  9.9297841573729451e-01  9.9195692986160944e-01  9.9031104569228989e-01  9.8733035074258546e-01  9.8145146514272619e-01  9.6131996397615493e-01  6.2907326409952879e-01  5.1733333800013263e-02  6.6847867065987485e-02  6.4902185323914396e-02  3.3660363632929777e-02  3.4816990308687221e-02  4.6105778056651898e-02  1.0849121121084482e-01  5.0005368560748586e-01  9.4556746589037599e-01  8.9614747065758915e-01  9.2473237391673058e-01  9.5144195911761442e-01  9.7293175723837066e-01  9.8303307335481938e-01  9.8788766842781428e-01  9.9052342544304128e-01  9.9216440651710369e-01  9.9323286317469017e-01  9.9394763262818142e-01  9.9442871132250243e-01  9.9474503251560209e-01  9.9493823257809366e-01  9.9503366736934984e-01  9.9504649062924788e-01  9.9498498562832838e-01  9.9485229231817562e-01  9.9464710588527272e-01  9.9436347824644256e-01  9.9398951320802809e-01  9.9350489707410028e-01  9.9287637605082857e-01  9.9204689647073796e-01  9.9091427809184340e-01  9.8929093311118876e-01  9.8680893957618865e-01  9.8271384505813841e-01  9.7550562427147536e-01  9.5683229573455397e-01  8.4686338049797572e-01  3.2966742103811514e-01  5.4944782426961256e-02  3.5093347988519610e-02  6.5555941847734986e-02  6.4922787106591745e-02  3.3678950232488139e-02  3.3733230761175792e-02  3.4432800921545603e-02  3.8192455813352476e-02  5.3986195676510654e-02  1.3240850419347533e-01  4.8458685784692024e-01  9.9769675050537721e-01  9.2874021074683222e-01  9.6105325839995992e-01  9.8002220003685914e-01  9.8677379943071419e-01  9.8991362044230402e-01  9.9168867781421577e-01  9.9278524307555560e-01  9.9347708385705480e-01  9.9390609297912180e-01  9.9414790194104763e-01  9.9424416033881069e-01  9.9421671314824367e-01  9.9407446410161482e-01  9.9381644089320909e-01  9.9343234351055587e-01  9.9290119762643569e-01  9.9218768271601376e-01  9.9123264910754572e-01  9.8993564961337843e-01  9.8812712773421107e-01  9.8550881449292682e-01  9.8153831588755713e-01  9.7525762115634695e-01  9.6393280210658472e-01  9.3310573368976013e-01  7.8021000302183097e-01  4.2278235764289973e-01  1.0603817361660327e-01  4.5380415083581344e-02  3.6181503060558382e-02  3.3887437452994967e-02  6.4936959928356727e-02  6.4995815072518906e-02  3.3794313397845048e-02  3.3909875193757398e-02  3.4248212804464315e-02  3.5188497390067901e-02  3.8497856270006396e-02  5.3771340390757177e-02  1.9672537299660206e-01  9.2482058420758650e-01  9.2484836642736723e-01  9.6511252492181687e-01  9.8048841736184422e-01  9.8660825475179126e-01  9.8957038830565613e-01  9.9121761651108353e-01  9.9219757805016884e-01  9.9277145909466291e-01  9.9306691599510155e-01  9.9314726326081704e-01  9.9304004382766631e-01  9.9274910458779120e-01  9.9225846641944060e-01  9.9153085741988001e-01  9.9049877689171517e-01  9.8904636339206398e-01  9.8698181190030443e-01  9.8398560262092349e-01  9.7954478095908826e-01  9.7276494096752464e-01  9.6106967490078898e-01  9.3414634185562184e-01  8.4138354444918995e-01  5.6220808237480369e-01  3.3055466759547186e-01  9.7306241521090506e-02  4.9287899996792846e-02  3.9436402179464758e-02  3.5671398331619197e-02  3.4287962116042264e-02  3.3800450597935662e-02  6.4873843914732290e-02  6.5109564384616098e-02  3.3975736982137565e-02  3.4188776228992586e-02  3.4581767878106177e-02  3.5762607512685222e-02  4.2750684335592738e-02  8.0265011355046545e-02  6.2415079211642932e-01  9.2264495318733564e-01  9.5645979414812332e-01  9.7570735467093850e-01  9.8346569681729379e-01  9.8742989255424363e-01  9.8953812140210162e-01  9.9075165143278088e-01  9.9142618036063546e-01  9.9172638724515627e-01  9.9172584203615388e-01  9.9144336154728641e-01  9.9085587605639303e-01  9.8989607092528353e-01  9.8843324914731978e-01  9.8623673813248380e-01  9.8291876379564880e-01  9.7788022322952506e-01  9.6999517157052839e-01  9.5592613935216653e-01  9.2290688301438306e-01  8.1990712401404098e-01  6.0920830356822242e-01  3.7887338796624348e-01  1.3702458918864716e-01  6.1868090747398019e-02  4.4726474520514641e-02  3.9239478836593816e-02  3.6276985047514747e-02  3.4955723612331881e-02  3.4479014067402447e-02  3.4178132967319447e-02  3.3899819331409495e-02  6.4982376930748181e-02  6.5236205440890274e-02  3.4187785881539298e-02  3.4513005603448950e-02  3.5140577777280524e-02  3.8918772887417304e-02  5.9238228544383376e-02  4.5142378947399003e-01  9.2788189018751666e-01  9.521687908