<?xml version="1.0"?>
<VTKFile type="UnstructuredGrid"  version="0.1"  >
<UnstructuredGrid>
<Piece  NumberOfPoints="1681" NumberOfCells="3200">
<Points>
<DataArray  type="Float64"  NumberOfComponents="3"  format="ascii">0 0 0  0.025 0 0  0.05 0 0  0.075 0 0  0.1 0 0  0.125 0 0  0.15 0 0  0.175 0 0  0.2 0 0  0.225 0 0  0.25 0 0  0.275 0 0  0.3 0 0  0.325 0 0  0.35 0 0  0.375 0 0  0.4 0 0  0.425 0 0  0.45 0 0  0.475 0 0  0.5 0 0  0.525 0 0  0.55 0 0  0.575 0 0  0.6 0 0  0.625 0 0  0.65 0 0  0.675 0 0  0.7 0 0  0.725 0 0  0.75 0 0  0.775 0 0  0.8 0 0  0.825 0 0  0.85 0 0  0.875 0 0  0.9 0 0  0.925 0 0  0.95 0 0  0.975 0 0  1 0 0  0 0.025 0  0.025 0.025 0  0.05 0.025 0  0.075 0.025 0  0.1 0.025 0  0.125 0.025 0  0.15 0.025 0  0.175 0.025 0  0.2 0.025 0  0.225 0.025 0  0.25 0.025 0  0.275 0.025 0  0.3 0.025 0  0.325 0.025 0  0.35 0.025 0  0.375 0.025 0  0.4 0.025 0  0.425 0.025 0  0.45 0.025 0  0.475 0.025 0  0.5 0.025 0  0.525 0.025 0  0.55 0.025 0  0.575 0.025 0  0.6 0.025 0  0.625 0.025 0  0.65 0.025 0  0.675 0.025 0  0.7 0.025 0  0.725 0.025 0  0.75 0.025 0  0.775 0.025 0  0.8 0.025 0  0.825 0.025 0  0.85 0.025 0  0.875 0.025 0  0.9 0.025 0  0.925 0.025 0  0.95 0.025 0  0.975 0.025 0  1 0.025 0  0 0.05 0  0.025 0.05 0  0.05 0.05 0  0.075 0.05 0  0.1 0.05 0  0.125 0.05 0  0.15 0.05 0  0.175 0.05 0  0.2 0.05 0  0.225 0.05 0  0.25 0.05 0  0.275 0.05 0  0.3 0.05 0  0.325 0.05 0  0.35 0.05 0  0.375 0.05 0  0.4 0.05 0  0.425 0.05 0  0.45 0.05 0  0.475 0.05 0  0.5 0.05 0  0.525 0.05 0  0.55 0.05 0  0.575 0.05 0  0.6 0.05 0  0.625 0.05 0  0.65 0.05 0  0.675 0.05 0  0.7 0.05 0  0.725 0.05 0  0.75 0.05 0  0.775 0.05 0  0.8 0.05 0  0.825 0.05 0  0.85 0.05 0  0.875 0.05 0  0.9 0.05 0  0.925 0.05 0  0.95 0.05 0  0.975 0.05 0  1 0.05 0  0 0.075 0  0.025 0.075 0  0.05 0.075 0  0.075 0.075 0  0.1 0.075 0  0.125 0.075 0  0.15 0.075 0  0.175 0.075 0  0.2 0.075 0  0.225 0.075 0  0.25 0.075 0  0.275 0.075 0  0.3 0.075 0  0.325 0.075 0  0.35 0.075 0  0.375 0.075 0  0.4 0.075 0  0.425 0.075 0  0.45 0.075 0  0.475 0.075 0  0.5 0.075 0  0.525 0.075 0  0.55 0.075 0  0.575 0.075 0  0.6 0.075 0  0.625 0.075 0  0.65 0.075 0  0.675 0.075 0  0.7 0.075 0  0.725 0.075 0  0.75 0.075 0  0.775 0.075 0  0.8 0.075 0  0.825 0.075 0  0.85 0.075 0  0.875 0.075 0  0.9 0.075 0  0.925 0.075 0  0.95 0.075 0  0.975 0.075 0  1 0.075 0  0 0.1 0  0.025 0.1 0  0.05 0.1 0  0.075 0.1 0  0.1 0.1 0  0.125 0.1 0  0.15 0.1 0  0.175 0.1 0  0.2 0.1 0  0.225 0.1 0  0.25 0.1 0  0.275 0.1 0  0.3 0.1 0  0.325 0.1 0  0.35 0.1 0  0.375 0.1 0  0.4 0.1 0  0.425 0.1 0  0.45 0.1 0  0.475 0.1 0  0.5 0.1 0  0.525 0.1 0  0.55 0.1 0  0.575 0.1 0  0.6 0.1 0  0.625 0.1 0  0.65 0.1 0  0.675 0.1 0  0.7 0.1 0  0.725 0.1 0  0.75 0.1 0  0.775 0.1 0  0.8 0.1 0  0.825 0.1 0  0.85 0.1 0  0.875 0.1 0  0.9 0.1 0  0.925 0.1 0  0.95 0.1 0  0.975 0.1 0  1 0.1 0  0 0.125 0  0.025 0.125 0  0.05 0.125 0  0.075 0.125 0  0.1 0.125 0  0.125 0.125 0  0.15 0.125 0  0.175 0.125 0  0.2 0.125 0  0.225 0.125 0  0.25 0.125 0  0.275 0.125 0  0.3 0.125 0  0.325 0.125 0  0.35 0.125 0  0.375 0.125 0  0.4 0.125 0  0.425 0.125 0  0.45 0.125 0  0.475 0.125 0  0.5 0.125 0  0.525 0.125 0  0.55 0.125 0  0.575 0.125 0  0.6 0.125 0  0.625 0.125 0  0.65 0.125 0  0.675 0.125 0  0.7 0.125 0  0.725 0.125 0  0.75 0.125 0  0.775 0.125 0  0.8 0.125 0  0.825 0.125 0  0.85 0.125 0  0.875 0.125 0  0.9 0.125 0  0.925 0.125 0  0.95 0.125 0  0.975 0.125 0  1 0.125 0  0 0.15 0  0.025 0.15 0  0.05 0.15 0  0.075 0.15 0  0.1 0.15 0  0.125 0.15 0  0.15 0.15 0  0.175 0.15 0  0.2 0.15 0  0.225 0.15 0  0.25 0.15 0  0.275 0.15 0  0.3 0.15 0  0.325 0.15 0  0.35 0.15 0  0.375 0.15 0  0.4 0.15 0  0.425 0.15 0  0.45 0.15 0  0.475 0.15 0  0.5 0.15 0  0.525 0.15 0  0.55 0.15 0  0.575 0.15 0  0.6 0.15 0  0.625 0.15 0  0.65 0.15 0  0.675 0.15 0  0.7 0.15 0  0.725 0.15 0  0.75 0.15 0  0.775 0.15 0  0.8 0.15 0  0.825 0.15 0  0.85 0.15 0  0.875 0.15 0  0.9 0.15 0  0.925 0.15 0  0.95 0.15 0  0.975 0.15 0  1 0.15 0  0 0.175 0  0.025 0.175 0  0.05 0.175 0  0.075 0.175 0  0.1 0.175 0  0.125 0.175 0  0.15 0.175 0  0.175 0.175 0  0.2 0.175 0  0.225 0.175 0  0.25 0.175 0  0.275 0.175 0  0.3 0.175 0  0.325 0.175 0  0.35 0.175 0  0.375 0.175 0  0.4 0.175 0  0.425 0.175 0  0.45 0.175 0  0.475 0.175 0  0.5 0.175 0  0.525 0.175 0  0.55 0.175 0  0.575 0.175 0  0.6 0.175 0  0.625 0.175 0  0.65 0.175 0  0.675 0.175 0  0.7 0.175 0  0.725 0.175 0  0.75 0.175 0  0.775 0.175 0  0.8 0.175 0  0.825 0.175 0  0.85 0.175 0  0.875 0.175 0  0.9 0.175 0  0.925 0.175 0  0.95 0.175 0  0.975 0.175 0  1 0.175 0  0 0.2 0  0.025 0.2 0  0.05 0.2 0  0.075 0.2 0  0.1 0.2 0  0.125 0.2 0  0.15 0.2 0  0.175 0.2 0  0.2 0.2 0  0.225 0.2 0  0.25 0.2 0  0.275 0.2 0  0.3 0.2 0  0.325 0.2 0  0.35 0.2 0  0.375 0.2 0  0.4 0.2 0  0.425 0.2 0  0.45 0.2 0  0.475 0.2 0  0.5 0.2 0  0.525 0.2 0  0.55 0.2 0  0.575 0.2 0  0.6 0.2 0  0.625 0.2 0  0.65 0.2 0  0.675 0.2 0  0.7 0.2 0  0.725 0.2 0  0.75 0.2 0  0.775 0.2 0  0.8 0.2 0  0.825 0.2 0  0.85 0.2 0  0.875 0.2 0  0.9 0.2 0  0.925 0.2 0  0.95 0.2 0  0.975 0.2 0  1 0.2 0  0 0.225 0  0.025 0.225 0  0.05 0.225 0  0.075 0.225 0  0.1 0.225 0  0.125 0.225 0  0.15 0.225 0  0.175 0.225 0  0.2 0.225 0  0.225 0.225 0  0.25 0.225 0  0.275 0.225 0  0.3 0.225 0  0.325 0.225 0  0.35 0.225 0  0.375 0.225 0  0.4 0.225 0  0.425 0.225 0  0.45 0.225 0  0.475 0.225 0  0.5 0.225 0  0.525 0.225 0  0.55 0.225 0  0.575 0.225 0  0.6 0.225 0  0.625 0.225 0  0.65 0.225 0  0.675 0.225 0  0.7 0.225 0  0.725 0.225 0  0.75 0.225 0  0.775 0.225 0  0.8 0.225 0  0.825 0.225 0  0.85 0.225 0  0.875 0.225 0  0.9 0.225 0  0.925 0.225 0  0.95 0.225 0  0.975 0.225 0  1 0.225 0  0 0.25 0  0.025 0.25 0  0.05 0.25 0  0.075 0.25 0  0.1 0.25 0  0.125 0.25 0  0.15 0.25 0  0.175 0.25 0  0.2 0.25 0  0.225 0.25 0  0.25 0.25 0  0.275 0.25 0  0.3 0.25 0  0.325 0.25 0  0.35 0.25 0  0.375 0.25 0  0.4 0.25 0  0.425 0.25 0  0.45 0.25 0  0.475 0.25 0  0.5 0.25 0  0.525 0.25 0  0.55 0.25 0  0.575 0.25 0  0.6 0.25 0  0.625 0.25 0  0.65 0.25 0  0.675 0.25 0  0.7 0.25 0  0.725 0.25 0  0.75 0.25 0  0.775 0.25 0  0.8 0.25 0  0.825 0.25 0  0.85 0.25 0  0.875 0.25 0  0.9 0.25 0  0.925 0.25 0  0.95 0.25 0  0.975 0.25 0  1 0.25 0  0 0.275 0  0.025 0.275 0  0.05 0.275 0  0.075 0.275 0  0.1 0.275 0  0.125 0.275 0  0.15 0.275 0  0.175 0.275 0  0.2 0.275 0  0.225 0.275 0  0.25 0.275 0  0.275 0.275 0  0.3 0.275 0  0.325 0.275 0  0.35 0.275 0  0.375 0.275 0  0.4 0.275 0  0.425 0.275 0  0.45 0.275 0  0.475 0.275 0  0.5 0.275 0  0.525 0.275 0  0.55 0.275 0  0.575 0.275 0  0.6 0.275 0  0.625 0.275 0  0.65 0.275 0  0.675 0.275 0  0.7 0.275 0  0.725 0.275 0  0.75 0.275 0  0.775 0.275 0  0.8 0.275 0  0.825 0.275 0  0.85 0.275 0  0.875 0.275 0  0.9 0.275 0  0.925 0.275 0  0.95 0.275 0  0.975 0.275 0  1 0.275 0  0 0.3 0  0.025 0.3 0  0.05 0.3 0  0.075 0.3 0  0.1 0.3 0  0.125 0.3 0  0.15 0.3 0  0.175 0.3 0  0.2 0.3 0  0.225 0.3 0  0.25 0.3 0  0.275 0.3 0  0.3 0.3 0  0.325 0.3 0  0.35 0.3 0  0.375 0.3 0  0.4 0.3 0  0.425 0.3 0  0.45 0.3 0  0.475 0.3 0  0.5 0.3 0  0.525 0.3 0  0.55 0.3 0  0.575 0.3 0  0.6 0.3 0  0.625 0.3 0  0.65 0.3 0  0.675 0.3 0  0.7 0.3 0  0.725 0.3 0  0.75 0.3 0  0.775 0.3 0  0.8 0.3 0  0.825 0.3 0  0.85 0.3 0  0.875 0.3 0  0.9 0.3 0  0.925 0.3 0  0.95 0.3 0  0.975 0.3 0  1 0.3 0  0 0.325 0  0.025 0.325 0  0.05 0.325 0  0.075 0.325 0  0.1 0.325 0  0.125 0.325 0  0.15 0.325 0  0.175 0.325 0  0.2 0.325 0  0.225 0.325 0  0.25 0.325 0  0.275 0.325 0  0.3 0.325 0  0.325 0.325 0  0.35 0.325 0  0.375 0.325 0  0.4 0.325 0  0.425 0.325 0  0.45 0.325 0  0.475 0.325 0  0.5 0.325 0  0.525 0.325 0  0.55 0.325 0  0.575 0.325 0  0.6 0.325 0  0.625 0.325 0  0.65 0.325 0  0.675 0.325 0  0.7 0.325 0  0.725 0.325 0  0.75 0.325 0  0.775 0.325 0  0.8 0.325 0  0.825 0.325 0  0.85 0.325 0  0.875 0.325 0  0.9 0.325 0  0.925 0.325 0  0.95 0.325 0  0.975 0.325 0  1 0.325 0  0 0.35 0  0.025 0.35 0  0.05 0.35 0  0.075 0.35 0  0.1 0.35 0  0.125 0.35 0  0.15 0.35 0  0.175 0.35 0  0.2 0.35 0  0.225 0.35 0  0.25 0.35 0  0.275 0.35 0  0.3 0.35 0  0.325 0.35 0  0.35 0.35 0  0.375 0.35 0  0.4 0.35 0  0.425 0.35 0  0.45 0.35 0  0.475 0.35 0  0.5 0.35 0  0.525 0.35 0  0.55 0.35 0  0.575 0.35 0  0.6 0.35 0  0.625 0.35 0  0.65 0.35 0  0.675 0.35 0  0.7 0.35 0  0.725 0.35 0  0.75 0.35 0  0.775 0.35 0  0.8 0.35 0  0.825 0.35 0  0.85 0.35 0  0.875 0.35 0  0.9 0.35 0  0.925 0.35 0  0.95 0.35 0  0.975 0.35 0  1 0.35 0  0 0.375 0  0.025 0.375 0  0.05 0.375 0  0.075 0.375 0  0.1 0.375 0  0.125 0.375 0  0.15 0.375 0  0.175 0.375 0  0.2 0.375 0  0.225 0.375 0  0.25 0.375 0  0.275 0.375 0  0.3 0.375 0  0.325 0.375 0  0.35 0.375 0  0.375 0.375 0  0.4 0.375 0  0.425 0.375 0  0.45 0.375 0  0.475 0.375 0  0.5 0.375 0  0.525 0.375 0  0.55 0.375 0  0.575 0.375 0  0.6 0.375 0  0.625 0.375 0  0.65 0.375 0  0.675 0.375 0  0.7 0.375 0  0.725 0.375 0  0.75 0.375 0  0.775 0.375 0  0.8 0.375 0  0.825 0.375 0  0.85 0.375 0  0.875 0.375 0  0.9 0.375 0  0.925 0.375 0  0.95 0.375 0  0.975 0.375 0  1 0.375 0  0 0.4 0  0.025 0.4 0  0.05 0.4 0  0.075 0.4 0  0.1 0.4 0  0.125 0.4 0  0.15 0.4 0  0.175 0.4 0  0.2 0.4 0  0.225 0.4 0  0.25 0.4 0  0.275 0.4 0  0.3 0.4 0  0.325 0.4 0  0.35 0.4 0  0.375 0.4 0  0.4 0.4 0  0.425 0.4 0  0.45 0.4 0  0.475 0.4 0  0.5 0.4 0  0.525 0.4 0  0.55 0.4 0  0.575 0.4 0  0.6 0.4 0  0.625 0.4 0  0.65 0.4 0  0.675 0.4 0  0.7 0.4 0  0.725 0.4 0  0.75 0.4 0  0.775 0.4 0  0.8 0.4 0  0.825 0.4 0  0.85 0.4 0  0.875 0.4 0  0.9 0.4 0  0.925 0.4 0  0.95 0.4 0  0.975 0.4 0  1 0.4 0  0 0.425 0  0.025 0.425 0  0.05 0.425 0  0.075 0.425 0  0.1 0.425 0  0.125 0.425 0  0.15 0.425 0  0.175 0.425 0  0.2 0.425 0  0.225 0.425 0  0.25 0.425 0  0.275 0.425 0  0.3 0.425 0  0.325 0.425 0  0.35 0.425 0  0.375 0.425 0  0.4 0.425 0  0.425 0.425 0  0.45 0.425 0  0.475 0.425 0  0.5 0.425 0  0.525 0.425 0  0.55 0.425 0  0.575 0.425 0  0.6 0.425 0  0.625 0.425 0  0.65 0.425 0  0.675 0.425 0  0.7 0.425 0  0.725 0.425 0  0.75 0.425 0  0.775 0.425 0  0.8 0.425 0  0.825 0.425 0  0.85 0.425 0  0.875 0.425 0  0.9 0.425 0  0.925 0.425 0  0.95 0.425 0  0.975 0.425 0  1 0.425 0  0 0.45 0  0.02
[...]
<PointData  Scalars="ControlVisualisation"> 
<DataArray  type="Float64"  Name="ControlVisualisation"  format="ascii">9.0238310921927162e-02  6.2764903475360956e-02  6.2774168219851711e-02  6.2798770140474955e-02  6.2843605918574408e-02  6.2906417466693995e-02  6.2978715848366382e-02  6.3050600425553549e-02  6.3114636948870262e-02  6.3167016171193496e-02  6.3206944425326400e-02  6.3235579318665205e-02  6.3255078251862398e-02  6.3267785957020067e-02  6.3275616646594729e-02  6.3279785211435680e-02  6.3280908339449632e-02  6.3279332647167189e-02  6.3275447936373269e-02  6.3269710114641331e-02  6.3262208773809822e-02  6.3252169691753429e-02  6.3238622955195181e-02  6.3222503664038671e-02  6.3207268496697860e-02  6.3195819247727408e-02  6.3186009116957431e-02  6.3169868981068175e-02  6.3138791471814226e-02  6.3090279821949147e-02  6.3029080278835872e-02  6.2962319982246953e-02  6.2896400674400707e-02  6.2837702662492986e-02  6.2792771667508213e-02  6.2767784010475128e-02  6.2763802752036732e-02  6.2769875252578530e-02  6.2770479843978447e-02  6.2764748838714829e-02  1.6200421109105467e-01  6.2764028127394206e-02  3.2761900038147593e-02  3.2777695362238138e-02  3.2817253634295260e-02  3.2888488602186502e-02  3.2988271217098478e-02  3.3103878464351560e-02  3.3219970322242463e-02  3.3324553311844828e-02  3.3411121307507070e-02  3.3477791849000543e-02  3.3525655888299130e-02  3.3557568330961622e-02  3.3577185282605761e-02  3.3587942634018549e-02  3.3592291509217984e-02  3.3591562237457767e-02  3.3586412164727505e-02  3.3577527337934454e-02  3.3566031522445160e-02  3.3552779682890423e-02  3.3536843248703603e-02  3.3515774290887000e-02  3.3489548361018945e-02  3.3463911089285883e-02  3.3446491986446995e-02  3.3437492775977962e-02  3.3424837803414029e-02  3.3390831658384884e-02  3.3327070670028207e-02  3.3239128626818791e-02  3.3137874102695100e-02  3.3032885097011300e-02  3.2932209669250069e-02  3.2847622603616518e-02  3.2792049949357235e-02  3.2770450707940629e-02  3.2772742937870143e-02  3.2775177711429598e-02  3.2766602141729995e-02  6.2765211071516822e-02  6.2763699961402478e-02  3.2768455390176407e-02  3.2799403979548857e-02  3.2865147921678724e-02  3.2973588267818037e-02  3.3113809853960730e-02  3.3266530984138176e-02  3.3412930421508086e-02  3.3540266832322807e-02  3.3642703423445747e-02  3.3719373257195262e-02  3.3772306204636816e-02  3.3805573315684879e-02  3.3824449824193678e-02  3.3833746875779620e-02  3.3836466640850993e-02  3.3833674056520352e-02  3.3825333343812512e-02  3.3811904834835871e-02  3.3795955494605935e-02  3.3781379183192843e-02  3.3768870511500938e-02  3.3751509509380287e-02  3.3722506474084882e-02  3.3693422003904655e-02  3.3691700142230260e-02  3.3735125693918691e-02  3.3810408524839103e-02  3.3882770115342860e-02  3.3931173619791331e-02  3.3944939058757652e-02  3.3895407252574582e-02  3.3739630759314077e-02  3.3465503899111876e-02  3.3167881087579003e-02  3.2951789712742804e-02  3.2843432567255124e-02  3.2822070931766444e-02  3.2830985568290921e-02  3.2811226119097300e-02  6.2785704911117513e-02  6.2756483276792147e-02  3.2775977292021904e-02  3.2847908929079669e-02  3.2984525524015700e-02  3.3166310414423646e-02  3.3360583374846736e-02  3.3537289476491476e-02  3.3680267355672151e-02  3.3786303826773410e-02  3.3860714327662696e-02  3.3910490392213194e-02  3.3939203801621187e-02  3.3950474887174314e-02  3.3950963855125416e-02  3.3946980745285169e-02  3.3941788623864808e-02  3.3935962708537090e-02  3.3928343770396510e-02  3.3918507222667676e-02  3.3912232931599111e-02  3.3926203842325267e-02  3.3980047534372525e-02  3.4077707794244481e-02  3.4223086273741009e-02  3.4496482283996398e-02  3.5075677788939198e-02  3.6149734890083850e-02  3.7737446805037482e-02  3.9604434436146495e-02  4.1563153256217601e-02  4.3545604383313195e-02  4.5188658117384824e-02  4.5708078561292720e-02  4.4415386518361313e-02  4.1840116030826179e-02  3.8408155738592929e-02  3.4766779559858886e-02  3.3091355282038076e-02  3.2995382986500114e-02  3.3021141856978700e-02  6.2885082292476552e-02  6.2768153010964223e-02  3.2837845324195453e-02  3.3243851196529811e-02  3.4086195558678499e-02  3.4951841210179115e-02  3.5543345866656730e-02  3.5768580954634456e-02  3.5704082774326878e-02  3.5489381744323728e-02  3.5237279326277841e-02  3.5001166098378965e-02  3.4796673718068376e-02  3.4634521459934800e-02  3.4522257611425966e-02  3.4458829453127865e-02  3.4440528958864999e-02  3.4468567740636342e-02  3.4551582452283298e-02  3.4710933491429223e-02  3.5006573564229551e-02  3.5594182292855929e-02  3.6758963640449428e-02  3.8745413975345276e-02  4.1536444372012857e-02  4.5653156551441323e-02  5.3341161186735687e-02  6.9942560056086164e-02  1.0688473790483721e-01  1.8024144246607920e-01  2.8236345052453293e-01  3.8914218151304653e-01  4.7244830776054764e-01  5.0759207478824675e-01  4.8568212578571851e-01  4.0748275937477529e-01  2.5509232031302437e-01  1.0098128564682068e-01  4.9233195470753076e-02  3.4881030325531422e-02  3.3480063236238672e-02  6.3275839470078948e-02  6.4762267434664192e-02  3.4343503882649541e-02  3.9060728049379989e-02  4.8224977047030326e-02  5.8417750340114163e-02  6.3648276785939789e-02  6.2825285435180775e-02  5.8383626011117448e-02  5.2939964038521643e-02  4.8215807843277461e-02  4.4803222636127980e-02  4.2364142479274204e-02  4.0703602812768212e-02  3.9728428910056297e-02  3.9309745268827176e-02  3.9396826296474008e-02  4.0069691238943064e-02  4.1518642675188573e-02  4.4033034657788274e-02  4.8201590728182336e-02  5.5765622962249094e-02  7.2000617180494705e-02  1.1308472040709379e-01  2.1238881638379931e-01  3.7675728862702151e-01  5.6609648027121073e-01  7.3444064256273456e-01  8.4263159991980163e-01  9.0129134660934340e-01  9.3110694972973762e-01  9.4634095477675861e-01  9.5449450227897992e-01  9.5868636093326653e-01  9.5979020740758447e-01  9.5702868376974537e-01  9.4585682223654344e-01  9.0174606655374123e-01  6.0710318190430401e-01  1.5046501897223644e-01  3.7275591506102428e-02  6.7045813735714915e-02  7.2129201645767027e-02  6.6712432862064158e-02  2.6337985956805354e-01  4.2148617115381726e-01  5.2010575287012650e-01  5.3603960384830596e-01  4.7693309454881472e-01  3.7659539137602233e-01  2.7946676150844807e-01  2.0866049373125353e-01  1.5823130934603130e-01  1.2388715786282302e-01  1.0500962629916563e-01  9.6593152307654709e-02  9.5062773295037512e-02  1.0046676977492250e-01  1.1648248809183191e-01  1.5249498530747593e-01  2.2481995698339799e-01  3.4458394921347846e-01  4.9776618877092843e-01  6.6184912339940416e-01  8.1387971497470923e-01  9.0302243377771829e-01  9.3992429708871239e-01  9.5734525623129674e-01  9.6759102328318891e-01  9.7442719816727519e-01  9.7912712040355532e-01  9.8237796482716466e-01  9.8468343436044681e-01  9.8635394390111986e-01  9.8755733943110813e-01  9.8836391345436569e-01  9.8874929786247201e-01  9.8854350949668390e-01  9.8725651233154232e-01  9.8340625877325394e-01  9.6920121872713816e-01  4.3137399576757035e-01  6.9795551205856191e-02  9.3041690819923584e-01  9.5351349302559196e-01  9.6936635132212723e-01  9.7087025539563698e-01  9.6866166107063290e-01  9.6430416980106870e-01  9.5756864686852283e-01  9.4734051175121758e-01  9.3132232626563705e-01  9.0480539584032771e-01  8.5945175136965057e-01  7.8782941011906893e-01  7.0341537848556590e-01  6.4575724088789566e-01  6.3893608600548490e-01  6.8026543144165474e-01  7.5505551458050191e-01  8.3601348534018194e-01  8.9614582578039503e-01  9.3191182261574013e-01  9.5219570247431762e-01  9.6430014443503420e-01  9.7216009105539569e-01  9.7773154179648891e-01  9.8186162065713811e-01  9.8493249179733522e-01  9.8724425872296218e-01  9.8901771654494508e-01  9.9039449925280643e-01  9.9147726927851576e-01  9.9234895465252060e-01  9.9307473514738076e-01  9.9370051719643959e-01  9.9425291350358469e-01  9.9474044584769394e-01  9.9515449644628462e-01  9.9546508942036083e-01  9.9559706689324079e-01  9.9534123599156255e-01  9.9419832323546620e-01  9.7109828075976934e-01  9.8967756960316089e-01  9.9312951196132992e-01  9.9185861814626375e-01  9.9024043582123744e-01  9.8843813518242662e-01  9.8641512044385959e-01  9.8408195053602454e-01  9.8130381490643992e-01  9.7792770084557457e-01  9.7384925888846507e-01  9.6915262823539727e-01  9.6432506526235440e-01  9.6036389369957786e-01  9.5842534933695878e-01  9.5909718296102875e-01  9.6205378938835528e-01  9.6638320843757430e-01  9.7114275311324849e-01  9.7568141667531905e-01  9.7965211366184224e-01  9.8294029847617703e-01  9.8558388949686992e-01  9.8768242513034765e-01  9.8934138050077303e-01  9.9065814365436033e-01  9.9171889184329720e-01  9.9259212748815728e-01  9.9332512764396552e-01  9.9395000046576087e-01  9.9449259592415462e-01  9.9497728475075797e-01  9.9542687793277818e-01  9.9586047032311553e-01  9.9629137115077215e-01  9.9672586825446263e-01  9.9716246811701581e-01  9.9759070100248637e-01  9.9798988269418587e-01  9.9832842899729013e-01  9.9856607153246735e-01  9.9663602901388126e-01  9.9442810910386459e-01  9.9664208175594859e-01  9.9573641629187348e-01  9.9452585395057502e-01  9.9317579734132166e-01  9.9177440300153774e-01  9.9034508178087677e-01  9.8886674198911861e-01  9.8731562771382331e-01  9.8570665859545792e-01  9.8413142639847195e-01  9.8277575671425010e-01  9.8188500059188821e-01  9.8166501176642273e-01  9.8217124329983785e-01  9.8327733412513063e-01  9.8474713865992813e-01  9.8634047312226791e-01  9.8788107327568475e-01  9.8927211878724675e-01  9.9047991131209290e-01  9.9150802883148759e-01  9.9237570373163264e-01  9.9310611067340726e-01  9.9372277604182457e-01  9.9424866616516350e-01  9.9470462095623624e-01  9.9510785265510382e-01  9.9547241652480623e-01  9.9581107800071977e-01  9.9613669629569146e-01  9.9646211747427316e-01  9.9679881924210112e-01  9.9715491793841027e-01  9.9753294720174501e-01  9.9792736960723272e-01  9.9832256392407059e-01  9.9869249519086223e-01  9.9900321839031669e-01  9.9921691429350856e-01  9.9848788593578752e-01  9.9511337846103232e-01  9.9727825793800529e-01  9.9656647444285840e-01  9.9559085639222600e-01  9.9450035773330681e-01  9.9340368211107366e-01  9.9234519509620800e-01  9.9132476291432470e-01  9.9033732347799597e-01  9.8940603312852815e-01  9.8860099175783889e-01  9.8803125055635110e-01  9.8780358628966136e-01  9.8796625332501553e-01  9.8847985517454851e-01  9.8923833302262343e-01  9.9011723143221708e-01  9.9101268035079071e-01  9.9185666971126429e-01  9.9261479739619385e-01  9.9327685466427640e-01  9.9384675117914723e-01  9.9433473275797379e-01  9.9475287829458647e-01  9.9511334315831501e-01  9.9542789689286360e-01  9.9570761134330033e-01  9.9596260477248144e-01  9.9620224176474792e-01  9.9643574897516374e-01  9.9667269136955738e-01  9.9692279157242214e-01  9.9719491389073944e-01  9.9749527406606475e-01  9.9782498614988391e-01  9.9817718326841220e-01  9.9853494224788042e-01  9.9887062676844818e-01  9.9915010954375694e-01  9.9934122796697467e-01  9.9882279592058243e-01  9.9367381028166679e-01  9.9678551073900246e-01  9.9611242229357666e-01  9.9523417076724652e-01  9.9431317956190002e-01  9.9343903040255432e-01  9.9263432002651142e-01  9.9188895916000375e-01  9.9119879489151497e-01  9.9059318816911157e-01  9.9014169239732186e-01  9.8993044323906743e-01  9.9001466814220307e-01  9.9038135725516563e-01  9.9095520687981065e-01  9.9163741012227813e-01  9.9234173476029974e-01  9.9301018097371452e-01  9.9361224137711479e-01  9.9413737252938972e-01  9.9458704942585285e-01  9.9496875856446654e-01  9.9529218125479046e-01  9.9556719002060823e-01  9.9580310924666693e-01  9.9600862433970849e-01  9.9619187798744957e-01  9.9636061781092267e-01  9.9652245454967547e-01  9.9668520944269645e-01  9.9685714237584333e-01  9.9704677985003354e-01  9.9726213578386136e-01  9.9750922435153899e-01  9.9778986632254218e-01  9.9809917247407554e-01  9.9842337529121417e-01  9.9873840891933408e-01  9.9901357672526980e-01  9.9921197614266233e-01  9.9866996272202846e-01  9.8542041139041270e-01  9.9394214637462774e-01  9.9352484386290685e-01  9.9300482036033488e-01  9.9248493102659663e-01  9.9200799468608847e-01  9.9156236951262400e-01  9.9112827418498961e-01  9.9071532212104041e-01  9.9038179285362860e-01  9.9022424279215449e-01  9.9032964520425781e-01  9.9071462322489545e-01  9.9131138904265415e-01  9.9201360013533646e-01  9.9272732124273044e-01  9.9339186670835877e-01  9.9397800399393055e-01  9.9447811097663807e-01  9.9489646978342849e-01  9.9524257124564974e-01  9.9552734525387421e-01  9.9576134783178227e-01  9.9595408285604614e-01  9.9611393663538728e-01  9.9624839085797223e-01  9.9636431348333299e-01  9.9646825278495221e-01  9.9656673169031096e-01  9.9666652739299466e-01  9.9677483475275019e-01  9.9689913687797183e-01  9.9704660819901081e-01  9.9722290498534105e-01  9.9743036745470137e-01  9.9766585924160667e-01  9.9791851595190506e-01  9.9816927738513206e-01  9.9839261226267195e-01  9.9854156927055260e-01  9.9763922215108092e-01  7.2758315504842186e-01  9.6972725098765100e-01  9.8020822113049577e-01  9.8453275681950081e-01  9.8663920294515917e-01  9.8775391893864506e-01  9.8833767189759869e-01  9.8858944248028469e-01  9.8866911373667388e-01  9.8876175878996386e-01  9.8905520806615366e-01  9.8965092959130652e-01  9.9049518552365678e-01  9.9144046025075638e-01  9.9235723747768645e-01  9.9317360586157655e-01  9.9386374263458277e-01  9.9442921833875186e-01  9.9488419147199603e-01  9.9524623757718811e-01  9.9553202036211763e-01  9.9575583548634317e-01  9.9592946419149919e-01  9.9606251367927157e-01  9.9616289112778256e-01  9.9623726942943258e-01  9.9629149675023077e-01  9.9633093300034492e-01  9.9636070991564973e-01  9.9638590571648822e-01  9.9641157309009909e-01  9.9644246761087685e-01  9.9648217792142479e-01  9.9653139472410901e-01  9.9658506056284202e-01  9.9662693124303658e-01  9.9661913313294981e-01  9.9647837210824486e-01  9.9600941512157337e-01  9.9465677435170874e-01  9.8941935782026169e-01  6.6501625058874719e-02  9.3327850173043958e-02  7.1181264409720335e-01  9.2429404314258379e-01  9.6024508305984124e-01  9.7345778028962782e-01  9.7906103599573946e-01  9.8175649899259376e-01  9.8330865145861579e-01  9.8459122144280187e-01  9.8607700314954905e-01  9.8780372613507150e-01  9.8952422011723895e-01  9.9103236779619597e-01  9.9226597090427260e-01  9.9323951407115141e-01  9.9399110365155996e-01  9.9456416112791535e-01  9.9499794009642806e-01  9.9532373410407637e-01  9.9556511848703899e-01  9.9573951136694938e-01  9.9585977051782060e-01  9.9593546753031981e-01  9.9597381452526246e-01  9.9598030675146987e-01  9.9595915701498461e-01  9.9591354665589416e-01  9.9584567085306630e-01  9.9575644947591146e-01  9.9564490955172913e-01  9.9550687541616545e-01  9.9533172426843808e-01  9.9509566472507871e-01  9.9474766703323880e-01  9.9417217807895197e-01  9.9308751523590177e-01  9.9086398528294695e-01  9.8396654810148720e-01  8.9845561908631899e-01  1.3632976210528669e-01  6.3481646215678617e-02  3.4566627167480074e-02  6.1174544349069507e-02  2.9565253789622020e-01  8.0883711495224375e-01  9.0872091605724092e-01  9.3805473511625070e-01  9.5572826359602869e-01  9.6633556908024076e-01  9.7371372693238101e-01  9.7923083879393213e-01  9.8416775192107486e-01  9.8776791400984909e-01  9.9023432109238663e-01  9.9190270987388074e-01  9.9306100051168023e-01  9.9388207242369875e-01  9.9446746489087723e-01  9.9488346869340671e-01  9.9517432041808151e-01  9.9536941519263300e-01  9.9548832931389875e-01  9.9554411561575629e-01  9.9554536342796163e-01  9.9549741099761224e-01  9.9540296749085622e-01  9.9526226905502613e-01  9.9507289654855069e-01  9.9482902043341204e-01  9.9451916667749374e-01  9.9412255357572987e-01  9.9360232878779475e-01  9.9288945163702913e-01  9.9184191917435027e-01  9.9015211796228564e-01  9.8711165214906105e-01  9.8107403387909509e-01  9.6018283560600781e-01  5.6751603346697055e-01  4.9676286048197300e-02  6.4630717105705296e-02  6.2864914104814679e-02  3.2867694400637235e-02  3.3615381517355242e-02  4.1388256556846567e-02  7.5904326721159376e-02  3.2293601702588326e-01  7.4098059476444911e-01  9.1099766770729618e-01  9.2335091895327526e-01  9.4413826193967165e-01  9.6655389231321753e-01  9.7891652850044175e-01  9.8563435456305803e-01  9.8927748346040367e-01  9.9140685435358411e-01  9.9272179356369583e-01  9.9358681337256227e-01  9.9416551873571424e-01  9.9454725774248776e-01  9.9478534779382033e-01  9.9491200401283719e-01  9.9494643919985082e-01  9.9489936854765637e-01  9.9477539432369977e-01  9.9457406755552236e-01  9.9428983096976520e-01  9.9391060283095811e-01  9.9341548721932493e-01  9.9277039151876212e-01  9.9191658268384164e-01  9.9074727576090815e-01  9.8906545603324825e-01  9.8649911051305950e-01  9.8224761671753791e-01  9.7454208233220763e-01  9.5472893517580892e-01  8.4428198852977010e-01  2.7610365946537702e-01  5.2413567204622820e-02  3.4218236572968019e-02  6.3423248989169845e-02  6.2880883305454341e-02  3.2896011104373186e-02  3.2929009218437923e-02  3.3387738751289350e-02  3.5730773811830048e-02  4.5572668898863536e-02  8.4420135261760093e-02  2.7704261256257112e-01  6.7934064319122989e-01  9.4628335930874130e-01  9.5539150725218724e-01  9.7559575433388568e-01  9.8425397774560508e-01  9.8863778349731024e-01  9.9093209915849545e-01  9.9227754111329003e-01  9.9311750141145860e-01  9.9364017387838055e-01  9.9394338604173260e-01  9.9408064102896310e-01  9.9408022409360863e-01  9.9395447811190285e-01  9.9370412467612790e-01  9.9331940024546406e-01  9.9277919152447447e-01  9.9204685949237448e-01  9.9105955495123976e-01  9.8970948042712004e-01  9.8781678899919301e-01  9.8508052606710739e-01  9.8092306644003380e-01  9.7404951838168830e-01  9.6188237627186701e-01  9.3090496445037141e-01  8.0676915037352825e-01  4.0407974841628647e-01  9.5208196711741411e-02  4.3813857143099703e-02  3.5252981088406715e-02  3.3068900649948385e-02  6.2853258090443370e-02  6.2948636880915856e-02  3.3004563077849922e-02  3.3116958163948509e-02  3.3382259576283817e-02  3.4116886681998033e-02  3.6149631559624584e-02  4.6482646578655758e-02  9.4348722477259755e-02  5.5038111579527171e-01  9.3139687230127832e-01  9.5782403096419244e-01  9.7737877816706986e-01  9.8473191063828025e-01  9.8852723841111345e-01  9.9056685526703658e-01  9.9175139196019457e-01  9.9244735368008219e-01  9.9281931016708691e-01  9.9294875579592712e-01  9.9287221030194384e-01  9.9259754372940290e-01  9.9210981419636879e-01  9.9137037248138149e-01  9.9030684068155961e-01  9.8879327459354649e-01  9.8661780873203575e-01  9.8344718609537574e-01  9.7871900979716520e-01  9.7132235243473986e-01  9.5898037805856740e-01  9.3259099427481196e-01  8.5556325861604776e-01  6.4435582396616664e-01  2.9003211989780880e-01  8.8153460653536297e-02  4.6772767766839911e-02  3.8097375651366970e-02  3.4806328198740001e-02  3.3477768083652888e-02  3.2997830357033020e-02  6.2802701065283947e-02  6.3052651397385320e-02  3.3175132919513420e-02  3.3387013885313455e-02  3.3709743791984978e-02  3.4522462575151965e-02  3.8327481148797138e-02  5.7684774065018020e-02  3.9997970320656490e-01  9.9861599572917736e-01  9.5533423600277756e-01  9.7106040194762899e-01  9.8161050747677581e-01  9.8629497657046583e-01  9.8885990881449359e-01  9.9029758060136497e-01  9.9110300079829183e-01  9.9148315962767253e-01  9.9153224978962384e-01  9.9127882478823115e-01  9.9070320957777669e-01  9.8973606150547266e-01  9.8823777221858322e-01  9.8595059062651014e-01  9.8244252693986411e-01  9.7710771040301558e-01  9.6866693634550061e-01  9.5374042187487140e-01  9.1885793028606289e-01  8.1904848218765458e-01  6.1116437335507534e-01  3.2214799864109950e-01  1.1616959364845869e-01  5.6612093534033625e-02  4.2585342780140333e-02  3.8201280593075308e-02  3.5353605539873989e-02  3.4107284840088015e-02  3.3653902598474589e-02  3.3371764436551078e-02  3.3091978171101981e-02  6.2906415580257877e-02  6.3167479232487667e-02  3.3374425868035441e-02  3.3697726127254295e-02  3.4186819926080858e-02  3.6397748379421016e-02  4.7917276820829607e-02  1.6486193737175020e-01  9.1304515730958280e-01  9.524893967