<?xml version="1.0"?>
<VTKFile type="UnstructuredGrid"  version="0.1"  >
<UnstructuredGrid>
<Piece  NumberOfPoints="1681" NumberOfCells="3200">
<Points>
<DataArray  type="Float64"  NumberOfComponents="3"  format="ascii">0 0 0  0.025 0 0  0.05 0 0  0.075 0 0  0.1 0 0  0.125 0 0  0.15 0 0  0.175 0 0  0.2 0 0  0.225 0 0  0.25 0 0  0.275 0 0  0.3 0 0  0.325 0 0  0.35 0 0  0.375 0 0  0.4 0 0  0.425 0 0  0.45 0 0  0.475 0 0  0.5 0 0  0.525 0 0  0.55 0 0  0.575 0 0  0.6 0 0  0.625 0 0  0.65 0 0  0.675 0 0  0.7 0 0  0.725 0 0  0.75 0 0  0.775 0 0  0.8 0 0  0.825 0 0  0.85 0 0  0.875 0 0  0.9 0 0  0.925 0 0  0.95 0 0  0.975 0 0  1 0 0  0 0.025 0  0.025 0.025 0  0.05 0.025 0  0.075 0.025 0  0.1 0.025 0  0.125 0.025 0  0.15 0.025 0  0.175 0.025 0  0.2 0.025 0  0.225 0.025 0  0.25 0.025 0  0.275 0.025 0  0.3 0.025 0  0.325 0.025 0  0.35 0.025 0  0.375 0.025 0  0.4 0.025 0  0.425 0.025 0  0.45 0.025 0  0.475 0.025 0  0.5 0.025 0  0.525 0.025 0  0.55 0.025 0  0.575 0.025 0  0.6 0.025 0  0.625 0.025 0  0.65 0.025 0  0.675 0.025 0  0.7 0.025 0  0.725 0.025 0  0.75 0.025 0  0.775 0.025 0  0.8 0.025 0  0.825 0.025 0  0.85 0.025 0  0.875 0.025 0  0.9 0.025 0  0.925 0.025 0  0.95 0.025 0  0.975 0.025 0  1 0.025 0  0 0.05 0  0.025 0.05 0  0.05 0.05 0  0.075 0.05 0  0.1 0.05 0  0.125 0.05 0  0.15 0.05 0  0.175 0.05 0  0.2 0.05 0  0.225 0.05 0  0.25 0.05 0  0.275 0.05 0  0.3 0.05 0  0.325 0.05 0  0.35 0.05 0  0.375 0.05 0  0.4 0.05 0  0.425 0.05 0  0.45 0.05 0  0.475 0.05 0  0.5 0.05 0  0.525 0.05 0  0.55 0.05 0  0.575 0.05 0  0.6 0.05 0  0.625 0.05 0  0.65 0.05 0  0.675 0.05 0  0.7 0.05 0  0.725 0.05 0  0.75 0.05 0  0.775 0.05 0  0.8 0.05 0  0.825 0.05 0  0.85 0.05 0  0.875 0.05 0  0.9 0.05 0  0.925 0.05 0  0.95 0.05 0  0.975 0.05 0  1 0.05 0  0 0.075 0  0.025 0.075 0  0.05 0.075 0  0.075 0.075 0  0.1 0.075 0  0.125 0.075 0  0.15 0.075 0  0.175 0.075 0  0.2 0.075 0  0.225 0.075 0  0.25 0.075 0  0.275 0.075 0  0.3 0.075 0  0.325 0.075 0  0.35 0.075 0  0.375 0.075 0  0.4 0.075 0  0.425 0.075 0  0.45 0.075 0  0.475 0.075 0  0.5 0.075 0  0.525 0.075 0  0.55 0.075 0  0.575 0.075 0  0.6 0.075 0  0.625 0.075 0  0.65 0.075 0  0.675 0.075 0  0.7 0.075 0  0.725 0.075 0  0.75 0.075 0  0.775 0.075 0  0.8 0.075 0  0.825 0.075 0  0.85 0.075 0  0.875 0.075 0  0.9 0.075 0  0.925 0.075 0  0.95 0.075 0  0.975 0.075 0  1 0.075 0  0 0.1 0  0.025 0.1 0  0.05 0.1 0  0.075 0.1 0  0.1 0.1 0  0.125 0.1 0  0.15 0.1 0  0.175 0.1 0  0.2 0.1 0  0.225 0.1 0  0.25 0.1 0  0.275 0.1 0  0.3 0.1 0  0.325 0.1 0  0.35 0.1 0  0.375 0.1 0  0.4 0.1 0  0.425 0.1 0  0.45 0.1 0  0.475 0.1 0  0.5 0.1 0  0.525 0.1 0  0.55 0.1 0  0.575 0.1 0  0.6 0.1 0  0.625 0.1 0  0.65 0.1 0  0.675 0.1 0  0.7 0.1 0  0.725 0.1 0  0.75 0.1 0  0.775 0.1 0  0.8 0.1 0  0.825 0.1 0  0.85 0.1 0  0.875 0.1 0  0.9 0.1 0  0.925 0.1 0  0.95 0.1 0  0.975 0.1 0  1 0.1 0  0 0.125 0  0.025 0.125 0  0.05 0.125 0  0.075 0.125 0  0.1 0.125 0  0.125 0.125 0  0.15 0.125 0  0.175 0.125 0  0.2 0.125 0  0.225 0.125 0  0.25 0.125 0  0.275 0.125 0  0.3 0.125 0  0.325 0.125 0  0.35 0.125 0  0.375 0.125 0  0.4 0.125 0  0.425 0.125 0  0.45 0.125 0  0.475 0.125 0  0.5 0.125 0  0.525 0.125 0  0.55 0.125 0  0.575 0.125 0  0.6 0.125 0  0.625 0.125 0  0.65 0.125 0  0.675 0.125 0  0.7 0.125 0  0.725 0.125 0  0.75 0.125 0  0.775 0.125 0  0.8 0.125 0  0.825 0.125 0  0.85 0.125 0  0.875 0.125 0  0.9 0.125 0  0.925 0.125 0  0.95 0.125 0  0.975 0.125 0  1 0.125 0  0 0.15 0  0.025 0.15 0  0.05 0.15 0  0.075 0.15 0  0.1 0.15 0  0.125 0.15 0  0.15 0.15 0  0.175 0.15 0  0.2 0.15 0  0.225 0.15 0  0.25 0.15 0  0.275 0.15 0  0.3 0.15 0  0.325 0.15 0  0.35 0.15 0  0.375 0.15 0  0.4 0.15 0  0.425 0.15 0  0.45 0.15 0  0.475 0.15 0  0.5 0.15 0  0.525 0.15 0  0.55 0.15 0  0.575 0.15 0  0.6 0.15 0  0.625 0.15 0  0.65 0.15 0  0.675 0.15 0  0.7 0.15 0  0.725 0.15 0  0.75 0.15 0  0.775 0.15 0  0.8 0.15 0  0.825 0.15 0  0.85 0.15 0  0.875 0.15 0  0.9 0.15 0  0.925 0.15 0  0.95 0.15 0  0.975 0.15 0  1 0.15 0  0 0.175 0  0.025 0.175 0  0.05 0.175 0  0.075 0.175 0  0.1 0.175 0  0.125 0.175 0  0.15 0.175 0  0.175 0.175 0  0.2 0.175 0  0.225 0.175 0  0.25 0.175 0  0.275 0.175 0  0.3 0.175 0  0.325 0.175 0  0.35 0.175 0  0.375 0.175 0  0.4 0.175 0  0.425 0.175 0  0.45 0.175 0  0.475 0.175 0  0.5 0.175 0  0.525 0.175 0  0.55 0.175 0  0.575 0.175 0  0.6 0.175 0  0.625 0.175 0  0.65 0.175 0  0.675 0.175 0  0.7 0.175 0  0.725 0.175 0  0.75 0.175 0  0.775 0.175 0  0.8 0.175 0  0.825 0.175 0  0.85 0.175 0  0.875 0.175 0  0.9 0.175 0  0.925 0.175 0  0.95 0.175 0  0.975 0.175 0  1 0.175 0  0 0.2 0  0.025 0.2 0  0.05 0.2 0  0.075 0.2 0  0.1 0.2 0  0.125 0.2 0  0.15 0.2 0  0.175 0.2 0  0.2 0.2 0  0.225 0.2 0  0.25 0.2 0  0.275 0.2 0  0.3 0.2 0  0.325 0.2 0  0.35 0.2 0  0.375 0.2 0  0.4 0.2 0  0.425 0.2 0  0.45 0.2 0  0.475 0.2 0  0.5 0.2 0  0.525 0.2 0  0.55 0.2 0  0.575 0.2 0  0.6 0.2 0  0.625 0.2 0  0.65 0.2 0  0.675 0.2 0  0.7 0.2 0  0.725 0.2 0  0.75 0.2 0  0.775 0.2 0  0.8 0.2 0  0.825 0.2 0  0.85 0.2 0  0.875 0.2 0  0.9 0.2 0  0.925 0.2 0  0.95 0.2 0  0.975 0.2 0  1 0.2 0  0 0.225 0  0.025 0.225 0  0.05 0.225 0  0.075 0.225 0  0.1 0.225 0  0.125 0.225 0  0.15 0.225 0  0.175 0.225 0  0.2 0.225 0  0.225 0.225 0  0.25 0.225 0  0.275 0.225 0  0.3 0.225 0  0.325 0.225 0  0.35 0.225 0  0.375 0.225 0  0.4 0.225 0  0.425 0.225 0  0.45 0.225 0  0.475 0.225 0  0.5 0.225 0  0.525 0.225 0  0.55 0.225 0  0.575 0.225 0  0.6 0.225 0  0.625 0.225 0  0.65 0.225 0  0.675 0.225 0  0.7 0.225 0  0.725 0.225 0  0.75 0.225 0  0.775 0.225 0  0.8 0.225 0  0.825 0.225 0  0.85 0.225 0  0.875 0.225 0  0.9 0.225 0  0.925 0.225 0  0.95 0.225 0  0.975 0.225 0  1 0.225 0  0 0.25 0  0.025 0.25 0  0.05 0.25 0  0.075 0.25 0  0.1 0.25 0  0.125 0.25 0  0.15 0.25 0  0.175 0.25 0  0.2 0.25 0  0.225 0.25 0  0.25 0.25 0  0.275 0.25 0  0.3 0.25 0  0.325 0.25 0  0.35 0.25 0  0.375 0.25 0  0.4 0.25 0  0.425 0.25 0  0.45 0.25 0  0.475 0.25 0  0.5 0.25 0  0.525 0.25 0  0.55 0.25 0  0.575 0.25 0  0.6 0.25 0  0.625 0.25 0  0.65 0.25 0  0.675 0.25 0  0.7 0.25 0  0.725 0.25 0  0.75 0.25 0  0.775 0.25 0  0.8 0.25 0  0.825 0.25 0  0.85 0.25 0  0.875 0.25 0  0.9 0.25 0  0.925 0.25 0  0.95 0.25 0  0.975 0.25 0  1 0.25 0  0 0.275 0  0.025 0.275 0  0.05 0.275 0  0.075 0.275 0  0.1 0.275 0  0.125 0.275 0  0.15 0.275 0  0.175 0.275 0  0.2 0.275 0  0.225 0.275 0  0.25 0.275 0  0.275 0.275 0  0.3 0.275 0  0.325 0.275 0  0.35 0.275 0  0.375 0.275 0  0.4 0.275 0  0.425 0.275 0  0.45 0.275 0  0.475 0.275 0  0.5 0.275 0  0.525 0.275 0  0.55 0.275 0  0.575 0.275 0  0.6 0.275 0  0.625 0.275 0  0.65 0.275 0  0.675 0.275 0  0.7 0.275 0  0.725 0.275 0  0.75 0.275 0  0.775 0.275 0  0.8 0.275 0  0.825 0.275 0  0.85 0.275 0  0.875 0.275 0  0.9 0.275 0  0.925 0.275 0  0.95 0.275 0  0.975 0.275 0  1 0.275 0  0 0.3 0  0.025 0.3 0  0.05 0.3 0  0.075 0.3 0  0.1 0.3 0  0.125 0.3 0  0.15 0.3 0  0.175 0.3 0  0.2 0.3 0  0.225 0.3 0  0.25 0.3 0  0.275 0.3 0  0.3 0.3 0  0.325 0.3 0  0.35 0.3 0  0.375 0.3 0  0.4 0.3 0  0.425 0.3 0  0.45 0.3 0  0.475 0.3 0  0.5 0.3 0  0.525 0.3 0  0.55 0.3 0  0.575 0.3 0  0.6 0.3 0  0.625 0.3 0  0.65 0.3 0  0.675 0.3 0  0.7 0.3 0  0.725 0.3 0  0.75 0.3 0  0.775 0.3 0  0.8 0.3 0  0.825 0.3 0  0.85 0.3 0  0.875 0.3 0  0.9 0.3 0  0.925 0.3 0  0.95 0.3 0  0.975 0.3 0  1 0.3 0  0 0.325 0  0.025 0.325 0  0.05 0.325 0  0.075 0.325 0  0.1 0.325 0  0.125 0.325 0  0.15 0.325 0  0.175 0.325 0  0.2 0.325 0  0.225 0.325 0  0.25 0.325 0  0.275 0.325 0  0.3 0.325 0  0.325 0.325 0  0.35 0.325 0  0.375 0.325 0  0.4 0.325 0  0.425 0.325 0  0.45 0.325 0  0.475 0.325 0  0.5 0.325 0  0.525 0.325 0  0.55 0.325 0  0.575 0.325 0  0.6 0.325 0  0.625 0.325 0  0.65 0.325 0  0.675 0.325 0  0.7 0.325 0  0.725 0.325 0  0.75 0.325 0  0.775 0.325 0  0.8 0.325 0  0.825 0.325 0  0.85 0.325 0  0.875 0.325 0  0.9 0.325 0  0.925 0.325 0  0.95 0.325 0  0.975 0.325 0  1 0.325 0  0 0.35 0  0.025 0.35 0  0.05 0.35 0  0.075 0.35 0  0.1 0.35 0  0.125 0.35 0  0.15 0.35 0  0.175 0.35 0  0.2 0.35 0  0.225 0.35 0  0.25 0.35 0  0.275 0.35 0  0.3 0.35 0  0.325 0.35 0  0.35 0.35 0  0.375 0.35 0  0.4 0.35 0  0.425 0.35 0  0.45 0.35 0  0.475 0.35 0  0.5 0.35 0  0.525 0.35 0  0.55 0.35 0  0.575 0.35 0  0.6 0.35 0  0.625 0.35 0  0.65 0.35 0  0.675 0.35 0  0.7 0.35 0  0.725 0.35 0  0.75 0.35 0  0.775 0.35 0  0.8 0.35 0  0.825 0.35 0  0.85 0.35 0  0.875 0.35 0  0.9 0.35 0  0.925 0.35 0  0.95 0.35 0  0.975 0.35 0  1 0.35 0  0 0.375 0  0.025 0.375 0  0.05 0.375 0  0.075 0.375 0  0.1 0.375 0  0.125 0.375 0  0.15 0.375 0  0.175 0.375 0  0.2 0.375 0  0.225 0.375 0  0.25 0.375 0  0.275 0.375 0  0.3 0.375 0  0.325 0.375 0  0.35 0.375 0  0.375 0.375 0  0.4 0.375 0  0.425 0.375 0  0.45 0.375 0  0.475 0.375 0  0.5 0.375 0  0.525 0.375 0  0.55 0.375 0  0.575 0.375 0  0.6 0.375 0  0.625 0.375 0  0.65 0.375 0  0.675 0.375 0  0.7 0.375 0  0.725 0.375 0  0.75 0.375 0  0.775 0.375 0  0.8 0.375 0  0.825 0.375 0  0.85 0.375 0  0.875 0.375 0  0.9 0.375 0  0.925 0.375 0  0.95 0.375 0  0.975 0.375 0  1 0.375 0  0 0.4 0  0.025 0.4 0  0.05 0.4 0  0.075 0.4 0  0.1 0.4 0  0.125 0.4 0  0.15 0.4 0  0.175 0.4 0  0.2 0.4 0  0.225 0.4 0  0.25 0.4 0  0.275 0.4 0  0.3 0.4 0  0.325 0.4 0  0.35 0.4 0  0.375 0.4 0  0.4 0.4 0  0.425 0.4 0  0.45 0.4 0  0.475 0.4 0  0.5 0.4 0  0.525 0.4 0  0.55 0.4 0  0.575 0.4 0  0.6 0.4 0  0.625 0.4 0  0.65 0.4 0  0.675 0.4 0  0.7 0.4 0  0.725 0.4 0  0.75 0.4 0  0.775 0.4 0  0.8 0.4 0  0.825 0.4 0  0.85 0.4 0  0.875 0.4 0  0.9 0.4 0  0.925 0.4 0  0.95 0.4 0  0.975 0.4 0  1 0.4 0  0 0.425 0  0.025 0.425 0  0.05 0.425 0  0.075 0.425 0  0.1 0.425 0  0.125 0.425 0  0.15 0.425 0  0.175 0.425 0  0.2 0.425 0  0.225 0.425 0  0.25 0.425 0  0.275 0.425 0  0.3 0.425 0  0.325 0.425 0  0.35 0.425 0  0.375 0.425 0  0.4 0.425 0  0.425 0.425 0  0.45 0.425 0  0.475 0.425 0  0.5 0.425 0  0.525 0.425 0  0.55 0.425 0  0.575 0.425 0  0.6 0.425 0  0.625 0.425 0  0.65 0.425 0  0.675 0.425 0  0.7 0.425 0  0.725 0.425 0  0.75 0.425 0  0.775 0.425 0  0.8 0.425 0  0.825 0.425 0  0.85 0.425 0  0.875 0.425 0  0.9 0.425 0  0.925 0.425 0  0.95 0.425 0  0.975 0.425 0  1 0.425 0  0 0.45 0  0.02
[...]
<PointData  Scalars="ControlVisualisation"> 
<DataArray  type="Float64"  Name="ControlVisualisation"  format="ascii">9.0806914404356912e-02  6.2852126886733944e-02  6.2861522910218168e-02  6.2886232377900156e-02  6.2930886068956290e-02  6.2993019977727854e-02  6.3064116760225719e-02  6.3134350278877122e-02  6.3196427264171184e-02  6.3246800180554244e-02  6.3285059282934764e-02  6.3312772381790519e-02  6.3332391720306719e-02  6.3346286672579757e-02  6.3356095689994646e-02  6.3362642007194186e-02  6.3366269946658074e-02  6.3367238217934885e-02  6.3365927876994840e-02  6.3362766557204395e-02  6.3357756401081405e-02  6.3349916187305302e-02  6.3337729134934198e-02  6.3321677190772613e-02  6.3305697885688683e-02  6.3294078399693199e-02  6.3286035308567218e-02  6.3273264863430337e-02  6.3244176271260763e-02  6.3193170164546550e-02  6.3125689729221973e-02  6.3052616717335933e-02  6.2983217200948322e-02  6.2923944195146519e-02  6.2879705025858587e-02  6.2855157412808241e-02  6.2851058698226978e-02  6.2856957045559603e-02  6.2857575100361399e-02  6.2851895190845511e-02  1.6720119041146980e-01  6.2851253440248361e-02  3.2804610393081142e-02  3.2821959556919959e-02  3.2863960357318124e-02  3.2937781655031161e-02  3.3039500868894789e-02  3.3156042712153500e-02  3.3272038231465857e-02  3.3375662586284799e-02  3.3460904853579596e-02  3.3526501405051097e-02  3.3573936955127573e-02  3.3606224893301992e-02  3.3627004389232690e-02  3.3639460306527494e-02  3.3645652573627442e-02  3.3646672091477856e-02  3.3643203257090172e-02  3.3636045155262070e-02  3.3626396898263605e-02  3.3615164816553078e-02  3.3601164514183733e-02  3.3580931235416479e-02  3.3553410136016169e-02  3.3525115685615933e-02  3.3506569930166374e-02  3.3500820784004799e-02  3.3495822500689901e-02  3.3468919631109581e-02  3.3403611405593080e-02  3.3304938734114227e-02  3.3191616160685479e-02  3.3079618636274399e-02  3.2977256967791961e-02  3.2893975821192738e-02  3.2838873153488643e-02  3.2815759594107083e-02  3.2816001131421267e-02  3.2817313824195622e-02  3.2808523298786342e-02  6.2852354755297865e-02  6.2851074701529827e-02  3.2812859073282324e-02  3.2847014060865404e-02  3.2916917902737444e-02  3.3029873335339438e-02  3.3174271171357815e-02  3.3330713235527401e-02  3.3479825967964727e-02  3.3608184439546822e-02  3.3710307873038206e-02  3.3786386973373286e-02  3.3839243939158589e-02  3.3873411282900411e-02  3.3894342031591029e-02  3.3906331017633393e-02  3.3911427748484282e-02  3.3910269128020344e-02  3.3903184261710261e-02  3.3891123040941773e-02  3.3876869531054184e-02  3.3864702741008751e-02  3.3855420047354014e-02  3.3841057529951278e-02  3.3809999072602737e-02  3.3772232482397170e-02  3.3761952694007127e-02  3.3804271519091024e-02  3.3889270370359312e-02  3.3975398584267943e-02  3.4019589042275866e-02  3.4008977854388514e-02  3.3935478669317579e-02  3.3767983008956351e-02  3.3492458196287746e-02  3.3205697473571993e-02  3.2997311009705869e-02  3.2889541142073493e-02  3.2865977236933366e-02  3.2873019270309604e-02  3.2852705616070274e-02  6.2872773488312578e-02  6.2843864986065270e-02  3.2823766942709040e-02  3.2902219658415159e-02  3.3045844760148449e-02  3.3235555044071288e-02  3.3440240451096226e-02  3.3629670466021555e-02  3.3783621407703052e-02  3.3895213217131431e-02  3.3970809777617843e-02  3.4021822321145090e-02  3.4052855792433549e-02  3.4066829600412178e-02  3.4070740991100197e-02  3.4069820096585865e-02  3.4065134737644505e-02  3.4056983338077315e-02  3.4046471399626528e-02  3.4035019550384689e-02  3.4027735838044332e-02  3.4041512282224670e-02  3.4097525591738766e-02  3.4200662698088212e-02  3.4333782353129609e-02  3.4561875524387185e-02  3.5076511035279888e-02  3.6085632457053742e-02  3.7665140402757660e-02  3.9620243877973603e-02  4.1542228465958030e-02  4.3262508193346878e-02  4.4678670699717218e-02  4.5149231336097377e-02  4.3974008451076546e-02  4.1704873745464104e-02  3.8431707999920114e-02  3.4796141637300423e-02  3.3137165368440732e-02  3.3038502144000080e-02  3.3061280131710204e-02  6.2972360516712428e-02  6.2854062668325411e-02  3.2891678202091691e-02  3.3325319080984177e-02  3.4198887408047433e-02  3.5103078714664962e-02  3.5755952082797381e-02  3.6061231403169115e-02  3.6067457979824358e-02  3.5890507346664657e-02  3.5641236428456270e-02  3.5384187008424682e-02  3.5145131444812974e-02  3.4952615213533295e-02  3.4824596504922742e-02  3.4754990208696560e-02  3.4730125698701111e-02  3.4747983935413611e-02  3.4822198090698087e-02  3.4975190518713214e-02  3.5254784360137917e-02  3.5804498403589027e-02  3.6911353418449519e-02  3.8895596108708790e-02  4.1643009528223765e-02  4.5411990948305232e-02  5.2397194131771137e-02  6.7267094840976510e-02  9.8983440902899539e-02  1.6330827419507732e-01  2.6873667870962048e-01  3.8521753310640217e-01  4.8090724260667550e-01  5.2880819049221661e-01  5.0856868651132325e-01  4.1879554757607734e-01  2.5208510301485437e-01  9.9453533228729532e-02  4.9062335734225519e-02  3.4887045886834354e-02  3.3520622266993740e-02  6.3364720903776289e-02  6.4800448076611186e-02  3.4410363906135881e-02  3.9429598892478331e-02  4.9269871558873794e-02  5.9723533307857464e-02  6.4946503002997882e-02  6.4472736878776429e-02  6.0360197179581812e-02  5.4799630317287393e-02  4.9794859795382049e-02  4.6387116362956143e-02  4.3912351013279088e-02  4.2132501129640294e-02  4.1069179377472800e-02  4.0562118886005458e-02  4.0536872699340955e-02  4.1091492940909372e-02  4.2462975228338751e-02  4.4967797777237424e-02  4.9111627528655534e-02  5.6543353085097461e-02  7.2160922055037241e-02  1.1085021982252311e-01  2.0621549308202136e-01  3.7562715210641734e-01  5.8446201492263605e-01  7.5957799097843648e-01  8.5464727284569242e-01  9.0486230501102927e-01  9.3259711124148181e-01  9.4710479057763075e-01  9.5463638554729868e-01  9.5853385857635354e-01  9.5964052122687926e-01  9.5713027054500044e-01  9.4637735714997218e-01  9.0303090706672851e-01  6.3452142442564796e-01  1.4994642574286021e-01  3.7280298916364231e-02  6.7119658122913067e-02  7.2354337469523369e-02  6.7197822050889977e-02  2.9011591992213570e-01  4.5858555715453708e-01  5.7396472404967458e-01  6.0491117341101663e-01  5.6073208139949426e-01  4.6344898659730460e-01  3.4610402344690039e-01  2.4336327467722998e-01  1.6613665649057208e-01  1.2268033323462355e-01  1.0388502998581012e-01  9.8968831964832665e-02  1.0098841235095528e-01  1.0782155322161423e-01  1.2261759623593620e-01  1.5371156495538782e-01  2.1405405393473320e-01  3.1556659826557842e-01  4.6155293866537445e-01  6.4073062927803670e-01  8.1287782593230118e-01  9.0670454794871258e-01  9.4146489433599234e-01  9.5763480350722463e-01  9.6758343073723541e-01  9.7443863968435285e-01  9.7916343938250827e-01  9.8240053923818238e-01  9.8467794980368784e-01  9.8632617798414102e-01  9.8752037825595340e-01  9.8833100703951571e-01  9.8873070328001478e-01  9.8853760787542377e-01  9.8725560254573286e-01  9.8345887446350411e-01  9.6961449201364713e-01  4.6251211513778512e-01  6.9969331944834401e-02  9.3129179461220624e-01  9.5437939205830258e-01  9.6981659380829432e-01  9.7157408344477958e-01  9.6977008641430595e-01  9.6584242476200743e-01  9.5994797160529843e-01  9.5141090785967053e-01  9.3869673583467583e-01  9.1873800574911002e-01  8.8629201506282251e-01  8.3645305023384753e-01  7.7476156664414630e-01  7.2473498170675088e-01  7.0909761063343257e-01  7.3275622533474483e-01  7.8676169216800940e-01  8.5060595861040200e-01  9.0195571188625545e-01  9.3445055011445566e-01  9.5346270439232961e-01  9.6501351287741099e-01  9.7259140775469799e-01  9.7795887385513158e-01  9.8195545240633297e-01  9.8496465086597973e-01  9.8725851818586308e-01  9.8903265914296012e-01  9.9041297422989050e-01  9.9149503284385476e-01  9.9236088192354954e-01  9.9307880971213669e-01  9.9369856358713438e-01  9.9424846624601504e-01  9.9473613981709419e-01  9.9515076112678214e-01  9.9546078362353529e-01  9.9559122001618394e-01  9.9533605878599596e-01  9.9419621469456509e-01  9.7120905536463487e-01  9.8967319893159000e-01  9.9313814294805003e-01  9.9188946970827907e-01  9.9031051017173632e-01  9.8857389529811457e-01  9.8664452731578878e-01  9.8445153806574315e-01  9.8188913676676415e-01  9.7883146295615442e-01  9.7518941003271165e-01  9.7103018780527883e-01  9.6675076016510009e-01  9.6315557784849337e-01  9.6120938700751712e-01  9.6149543639510360e-01  9.6386266881773608e-01  9.6760637920609405e-01  9.7190963056794732e-01  9.7614285225994979e-01  9.7992721913819825e-01  9.8310733556044438e-01  9.8568994717199243e-01  9.8775458548805006e-01  9.8939327163590596e-01  9.9069620368124278e-01  9.9174753153575246e-01  9.9261556653007366e-01  9.9334638531352792e-01  9.9396994434525521e-01  9.9451036689269467e-01  9.9499154215332453e-01  9.9543696834935347e-01  9.9586683153748312e-01  9.9629508105362519e-01  9.9672788867750362e-01  9.9716324174783277e-01  9.9759033128520458e-01  9.9798854547239191e-01  9.9832651858832933e-01  9.9856403880117506e-01  9.9663140281803275e-01  9.9442108679319263e-01  9.9663964567696661e-01  9.9573964356724420e-01  9.9454081654212578e-01  9.9321021690510780e-01  9.9183791109141095e-01  9.9045139612684374e-01  9.8903419595002406e-01  9.8756359175904374e-01  9.8604852685480660e-01  9.8456603186306024e-01  9.8327962994369389e-01  9.8241093316553296e-01  9.8215426626356295e-01  9.8257644140953093e-01  9.8357923906795608e-01  9.8495449348153485e-01  9.8647727763790516e-01  9.8797267041345016e-01  9.8933738869450738e-01  9.9053012895954951e-01  9.9154912299068143e-01  9.9241060079841537e-01  9.9313618911027313e-01  9.9374884812554742e-01  9.9427157205769723e-01  9.9472531231694161e-01  9.9512703870597252e-01  9.9549022012626409e-01  9.9582706571147550e-01  9.9615023812685177e-01  9.9647280390267179e-01  9.9680666630985837e-01  9.9716027370501792e-01  9.9753625279088143e-01  9.9792901160578251e-01  9.9832290954283254e-01  9.9869197806669019e-01  9.9900229677409436e-01  9.9921591611275185e-01  9.9848578772402286e-01  9.9510667139285713e-01  9.9727488232315398e-01  9.9656399194453182e-01  9.9559095737975001e-01  9.9450591404558608e-01  9.9341930121172051e-01  9.9237780365657469e-01  9.9138288394825891e-01  9.9042815960636721e-01  9.8953124339747189e-01  9.8875330431910569e-01  9.8819443210154689e-01  9.8795709183566383e-01  9.8809286217340331e-01  9.8857184395000497e-01  9.8929831325748030e-01  9.9015405373985577e-01  9.9103623363249738e-01  9.9187458941720807e-01  9.9263155166264638e-01  9.9329431848091421e-01  9.9386524238590634e-01  9.9435386762759814e-01  9.9477209040461023e-01  9.9513216612440303e-01  9.9544608019138370e-01  9.9572507342441330e-01  9.9597927136353859e-01  9.9621789555155649e-01  9.9645000513290327e-01  9.9668510725416903e-01  9.9693302641976267e-01  9.9720283245684849e-01  9.9750094502185738e-01  9.9782861500279785e-01  9.9817906686607549e-01  9.9853547565100975e-01  9.9887029394369820e-01  9.9914937994279418e-01  9.9934041140160867e-01  9.9882117551800442e-01  9.9366430837491260e-01  9.9677949802733223e-01  9.9610352085374676e-01  9.9522174321306300e-01  9.9429771410854972e-01  9.9342329394006934e-01  9.9262369701154518e-01  9.9188997807068291e-01  9.9121607492407238e-01  9.9062601271363060e-01  9.9018271759982490e-01  9.8996841424424553e-01  9.9003953195523986e-01  9.9038832280427391e-01  9.9094608221049374e-01  9.9161879952048526e-01  9.9232119750587955e-01  9.9299322200966611e-01  9.9360153821156760e-01  9.9413342168353225e-01  9.9458910784724475e-01  9.9497557332295494e-01  9.9530243054597767e-01  9.9557970503052573e-01  9.9581696275804155e-01  9.9602313574113777e-01  9.9620655561328852e-01  9.9637506634356632e-01  9.9653629209960193e-01  9.9669803606325735e-01  9.9686856997815465e-01  9.9705649346729486e-01  9.9726994123922952e-01  9.9751505576551591e-01  9.9779376766525341e-01  9.9810129947896298e-01  9.9842402799412133e-01  9.9873804630268637e-01  9.9901271359833554e-01  9.9921099242250078e-01  9.9866813223683604e-01  9.8544032815619098e-01  9.9392621624622912e-01  9.9349643143875699e-01  9.9296426087082301e-01  9.9243130203357222e-01  9.9194439087508979e-01  9.9149577575580838e-01  9.9106619562641762e-01  9.9066255669396974e-01  9.9033720374318246e-01  9.9018125936937496e-01  9.9028159031743102e-01  9.9065825058367452e-01  9.9124709630098207e-01  9.9194613376223817e-01  9.9266415059690616e-01  9.9333904717451649e-01  9.9393809363828878e-01  9.9445083431383152e-01  9.9488012406261250e-01  9.9523502907949546e-01  9.9552655555591874e-01  9.9576553059476169e-01  9.9596177686950649e-01  9.9612398444168426e-01  9.9625989534332970e-01  9.9637657871492469e-01  9.9648071972114360e-01  9.9657892365883793e-01  9.9667802289373009e-01  9.9678527315343413e-01  9.9690824043388948e-01  9.9705419178366506e-01  9.9722884990243987e-01  9.9743458678655317e-01  9.9766829032714810e-01  9.9791918558437676e-01  9.9816846030052497e-01  9.9839086184746539e-01  9.9853953778253435e-01  9.9763592566461423e-01  7.2773463430931884e-01  9.7003255978424918e-01  9.8018128839103513e-01  9.8439085324672404e-01  9.8648079483899231e-01  9.8759057084618895e-01  9.8817828291677978e-01  9.8843986110731286e-01  9.8853002853815031e-01  9.8862773104098411e-01  9.8891977635338135e-01  9.8951568086022457e-01  9.9036348608473324e-01  9.9131302998723658e-01  9.9223956306839090e-01  9.9307376696023708e-01  9.9378568597117811e-01  9.9437204715438066e-01  9.9484467230227658e-01  9.9522072893902658e-01  9.9551727947362523e-01  9.9574920612388584e-01  9.9592883447596225e-01  9.9606621819451080e-01  9.9616961655420699e-01  9.9624597534014769e-01  9.9630135192307290e-01  9.9634126386530431e-01  9.9637096249521795e-01  9.9639562725548037e-01  9.9642041917707647e-01  9.9645022906594538e-01  9.9648876729520097e-01  9.9653674696119476e-01  9.9658902812078520e-01  9.9662910937141791e-01  9.9661877445118741e-01  9.9647446922954541e-01  9.9600385249937140e-01  9.9464706954652782e-01  9.8940578374093568e-01  6.6561936504291319e-02  9.0491261499807268e-02  7.2486280518281210e-01  9.2358761625361230e-01  9.5819576810662144e-01  9.7266526758499106e-01  9.7866323211109441e-01  9.8139933307101879e-01  9.8298455339334234e-01  9.8428598791130173e-01  9.8580611518312056e-01  9.8758731971585145e-01  9.8934003013861305e-01  9.9085717237284365e-01  9.9210558754798894e-01  9.9310812989056330e-01  9.9389216503091693e-01  9.9449314543825584e-01  9.9494866930236070e-01  9.9529082521102141e-01  9.9554440261066390e-01  9.9572785081341408e-01  9.9585478938753980e-01  9.9593533176213167e-01  9.9597707439791749e-01  9.9598578969058360e-01  9.9596589744562558e-01  9.9592073914243540e-01  9.9585264885225755e-01  9.9576265934069230e-01  9.9564993004371438e-01  9.9551053133760548e-01  9.9533409352370461e-01  9.9509681235270098e-01  9.9474725825811960e-01  9.9416866712443508e-01  9.9307593187617915e-01  9.9085518779568049e-01  9.8394558187727210e-01  8.9802550566374240e-01  1.3783760951980431e-01  6.3597758022073528e-02  3.4512743714487010e-02  5.8976742467381278e-02  2.4350006268813140e-01  7.7661235937930140e-01  9.1345510830574805e-01  9.3517343644363271e-01  9.5047393093876220e-01  9.6345785503878922e-01  9.7297996883833571e-01  9.7845823673436738e-01  9.8363664133251705e-01  9.8741896262120710e-01  9.9000676323426495e-01  9.9172247638508959e-01  9.9291349321300026e-01  9.9377072508413344e-01  9.9438743968694576e-01  9.9482727799363668e-01  9.9513566419542065e-01  9.9534362286895395e-01  9.9547198385251912e-01  9.9553465612399750e-01  9.9554079822616659e-01  9.9549612176839508e-01  9.9540359097883757e-01  9.9526360275901227e-01  9.9507385379584223e-01  9.9482864576526597e-01  9.9451651391205598e-01  9.9411659415073494e-01  9.9359217608373995e-01  9.9287446699751747e-01  9.9182041971789836e-01  9.9012018108666067e-01  9.8707568783180855e-01  9.8112387367238696e-01  9.6039540414830982e-01  5.8789519416942415e-01  4.9534285314600697e-02  6.4719444727023123e-02  6.2975057310045615e-02  3.2930964752018427e-02  3.3585344375870088e-02  4.0386847510496870e-02  6.5753119942708424e-02  1.8037798546367906e-01  5.8394015304099289e-01  8.8354051138803857e-01  9.2674869340154131e-01  9.4105055782148250e-01  9.6721864212180375e-01  9.7869855518360904e-01  9.8513874267052337e-01  9.8896621811553576e-01  9.9121586653580873e-01  9.9257195367312967e-01  9.9347276736710211e-01  9.9408246153023461e-01  9.9448769841722007e-01  9.9474297186766836e-01  9.9488209770208058e-01  9.9492547544255650e-01  9.9488460131717815e-01  9.9476455264303809e-01  9.9456515117253752e-01  9.9428099876236431e-01  9.9389996406442449e-01  9.9340099000665527e-01  9.9274977975510692e-01  9.9188680830388531e-01  9.9070248081912926e-01  9.8899835733441099e-01  9.8641221557441527e-01  9.8213660508167300e-01  9.7436756158432314e-01  9.5456904479539306e-01  8.5186987750076704e-01  2.9021547572026080e-01  5.2371278520913729e-02  3.4254197360827937e-02  6.3497816764343420e-02  6.2994812673371689e-02  3.2965076491019235e-02  3.3010416293547923e-02  3.3407516959138926e-02  3.5308596606452698e-02  4.2969778759772363e-02  6.8498115416458782e-02  1.6180357855265293e-01  4.0724630230279013e-01  9.0033226003221234e-01  9.5256231689479187e-01  9.7630918873131656e-01  9.8371195512780107e-01  9.8835366609316977e-01  9.9074302785385637e-01  9.9213146119865137e-01  9.9300793337418469e-01  9.9355964422236376e-01  9.9388431889724693e-01  9.9403703695388768e-01  9.9404743827465314e-01  9.9392872183363346e-01  9.9368208333516050e-01  9.9329787950205906e-01  9.9275493074344046e-01  9.9201612638377645e-01  9.9101689662082726e-01  9.8964521423907503e-01  9.8771887821753468e-01  9.8495023135592319e-01  9.8072620748778261e-01  9.7361240543838290e-01  9.6138003128254212e-01  9.3212204156990142e-01  8.2888518815818124e-01  4.2412398433730075e-01  9.1525327075444390e-02  4.3740607818359943e-02  3.5417985321239430e-02  3.3134152006192526e-02  6.2936264772961284e-02  6.3065317425030937e-02  3.3075294956146917e-02  3.3204528803803250e-02  3.3465711492174657e-02  3.4168549033634296e-02  3.5911579784020140e-02  4.3031120393773867e-02  6.7986919128134315e-02  4.4572287121967280e-01  9.2623877434047308e-01  9.5455934645578022e-01  9.7699268753704904e-01  9.8425991191251272e-01  9.8825316958041531e-01  9.9038821473640903e-01  9.9162171307229319e-01  9.9235229499460875e-01  9.9274880035515145e-01  9.9289580314168069e-01  9.9283138790540282e-01  9.9256412047761267e-01  9.9207929004213424e-01  9.9133799661942734e-01  9.9026591835542666e-01  9.8873069507815470e-01  9.8651292732721296e-01  9.8330009426164022e-01  9.7850442780264224e-01  9.7088047066800176e-01  9.5872357443586975e-01  9.3445971360478064e-01  8.6659323079538408e-01  6.7473845648195174e-01  2.6598816351829080e-01  8.3584664340159709e-02  4.6187217000929703e-02  3.8026853541008564e-02  3.4844098564830228e-02  3.3545387227700570e-02  3.3065930967505056e-02  6.2895367162479676e-02  6.3169702735254560e-02  3.3246084234948937e-02  3.3479194754459492e-02  3.3813351722561460e-02  3.4613205165030039e-02  3.7659772312178860e-02  5.2861303521847869e-02  1.6363063629760163e-01  8.1748171434380490e-01  9.6041438280134561e-01  9.6820420219062864e-01  9.8079698720199737e-01  9.8586238886548394e-01  9.8862858743329063e-01  9.9015244983352446e-01  9.9100695351449442e-01  9.9141645629800479e-01  9.9148480002735839e-01  9.9124406185334268e-01  9.9067562087715610e-01  9.8970994241858057e-01  9.8820547107063150e-01  9.8589471431646480e-01  9.8236024088197782e-01  9.7699751480030361e-01  9.6835580829161061e-01  9.5354158983519033e-01  9.1987012897836662e-01  8.2116725965584858e-01  5.9762114988531390e-01  2.8238937612458753e-01  1.0417624616326270e-01  5.4481918157548229e-02  4.2104887107636671e-02  3.8198513277411986e-02  3.5360032008563212e-02  3.4161286611594711e-02  3.3719676289912029e-02  3.3443914322575527e-02  3.3157715068907093e-02  6.3003463114869415e-02  6.3280676568795810e-02  3.3441047883816404e-02  3.3787694802084357e-02  3.4285368200228455e-02  3.6141147255615659e-02  4.6234321646616686e-02  1.0771073121761077e-01  8.5042782957669094e-01  9.536066498