<?xml version="1.0"?>
<VTKFile type="UnstructuredGrid"  version="0.1"  >
<UnstructuredGrid>
<Piece  NumberOfPoints="1681" NumberOfCells="3200">
<Points>
<DataArray  type="Float64"  NumberOfComponents="3"  format="ascii">0 0 0  0.025 0 0  0.05 0 0  0.075 0 0  0.1 0 0  0.125 0 0  0.15 0 0  0.175 0 0  0.2 0 0  0.225 0 0  0.25 0 0  0.275 0 0  0.3 0 0  0.325 0 0  0.35 0 0  0.375 0 0  0.4 0 0  0.425 0 0  0.45 0 0  0.475 0 0  0.5 0 0  0.525 0 0  0.55 0 0  0.575 0 0  0.6 0 0  0.625 0 0  0.65 0 0  0.675 0 0  0.7 0 0  0.725 0 0  0.75 0 0  0.775 0 0  0.8 0 0  0.825 0 0  0.85 0 0  0.875 0 0  0.9 0 0  0.925 0 0  0.95 0 0  0.975 0 0  1 0 0  0 0.025 0  0.025 0.025 0  0.05 0.025 0  0.075 0.025 0  0.1 0.025 0  0.125 0.025 0  0.15 0.025 0  0.175 0.025 0  0.2 0.025 0  0.225 0.025 0  0.25 0.025 0  0.275 0.025 0  0.3 0.025 0  0.325 0.025 0  0.35 0.025 0  0.375 0.025 0  0.4 0.025 0  0.425 0.025 0  0.45 0.025 0  0.475 0.025 0  0.5 0.025 0  0.525 0.025 0  0.55 0.025 0  0.575 0.025 0  0.6 0.025 0  0.625 0.025 0  0.65 0.025 0  0.675 0.025 0  0.7 0.025 0  0.725 0.025 0  0.75 0.025 0  0.775 0.025 0  0.8 0.025 0  0.825 0.025 0  0.85 0.025 0  0.875 0.025 0  0.9 0.025 0  0.925 0.025 0  0.95 0.025 0  0.975 0.025 0  1 0.025 0  0 0.05 0  0.025 0.05 0  0.05 0.05 0  0.075 0.05 0  0.1 0.05 0  0.125 0.05 0  0.15 0.05 0  0.175 0.05 0  0.2 0.05 0  0.225 0.05 0  0.25 0.05 0  0.275 0.05 0  0.3 0.05 0  0.325 0.05 0  0.35 0.05 0  0.375 0.05 0  0.4 0.05 0  0.425 0.05 0  0.45 0.05 0  0.475 0.05 0  0.5 0.05 0  0.525 0.05 0  0.55 0.05 0  0.575 0.05 0  0.6 0.05 0  0.625 0.05 0  0.65 0.05 0  0.675 0.05 0  0.7 0.05 0  0.725 0.05 0  0.75 0.05 0  0.775 0.05 0  0.8 0.05 0  0.825 0.05 0  0.85 0.05 0  0.875 0.05 0  0.9 0.05 0  0.925 0.05 0  0.95 0.05 0  0.975 0.05 0  1 0.05 0  0 0.075 0  0.025 0.075 0  0.05 0.075 0  0.075 0.075 0  0.1 0.075 0  0.125 0.075 0  0.15 0.075 0  0.175 0.075 0  0.2 0.075 0  0.225 0.075 0  0.25 0.075 0  0.275 0.075 0  0.3 0.075 0  0.325 0.075 0  0.35 0.075 0  0.375 0.075 0  0.4 0.075 0  0.425 0.075 0  0.45 0.075 0  0.475 0.075 0  0.5 0.075 0  0.525 0.075 0  0.55 0.075 0  0.575 0.075 0  0.6 0.075 0  0.625 0.075 0  0.65 0.075 0  0.675 0.075 0  0.7 0.075 0  0.725 0.075 0  0.75 0.075 0  0.775 0.075 0  0.8 0.075 0  0.825 0.075 0  0.85 0.075 0  0.875 0.075 0  0.9 0.075 0  0.925 0.075 0  0.95 0.075 0  0.975 0.075 0  1 0.075 0  0 0.1 0  0.025 0.1 0  0.05 0.1 0  0.075 0.1 0  0.1 0.1 0  0.125 0.1 0  0.15 0.1 0  0.175 0.1 0  0.2 0.1 0  0.225 0.1 0  0.25 0.1 0  0.275 0.1 0  0.3 0.1 0  0.325 0.1 0  0.35 0.1 0  0.375 0.1 0  0.4 0.1 0  0.425 0.1 0  0.45 0.1 0  0.475 0.1 0  0.5 0.1 0  0.525 0.1 0  0.55 0.1 0  0.575 0.1 0  0.6 0.1 0  0.625 0.1 0  0.65 0.1 0  0.675 0.1 0  0.7 0.1 0  0.725 0.1 0  0.75 0.1 0  0.775 0.1 0  0.8 0.1 0  0.825 0.1 0  0.85 0.1 0  0.875 0.1 0  0.9 0.1 0  0.925 0.1 0  0.95 0.1 0  0.975 0.1 0  1 0.1 0  0 0.125 0  0.025 0.125 0  0.05 0.125 0  0.075 0.125 0  0.1 0.125 0  0.125 0.125 0  0.15 0.125 0  0.175 0.125 0  0.2 0.125 0  0.225 0.125 0  0.25 0.125 0  0.275 0.125 0  0.3 0.125 0  0.325 0.125 0  0.35 0.125 0  0.375 0.125 0  0.4 0.125 0  0.425 0.125 0  0.45 0.125 0  0.475 0.125 0  0.5 0.125 0  0.525 0.125 0  0.55 0.125 0  0.575 0.125 0  0.6 0.125 0  0.625 0.125 0  0.65 0.125 0  0.675 0.125 0  0.7 0.125 0  0.725 0.125 0  0.75 0.125 0  0.775 0.125 0  0.8 0.125 0  0.825 0.125 0  0.85 0.125 0  0.875 0.125 0  0.9 0.125 0  0.925 0.125 0  0.95 0.125 0  0.975 0.125 0  1 0.125 0  0 0.15 0  0.025 0.15 0  0.05 0.15 0  0.075 0.15 0  0.1 0.15 0  0.125 0.15 0  0.15 0.15 0  0.175 0.15 0  0.2 0.15 0  0.225 0.15 0  0.25 0.15 0  0.275 0.15 0  0.3 0.15 0  0.325 0.15 0  0.35 0.15 0  0.375 0.15 0  0.4 0.15 0  0.425 0.15 0  0.45 0.15 0  0.475 0.15 0  0.5 0.15 0  0.525 0.15 0  0.55 0.15 0  0.575 0.15 0  0.6 0.15 0  0.625 0.15 0  0.65 0.15 0  0.675 0.15 0  0.7 0.15 0  0.725 0.15 0  0.75 0.15 0  0.775 0.15 0  0.8 0.15 0  0.825 0.15 0  0.85 0.15 0  0.875 0.15 0  0.9 0.15 0  0.925 0.15 0  0.95 0.15 0  0.975 0.15 0  1 0.15 0  0 0.175 0  0.025 0.175 0  0.05 0.175 0  0.075 0.175 0  0.1 0.175 0  0.125 0.175 0  0.15 0.175 0  0.175 0.175 0  0.2 0.175 0  0.225 0.175 0  0.25 0.175 0  0.275 0.175 0  0.3 0.175 0  0.325 0.175 0  0.35 0.175 0  0.375 0.175 0  0.4 0.175 0  0.425 0.175 0  0.45 0.175 0  0.475 0.175 0  0.5 0.175 0  0.525 0.175 0  0.55 0.175 0  0.575 0.175 0  0.6 0.175 0  0.625 0.175 0  0.65 0.175 0  0.675 0.175 0  0.7 0.175 0  0.725 0.175 0  0.75 0.175 0  0.775 0.175 0  0.8 0.175 0  0.825 0.175 0  0.85 0.175 0  0.875 0.175 0  0.9 0.175 0  0.925 0.175 0  0.95 0.175 0  0.975 0.175 0  1 0.175 0  0 0.2 0  0.025 0.2 0  0.05 0.2 0  0.075 0.2 0  0.1 0.2 0  0.125 0.2 0  0.15 0.2 0  0.175 0.2 0  0.2 0.2 0  0.225 0.2 0  0.25 0.2 0  0.275 0.2 0  0.3 0.2 0  0.325 0.2 0  0.35 0.2 0  0.375 0.2 0  0.4 0.2 0  0.425 0.2 0  0.45 0.2 0  0.475 0.2 0  0.5 0.2 0  0.525 0.2 0  0.55 0.2 0  0.575 0.2 0  0.6 0.2 0  0.625 0.2 0  0.65 0.2 0  0.675 0.2 0  0.7 0.2 0  0.725 0.2 0  0.75 0.2 0  0.775 0.2 0  0.8 0.2 0  0.825 0.2 0  0.85 0.2 0  0.875 0.2 0  0.9 0.2 0  0.925 0.2 0  0.95 0.2 0  0.975 0.2 0  1 0.2 0  0 0.225 0  0.025 0.225 0  0.05 0.225 0  0.075 0.225 0  0.1 0.225 0  0.125 0.225 0  0.15 0.225 0  0.175 0.225 0  0.2 0.225 0  0.225 0.225 0  0.25 0.225 0  0.275 0.225 0  0.3 0.225 0  0.325 0.225 0  0.35 0.225 0  0.375 0.225 0  0.4 0.225 0  0.425 0.225 0  0.45 0.225 0  0.475 0.225 0  0.5 0.225 0  0.525 0.225 0  0.55 0.225 0  0.575 0.225 0  0.6 0.225 0  0.625 0.225 0  0.65 0.225 0  0.675 0.225 0  0.7 0.225 0  0.725 0.225 0  0.75 0.225 0  0.775 0.225 0  0.8 0.225 0  0.825 0.225 0  0.85 0.225 0  0.875 0.225 0  0.9 0.225 0  0.925 0.225 0  0.95 0.225 0  0.975 0.225 0  1 0.225 0  0 0.25 0  0.025 0.25 0  0.05 0.25 0  0.075 0.25 0  0.1 0.25 0  0.125 0.25 0  0.15 0.25 0  0.175 0.25 0  0.2 0.25 0  0.225 0.25 0  0.25 0.25 0  0.275 0.25 0  0.3 0.25 0  0.325 0.25 0  0.35 0.25 0  0.375 0.25 0  0.4 0.25 0  0.425 0.25 0  0.45 0.25 0  0.475 0.25 0  0.5 0.25 0  0.525 0.25 0  0.55 0.25 0  0.575 0.25 0  0.6 0.25 0  0.625 0.25 0  0.65 0.25 0  0.675 0.25 0  0.7 0.25 0  0.725 0.25 0  0.75 0.25 0  0.775 0.25 0  0.8 0.25 0  0.825 0.25 0  0.85 0.25 0  0.875 0.25 0  0.9 0.25 0  0.925 0.25 0  0.95 0.25 0  0.975 0.25 0  1 0.25 0  0 0.275 0  0.025 0.275 0  0.05 0.275 0  0.075 0.275 0  0.1 0.275 0  0.125 0.275 0  0.15 0.275 0  0.175 0.275 0  0.2 0.275 0  0.225 0.275 0  0.25 0.275 0  0.275 0.275 0  0.3 0.275 0  0.325 0.275 0  0.35 0.275 0  0.375 0.275 0  0.4 0.275 0  0.425 0.275 0  0.45 0.275 0  0.475 0.275 0  0.5 0.275 0  0.525 0.275 0  0.55 0.275 0  0.575 0.275 0  0.6 0.275 0  0.625 0.275 0  0.65 0.275 0  0.675 0.275 0  0.7 0.275 0  0.725 0.275 0  0.75 0.275 0  0.775 0.275 0  0.8 0.275 0  0.825 0.275 0  0.85 0.275 0  0.875 0.275 0  0.9 0.275 0  0.925 0.275 0  0.95 0.275 0  0.975 0.275 0  1 0.275 0  0 0.3 0  0.025 0.3 0  0.05 0.3 0  0.075 0.3 0  0.1 0.3 0  0.125 0.3 0  0.15 0.3 0  0.175 0.3 0  0.2 0.3 0  0.225 0.3 0  0.25 0.3 0  0.275 0.3 0  0.3 0.3 0  0.325 0.3 0  0.35 0.3 0  0.375 0.3 0  0.4 0.3 0  0.425 0.3 0  0.45 0.3 0  0.475 0.3 0  0.5 0.3 0  0.525 0.3 0  0.55 0.3 0  0.575 0.3 0  0.6 0.3 0  0.625 0.3 0  0.65 0.3 0  0.675 0.3 0  0.7 0.3 0  0.725 0.3 0  0.75 0.3 0  0.775 0.3 0  0.8 0.3 0  0.825 0.3 0  0.85 0.3 0  0.875 0.3 0  0.9 0.3 0  0.925 0.3 0  0.95 0.3 0  0.975 0.3 0  1 0.3 0  0 0.325 0  0.025 0.325 0  0.05 0.325 0  0.075 0.325 0  0.1 0.325 0  0.125 0.325 0  0.15 0.325 0  0.175 0.325 0  0.2 0.325 0  0.225 0.325 0  0.25 0.325 0  0.275 0.325 0  0.3 0.325 0  0.325 0.325 0  0.35 0.325 0  0.375 0.325 0  0.4 0.325 0  0.425 0.325 0  0.45 0.325 0  0.475 0.325 0  0.5 0.325 0  0.525 0.325 0  0.55 0.325 0  0.575 0.325 0  0.6 0.325 0  0.625 0.325 0  0.65 0.325 0  0.675 0.325 0  0.7 0.325 0  0.725 0.325 0  0.75 0.325 0  0.775 0.325 0  0.8 0.325 0  0.825 0.325 0  0.85 0.325 0  0.875 0.325 0  0.9 0.325 0  0.925 0.325 0  0.95 0.325 0  0.975 0.325 0  1 0.325 0  0 0.35 0  0.025 0.35 0  0.05 0.35 0  0.075 0.35 0  0.1 0.35 0  0.125 0.35 0  0.15 0.35 0  0.175 0.35 0  0.2 0.35 0  0.225 0.35 0  0.25 0.35 0  0.275 0.35 0  0.3 0.35 0  0.325 0.35 0  0.35 0.35 0  0.375 0.35 0  0.4 0.35 0  0.425 0.35 0  0.45 0.35 0  0.475 0.35 0  0.5 0.35 0  0.525 0.35 0  0.55 0.35 0  0.575 0.35 0  0.6 0.35 0  0.625 0.35 0  0.65 0.35 0  0.675 0.35 0  0.7 0.35 0  0.725 0.35 0  0.75 0.35 0  0.775 0.35 0  0.8 0.35 0  0.825 0.35 0  0.85 0.35 0  0.875 0.35 0  0.9 0.35 0  0.925 0.35 0  0.95 0.35 0  0.975 0.35 0  1 0.35 0  0 0.375 0  0.025 0.375 0  0.05 0.375 0  0.075 0.375 0  0.1 0.375 0  0.125 0.375 0  0.15 0.375 0  0.175 0.375 0  0.2 0.375 0  0.225 0.375 0  0.25 0.375 0  0.275 0.375 0  0.3 0.375 0  0.325 0.375 0  0.35 0.375 0  0.375 0.375 0  0.4 0.375 0  0.425 0.375 0  0.45 0.375 0  0.475 0.375 0  0.5 0.375 0  0.525 0.375 0  0.55 0.375 0  0.575 0.375 0  0.6 0.375 0  0.625 0.375 0  0.65 0.375 0  0.675 0.375 0  0.7 0.375 0  0.725 0.375 0  0.75 0.375 0  0.775 0.375 0  0.8 0.375 0  0.825 0.375 0  0.85 0.375 0  0.875 0.375 0  0.9 0.375 0  0.925 0.375 0  0.95 0.375 0  0.975 0.375 0  1 0.375 0  0 0.4 0  0.025 0.4 0  0.05 0.4 0  0.075 0.4 0  0.1 0.4 0  0.125 0.4 0  0.15 0.4 0  0.175 0.4 0  0.2 0.4 0  0.225 0.4 0  0.25 0.4 0  0.275 0.4 0  0.3 0.4 0  0.325 0.4 0  0.35 0.4 0  0.375 0.4 0  0.4 0.4 0  0.425 0.4 0  0.45 0.4 0  0.475 0.4 0  0.5 0.4 0  0.525 0.4 0  0.55 0.4 0  0.575 0.4 0  0.6 0.4 0  0.625 0.4 0  0.65 0.4 0  0.675 0.4 0  0.7 0.4 0  0.725 0.4 0  0.75 0.4 0  0.775 0.4 0  0.8 0.4 0  0.825 0.4 0  0.85 0.4 0  0.875 0.4 0  0.9 0.4 0  0.925 0.4 0  0.95 0.4 0  0.975 0.4 0  1 0.4 0  0 0.425 0  0.025 0.425 0  0.05 0.425 0  0.075 0.425 0  0.1 0.425 0  0.125 0.425 0  0.15 0.425 0  0.175 0.425 0  0.2 0.425 0  0.225 0.425 0  0.25 0.425 0  0.275 0.425 0  0.3 0.425 0  0.325 0.425 0  0.35 0.425 0  0.375 0.425 0  0.4 0.425 0  0.425 0.425 0  0.45 0.425 0  0.475 0.425 0  0.5 0.425 0  0.525 0.425 0  0.55 0.425 0  0.575 0.425 0  0.6 0.425 0  0.625 0.425 0  0.65 0.425 0  0.675 0.425 0  0.7 0.425 0  0.725 0.425 0  0.75 0.425 0  0.775 0.425 0  0.8 0.425 0  0.825 0.425 0  0.85 0.425 0  0.875 0.425 0  0.9 0.425 0  0.925 0.425 0  0.95 0.425 0  0.975 0.425 0  1 0.425 0  0 0.45 0  0.02
[...]
<PointData  Scalars="ControlVisualisation"> 
<DataArray  type="Float64"  Name="ControlVisualisation"  format="ascii">6.1420812636236600e-03  4.1097986439335753e-03  4.1319218688219105e-03  4.1657734982469491e-03  4.2057015107658394e-03  4.2464029136314802e-03  4.2837659196784100e-03  4.3152786297620451e-03  4.3398564707479281e-03  4.3574447473118134e-03  4.3686219301073458e-03  4.3742924673471776e-03  4.3754788422984839e-03  4.3731913200563619e-03  4.3683509109271245e-03  4.3617476648706004e-03  4.3540235487731001e-03  4.3456732761616426e-03  4.3370571888445147e-03  4.3284196409722501e-03  4.3199072508777461e-03  4.3115850015206098e-03  4.3034516041120614e-03  4.2954550471155746e-03  4.2875045276029198e-03  4.2794732417408294e-03  4.2711927687530344e-03  4.2624499587128311e-03  4.2529982531955340e-03  4.2425786858032522e-03  4.2309346909005828e-03  4.2178191169007844e-03  4.2030321179903933e-03  4.1865395424802382e-03  4.1686689922835777e-03  4.1502880794587992e-03  4.1328155996940433e-03  4.1179914162498936e-03  4.1074964144938615e-03  4.1021713158245947e-03  1.2219721037690366e-02  4.1102108913925444e-03  2.0688270378067999e-03  2.0940895038748433e-03  2.1352761853141609e-03  2.1869291767828893e-03  2.2422672941470631e-03  2.2952627872900541e-03  2.3415412340753814e-03  2.3785788255019391e-03  2.4054820835843920e-03  2.4225714841177395e-03  2.4309432503362574e-03  2.4320955604836322e-03  2.4276459132041811e-03  2.4191370159382173e-03  2.4079180873962831e-03  2.3950871340873551e-03  2.3814801943600646e-03  2.3676926734156395e-03  2.3541164241171171e-03  2.3409782290856052e-03  2.3283725720857004e-03  2.3162903551929115e-03  2.3046477748009308e-03  2.2933115959124077e-03  2.2821098625762843e-03  2.2708239228038155e-03  2.2591789966554575e-03  2.2468580418609071e-03  2.2335386118559944e-03  2.2189206184842626e-03  2.2027251735860813e-03  2.1847115547384268e-03  2.1647839726089677e-03  2.1432224282499578e-03  2.1209097900334031e-03  2.0993985657169752e-03  2.0807186881397345e-03  2.0668210235508452e-03  2.0585662621585205e-03  4.1021781462010362e-03  4.1370010354388424e-03  2.0985743389630687e-03  2.1334865994891337e-03  2.1831901079250862e-03  2.2452332281448746e-03  2.3114249053929757e-03  2.3744978038338698e-03  2.4291809171321462e-03  2.4723913920303275e-03  2.5029898152566302e-03  2.5213340920820916e-03  2.5287883843966223e-03  2.5272728601836098e-03  2.5188967844487686e-03  2.5056879301808906e-03  2.4894159598844237e-03  2.4715012883964682e-03  2.4529971057796964e-03  2.4346262154138916e-03  2.4168446370534586e-03  2.3999018813954114e-03  2.3838815517997674e-03  2.3687326133468916e-03  2.3543123853517274e-03  2.3404388145065224e-03  2.3269146990636111e-03  2.3134988529675401e-03  2.2998602500745634e-03  2.2855877729152964e-03  2.2702872057591608e-03  2.2536585990295161e-03  2.2354620509150522e-03  2.2154220300814563e-03  2.1932485265617123e-03  2.1689892115151935e-03  2.1434354142324413e-03  2.1183271132863431e-03  2.0960780679500110e-03  2.0789808343622041e-03  2.0671784490788434e-03  4.1076268858623866e-03  4.1922828447876464e-03  2.1624317040251644e-03  2.2092611434920573e-03  2.2587802679958158e-03  2.3177836507072003e-03  2.3786675787513755e-03  2.4348642463043581e-03  2.4819759448680354e-03  2.5176200847209429e-03  2.5410799786400214e-03  2.5529113313943618e-03  2.5545459949793342e-03  2.5479189327569699e-03  2.5351446384382077e-03  2.5182567381241221e-03  2.4990182846797862e-03  2.4788099622692857e-03  2.4586043872932371e-03  2.4390209977465252e-03  2.4204249058608429e-03  2.4030072815156003e-03  2.3868086375294895e-03  2.3717155972216336e-03  2.3575011315773238e-03  2.3439401747964756e-03  2.3308875721193617e-03  2.3182131190762892e-03  2.3056146792908021e-03  2.2925554168470186e-03  2.2785444495790302e-03  2.2634162218891389e-03  2.2472612054218861e-03  2.2299468222149307e-03  2.2108614153874828e-03  2.1893760824670543e-03  2.1657699986424831e-03  2.1413665527089364e-03  2.1181777183146020e-03  2.0988280869900251e-03  2.0827703977925657e-03  4.1192060248235549e-03  4.2941014486232252e-03  2.2848984895372623e-03  2.3590982566438603e-03  2.3992281270326745e-03  2.4435787977969024e-03  2.4878809062531563e-03  2.5273896511383898e-03  2.5588552591093747e-03  2.5804760178144803e-03  2.5916547507132863e-03  2.5928526423481374e-03  2.5853490001259650e-03  2.5709391146227127e-03  2.5516478458324872e-03  2.5294670241354841e-03  2.5061218419513429e-03  2.4829046537541526e-03  2.4606217253238995e-03  2.4396724819307205e-03  2.4202394746147297e-03  2.4024366955828500e-03  2.3863006009817419e-03  2.3716455601069304e-03  2.3580304088220861e-03  2.3450709410942150e-03  2.3327533700764841e-03  2.3213097059137026e-03  2.3105791730529549e-03  2.2996633028558072e-03  2.2876046234771136e-03  2.2744396010252695e-03  2.2611543642993268e-03  2.2484534399867693e-03  2.2357766433909201e-03  2.2205561107375726e-03  2.2021072390790227e-03  2.1809118662850539e-03  2.1594536526600623e-03  2.1384735015130695e-03  2.1091173526762612e-03  4.1372909456616992e-03  4.4567933756798324e-03  2.5828402883743872e-03  2.6824247256344372e-03  2.6659391245179667e-03  2.6576859682900522e-03  2.6590882968499422e-03  2.6636972003029045e-03  2.6675291870508814e-03  2.6670927060888998e-03  2.6601445558605422e-03  2.6461873429820082e-03  2.6259205419360181e-03  2.6007259846713743e-03  2.5724245332605709e-03  2.5429660035359686e-03  2.5140671243038880e-03  2.4869392284801095e-03  2.4621275571815276e-03  2.4395838817496823e-03  2.4191175536436541e-03  2.4007855567002457e-03  2.3848196908523868e-03  2.3710226935905031e-03  2.3584454163512007e-03  2.3461134715203856e-03  2.3342132125986266e-03  2.3239549475767250e-03  2.3161335255721563e-03  2.3092308992817639e-03  2.3000920837979487e-03  2.2888752744476873e-03  2.2790258454503023e-03  2.2751199672792176e-03  2.2785901146759897e-03  2.2811895446072342e-03  2.2811988852429687e-03  2.2783911838194708e-03  2.2695103716340059e-03  2.2235888260981455e-03  2.1326689986992512e-03  4.1362627225820063e-03  5.5211230445686293e-03  3.6749465681094632e-03  3.7301308852396532e-03  3.2897009746892625e-03  3.0582786160448946e-03  2.9304099957028402e-03  2.8575424093536554e-03  2.8144974410494084e-03  2.7815281545801158e-03  2.7488834217239740e-03  2.7142976295474763e-03  2.6770959264310239e-03  2.6375831427698270e-03  2.5972572270359221e-03  2.5581244959289335e-03  2.5220115206390495e-03  2.4901452488665242e-03  2.4626744283988903e-03  2.4386494773090029e-03  2.4169704492611583e-03  2.3976401189062173e-03  2.3816571868570560e-03  2.3695983426433838e-03  2.3597332459735975e-03  2.3486460145864464e-03  2.3366011158207976e-03  2.3276980907929851e-03  2.3272984974533084e-03  2.3332520750261230e-03  2.3358084771230823e-03  2.3375530635453357e-03  2.3522391891158782e-03  2.4047086327269071e-03  2.5167282583304206e-03  2.6561928277570759e-03  2.8190233621598775e-03  3.0042226372743188e-03  3.1588402460871233e-03  3.0550346512576384e-03  2.6506285982384505e-03  4.3147560346483271e-03  7.2081895623136438e-02  4.0311044048661017e-02  1.7695789600458981e-02  6.7867957949100449e-03  4.5531941725815333e-03  3.6485991369907636e-03  3.2255935264466902e-03  3.0493497243614200e-03  2.9445359009855759e-03  2.8665863269535974e-03  2.8021291351179385e-03  2.7420369326209264e-03  2.6829302011454319e-03  2.6262455700301153e-03  2.5741473610364014e-03  2.5285406992719274e-03  2.4908312940029190e-03  2.4612144183085963e-03  2.4373578046724652e-03  2.4151242021569637e-03  2.3944297883272741e-03  2.3788459997419538e-03  2.3731923446156152e-03  2.3750371726667515e-03  2.3740932022462487e-03  2.3728223815849287e-03  2.3876160894190624e-03  2.4507752200484596e-03  2.5815147777954904e-03  2.7553632581855218e-03  3.0022464885248014e-03  3.4398113178411619e-03  4.4027774888405870e-03  7.4194597711829341e-03  2.2594016604691090e-02  7.5672625553654171e-02  1.5622803471883825e-01  2.2182707825692599e-01  2.6696201752506543e-01  2.9291000465588768e-01  1.3976019574377060e-01  5.3954157748567044e-01  4.4838854559193331e-01  3.0201338820812973e-01  1.7530358360367587e-01  5.9891131604624684e-02  1.3417823526185930e-02  5.8305563475817106e-03  4.1332279057118958e-03  3.4461739445760847e-03  3.1197560889246402e-03  2.9591617173983010e-03  2.8461851200577010e-03  2.7489254887475812e-03  2.6652818599398301e-03  2.5945264230793482e-03  2.5361888190324942e-03  2.4920360833553105e-03  2.4650926545826016e-03  2.4510687960948734e-03  2.4377661359510977e-03  2.4276453315777821e-03  2.4352685692607665e-03  2.4912158214422993e-03  2.6164144282499239e-03  2.7908676602789581e-03  3.0400026260854382e-03  3.4857463866763325e-03  4.5278757093689228e-03  8.1194753118565416e-03  2.9089829889645240e-02  1.0465280839753507e-01  2.1115361674228172e-01  3.3199237338372933e-01  4.8031317572027477e-01  6.4101026349051926e-01  7.8709304543974801e-01  9.1374751477032101e-01  9.7596276784288738e-01  9.8973577885610164e-01  9.9434671168610145e-01  9.8972394947350428e-01  7.8218461093392666e-01  7.3760021558378752e-01  6.5067043914973677e-01  5.4428715029122776e-01  4.1555147738773290e-01  2.6586997960649555e-01  1.2261796451863040e-01  3.3553156555817518e-02  9.4766740143795627e-03  5.0290312860424066e-03  3.7599636627730138e-03  3.2350354991719523e-03  2.9666408978130227e-03  2.8045641964110904e-03  2.6938014717157498e-03  2.6189041868127563e-03  2.5822370336417632e-03  2.6070343478677644e-03  2.7083379280157327e-03  2.8652723205697798e-03  3.1125900355598287e-03  3.5623266914175588e-03  4.5745450347003886e-03  7.8681966173277332e-03  2.6241807185785733e-02  9.8562177982469648e-02  1.9242189414570693e-01  3.0632481876366624e-01  4.6145180731423924e-01  6.3137682429050601e-01  7.8143202840167458e-01  9.1383600661492070e-01  9.7768816773532774e-01  9.8977596326894846e-01  9.9349432777038049e-01  9.9524071060222186e-01  9.9632563534347007e-01  9.9716836420122601e-01  9.9786418499775453e-01  9.9835849826106071e-01  9.9675411141249060e-01  8.5382727584306872e-01  8.5377581511875567e-01  8.2225019949394529e-01  7.6950740907523218e-01  6.9625949398692644e-01  5.9649574081020251e-01  4.7467853171319152e-01  3.4088048121501141e-01  2.0041803966285074e-01  8.9494762501055314e-02  2.6465169238444317e-02  8.2106128455780910e-03  4.9139546730832054e-03  4.0362753278312628e-03  3.7679252879424681e-03  3.7930020161233060e-03  4.1310981279091457e-03  5.1438371885881538e-03  8.5319922094874885e-03  2.6086458004937182e-02  9.6862618351801821e-02  2.0027255245287301e-01  3.1000547654719374e-01  4.5037821030727732e-01  6.1093520964553139e-01  7.5825045538934832e-01  8.8781716589408188e-01  9.6975169577742448e-01  9.8727028732191036e-01  9.9207809857490203e-01  9.9409769668348558e-01  9.9521652820623441e-01  9.9602144126150005e-01  9.9667065737016503e-01  9.9717541118561415e-01  9.9757238763948608e-01  9.9791854501934030e-01  9.9825231123712177e-01  9.9857111599660053e-01  9.9882369211623967e-01  9.9785259425099726e-01  7.7410115886486930e-01  7.9847839584941294e-01  8.0997202631383558e-01  8.0484134715248645e-01  7.9200743328404399e-01  7.5957837561760044e-01  7.0430155254923132e-01  6.2500388486182001e-01  5.2135825034319705e-01  4.0989208500282071e-01  3.0849839388065742e-01  2.2027975894492308e-01  1.4561764193274598e-01  9.9158858732906252e-02  9.7600804717597370e-02  1.3755073831658440e-01  2.0527494210046077e-01  3.0584089851552898e-01  4.4274837436988429e-01  5.9593662063821962e-01  7.3943118583817480e-01  8.6577394626685267e-01  9.5953438142561487e-01  9.8472227562417713e-01  9.9093171182708850e-01  9.9335927950428204e-01  9.9462183693679396e-01  9.9547148552677367e-01  9.9614629918043496e-01  9.9664907419091675e-01  9.9699235216818105e-01  9.9722463230471070e-01  9.9738450138316859e-01  9.9749980548985684e-01  9.9759221266245568e-01  9.9768225874690408e-01  9.9779600032740079e-01  9.9796416278854994e-01  9.9819907816134579e-01  9.9844537242165821e-01  9.9741710319637478e-01  5.4263639503951222e-01  5.5157809898338628e-01  6.1314501644141794e-01  6.8034032652163889e-01  7.3705640213491685e-01  7.6141727983398155e-01  7.6057294364041650e-01  7.4576576707878772e-01  7.1395449296733049e-01  6.6512326126295529e-01  6.1089360151379635e-01  5.6863799975935170e-01  5.4898978253778408e-01  5.6197129239888954e-01  6.2305506127169041e-01  7.2307277145556392e-01  8.3424977745458750e-01  9.3673838951267763e-01  9.7916393548790592e-01  9.8897933154455231e-01  9.9236016852389775e-01  9.9398122004836797e-01  9.9496559263138296e-01  9.9571184749971919e-01  9.9627418700219517e-01  9.9664961031309673e-01  9.9688886591150849e-01  9.9703475932139884e-01  9.9711268490659544e-01  9.9713337928085843e-01  9.9709645574041994e-01  9.9699362493445454e-01  9.9681441213713984e-01  9.9655455920357039e-01  9.9623557476117375e-01  9.9591526276408227e-01  9.9563354689249439e-01  9.9542673756650890e-01  9.9549822813780331e-01  9.9561431913625420e-01  9.9312607497453498e-01  2.6238406117767288e-02  1.2978142758774322e-01  2.2881005408714433e-01  3.7161395326011015e-01  5.0868311991401716e-01  6.1296579996893297e-01  6.7606830870029999e-01  7.2059350021003010e-01  7.4690139018609203e-01  7.5378991402292150e-01  7.5749267324548364e-01  7.8022135198159237e-01  8.2673454108400057e-01  9.0189022232665161e-01  9.6629119855339363e-01  9.8570448435163327e-01  9.9120884667204034e-01  9.9349965143264574e-01  9.9481588961924505e-01  9.9566642023173002e-01  9.9619499905231834e-01  9.9651211599529987e-01  9.9669427935895905e-01  9.9678143445473988e-01  9.9678887992001841e-01  9.9671499246311857e-01  9.9654696961100253e-01  9.9626670445523813e-01  9.9586115608027526e-01  9.9535322343331534e-01  9.9470983121055623e-01  9.9373308242773162e-01  9.9206299965376765e-01  9.8859206555159262e-01  9.7875314097165689e-01  9.3852594241754828e-01  8.3188533932290498e-01  6.9174417894510021e-01  5.3593772675081974e-01  3.3892527850208398e-01  2.7610540785587151e-01  4.3806946830811872e-03  2.9559200219425666e-03  4.6036134442553542e-03  1.7073914337301169e-02  1.4436911824271456e-01  2.9803379699022226e-01  4.2272032428234285e-01  5.3946463378167531e-01  6.4523498789809108e-01  7.0771462249449713e-01  7.5211061586622618e-01  8.2617075547593377e-01  9.1890004013176241e-01  9.7461097167787814e-01  9.8895584808163473e-01  9.9308302282454675e-01  9.9479747945644403e-01  9.9563596707350988e-01  9.9604816977980271e-01  9.9621043335968207e-01  9.9619352162931218e-01  9.9601894992385309e-01  9.9568362906302299e-01  9.9519443165825694e-01  9.9456628843591866e-01  9.9368214700702107e-01  9.9225961458568268e-01  9.8954786439608466e-01  9.8270473720229701e-01  9.5846052112077018e-01  8.7897706442745216e-01  7.6348273319411397e-01  6.3052129136622825e-01  4.8827318062692321e-01  3.5263817365661032e-01  2.3342565818462943e-01  1.3453163634290433e-01  4.2810331933288009e-02  8.7255224576111307e-03  3.5219709078726539e-03  4.9511640292938565e-03  4.1310032273287446e-03  2.1523638722867806e-03  2.3560465581494599e-03  2.8325158570089949e-03  4.1085864925478246e-03  9.7936948861973589e-03  8.7821764846769748e-02  2.1396871133784107e-01  3.7364966963152008e-01  5.2578488973793724e-01  6.3801229376802016e-01  7.6267742884821677e-01  9.1644896416488997e-01  9.7491976810319503e-01  9.8913915501932559e-01  9.9254294453902348e-01  9.9367516598528338e-01  9.9399087820893339e-01  9.9386361407304391e-01  9.9334579209238549e-01  9.9229049060479646e-01  9.9035050920737167e-01  9.8603617365376761e-01  9.7309427161011230e-01  9.2657350372746927e-01  8.2638911265057280e-01  7.0690009722854652e-01  5.7376461035370596e-01  4.3246506109286159e-01  3.0499378561726403e-01  1.9886602326259006e-01  1.0420509658254047e-01  3.2153778392849303e-02  9.6448115126168844e-03  5.4316684875514512e-03  4.1397612439941110e-03  3.6313476249106441e-03  3.4219296055517062e-03  3.2580103935699492e-03  2.7836262038070251e-03  4.4471973078562491e-03  4.1051125480801847e-03  2.0839110325914329e-03  2.1788377924889493e-03  2.3674509720025983e-03  2.6889567095626618e-03  3.3341026487407944e-03  5.2148183962204423e-03  1.4299047868834186e-02  8.7880200589056059e-02  3.0122392277885035e-01  5.1314915298471908e-01  6.7576699823384612e-01  8.3686530464806475e-01  9.4214902749138252e-01  9.7099573773309988e-01  9.8003743365432205e-01  9.8067328722245373e-01  9.7364998497909239e-01  9.4823531725723720e-01  8.8053130981691663e-01  7.7521536372750632e-01  6.5294643119086071e-01  5.1889622197106622e-01  3.7950496366535180e-01  2.6468298511912830e-01  1.7008731635565275e-01  6.5895056940507360e-02  1.6818075569234935e-02  6.6711665859975943e-03  4.3978473601564679e-03  3.5922618811891640e-03  3.2291176219414273e-03  3.0676962049243799e-03  2.9963891239683255e-03  2.9399177411386854e-03  2.8978338442708709e-03  2.8751952396676881e-03  2.8533188010296329e-03  2.7968257933301019e-03  2.5887369529093442e-03  4.4704470170917167e-03  4.1149481182643976e-03  2.0864347327124166e-03  2.1671000197147627e-03  2.3259767664088509e-03  2.5845228049520023e-03  2.9988014172584116e-03  3.9314380701901807e-03  7.3596879551485949e-03  6.0920227687397299e-02  2.7199755096886785e-01  5.1188092846933886e-01  6.6198928736617557e-01  7.4033686443628666e-01  8.0072401745003186e-01  8.0216869367358878e-01  7.4881087283548853e-01  6.4371977109607048e-01  4.9971782172618745e-01  3.5515745113235486e-01  2.4427078311454153e-01  1.4194048772230108e-01  4.5884642282404860e-02  1.1469797389472798e-02  5.5467619051324064e-03  3.9636608658585471e-03  3.3646868095759596e-03  3.0596050818022490e-03  2.8983862764041116e-03  2.7996226968197628e-03  2.6981964300727143e-03  2.6391651419649179e-03  2.6144833655745562e-03  2.6161458730180683e-03  2.6366769481571480e-03  2.6608903781056709e-03  2.6779041365130479e-03  2.6861021440919889e-03  2.6837283576625491e-03  2.6628331928432165e-03  2.5384534860955488e-03  4.4572455584378553e-03  4.1598358547530892e-03  2.1395647374972105e-03  2.2279302722988232e-03  2.3790367926029214e-03  2.6267158223533598e-03  3.0681823901427692e-03  4.2199597049831696e-03  1.6573556088907686e-02  2.5325859630551989e-01  4.4564866754146187e-01  5.7795347954901111e-01  6.4603622861207222e-01  6.5020384048904001e-01  5.8388848506301416e-01  4.4512052289243786e-01  2.5437643711164493e-01  1.0023732463640109e-01  2.2026189579117242e-02  6.5619751060398170e-03  4.1554468456970932e-03  3.4114494122335507e-03  3.0780672125655631e-03  2.8961318279632350e-03  2.7592536395069020e-03  2.6419854829245050e-03  2.5751731757179910e-03  2.5448330504400842e-03  2.5343987799967224e-03  2.5382537535936648e-03  2.5374868430439210e-03  2.5354098502738385e-03  2.5376124780767243e-03  2.5462859779665221e-03  2.5594624230676497e-03  2.5725376406734732e-03  2.5818468909065786e-03  2.5859394181514742e-03  2.5842561132222602e-03  2.5733006557455674e-03  2.4761939910331572e-03  4.4194383585207074e-03  4.2307197725769642e-03  2.2343019453446768e-03  2.3465564593296395e-03  2.5015491972761308e-03  2.7742117764741818e-03  3.5234014058287302e-03  6.8811487435988328e-03  1.3280964989226193e-01  4.1519874553542452e-01  5.7163126429342248e-01  6.1504670831720332e-01  5.9004504825777693e-01  5.0617899048211812e-01  3.3817654412759462e-01  1.3106459374796070e-01  1.2294541876791890e-02  4.5326649919328497e-03  3.4388803964376727e-03  3.0525834436796917e-03  2.8086074576593443e-03  2.6782152668373515e-03  2.6124458154800456e-03  2.5791874170529899e-03  2.5584645363835182e-03  2.5354966122703437e-03  2.5165608043634501e-03  2.5050817892180799e-03  2.5000192183929110e-03  2.4982729485506787e-03  2.4960403313091517e-03  2.4937377704761839e-03  2.4932351404549683e-03  2.4953849613488037e-03  2.4994439449600820e-03  2.5037825671723394e-03  2.5068077068992039e-03  2.5076439017792927e-03  2.5060454500364076e-03  2.4989466831112721e-03  2.4197787779973463e-03  4.3824536529032910e-03  4.3215336007976224e-03  2.3672828257487468e-03  2.5228749237817317e-03  2.7034363316256662e-03  3.1765103032820878e-03  4.9920840709971968e-03  7.5882437448304682e-02  3.2816147471012291e-01  5.359993318