<?xml version="1.0"?>
<VTKFile type="UnstructuredGrid"  version="0.1"  >
<UnstructuredGrid>
<Piece  NumberOfPoints="1681" NumberOfCells="3200">
<Points>
<DataArray  type="Float64"  NumberOfComponents="3"  format="ascii">0 0 0  0.025 0 0  0.05 0 0  0.075 0 0  0.1 0 0  0.125 0 0  0.15 0 0  0.175 0 0  0.2 0 0  0.225 0 0  0.25 0 0  0.275 0 0  0.3 0 0  0.325 0 0  0.35 0 0  0.375 0 0  0.4 0 0  0.425 0 0  0.45 0 0  0.475 0 0  0.5 0 0  0.525 0 0  0.55 0 0  0.575 0 0  0.6 0 0  0.625 0 0  0.65 0 0  0.675 0 0  0.7 0 0  0.725 0 0  0.75 0 0  0.775 0 0  0.8 0 0  0.825 0 0  0.85 0 0  0.875 0 0  0.9 0 0  0.925 0 0  0.95 0 0  0.975 0 0  1 0 0  0 0.025 0  0.025 0.025 0  0.05 0.025 0  0.075 0.025 0  0.1 0.025 0  0.125 0.025 0  0.15 0.025 0  0.175 0.025 0  0.2 0.025 0  0.225 0.025 0  0.25 0.025 0  0.275 0.025 0  0.3 0.025 0  0.325 0.025 0  0.35 0.025 0  0.375 0.025 0  0.4 0.025 0  0.425 0.025 0  0.45 0.025 0  0.475 0.025 0  0.5 0.025 0  0.525 0.025 0  0.55 0.025 0  0.575 0.025 0  0.6 0.025 0  0.625 0.025 0  0.65 0.025 0  0.675 0.025 0  0.7 0.025 0  0.725 0.025 0  0.75 0.025 0  0.775 0.025 0  0.8 0.025 0  0.825 0.025 0  0.85 0.025 0  0.875 0.025 0  0.9 0.025 0  0.925 0.025 0  0.95 0.025 0  0.975 0.025 0  1 0.025 0  0 0.05 0  0.025 0.05 0  0.05 0.05 0  0.075 0.05 0  0.1 0.05 0  0.125 0.05 0  0.15 0.05 0  0.175 0.05 0  0.2 0.05 0  0.225 0.05 0  0.25 0.05 0  0.275 0.05 0  0.3 0.05 0  0.325 0.05 0  0.35 0.05 0  0.375 0.05 0  0.4 0.05 0  0.425 0.05 0  0.45 0.05 0  0.475 0.05 0  0.5 0.05 0  0.525 0.05 0  0.55 0.05 0  0.575 0.05 0  0.6 0.05 0  0.625 0.05 0  0.65 0.05 0  0.675 0.05 0  0.7 0.05 0  0.725 0.05 0  0.75 0.05 0  0.775 0.05 0  0.8 0.05 0  0.825 0.05 0  0.85 0.05 0  0.875 0.05 0  0.9 0.05 0  0.925 0.05 0  0.95 0.05 0  0.975 0.05 0  1 0.05 0  0 0.075 0  0.025 0.075 0  0.05 0.075 0  0.075 0.075 0  0.1 0.075 0  0.125 0.075 0  0.15 0.075 0  0.175 0.075 0  0.2 0.075 0  0.225 0.075 0  0.25 0.075 0  0.275 0.075 0  0.3 0.075 0  0.325 0.075 0  0.35 0.075 0  0.375 0.075 0  0.4 0.075 0  0.425 0.075 0  0.45 0.075 0  0.475 0.075 0  0.5 0.075 0  0.525 0.075 0  0.55 0.075 0  0.575 0.075 0  0.6 0.075 0  0.625 0.075 0  0.65 0.075 0  0.675 0.075 0  0.7 0.075 0  0.725 0.075 0  0.75 0.075 0  0.775 0.075 0  0.8 0.075 0  0.825 0.075 0  0.85 0.075 0  0.875 0.075 0  0.9 0.075 0  0.925 0.075 0  0.95 0.075 0  0.975 0.075 0  1 0.075 0  0 0.1 0  0.025 0.1 0  0.05 0.1 0  0.075 0.1 0  0.1 0.1 0  0.125 0.1 0  0.15 0.1 0  0.175 0.1 0  0.2 0.1 0  0.225 0.1 0  0.25 0.1 0  0.275 0.1 0  0.3 0.1 0  0.325 0.1 0  0.35 0.1 0  0.375 0.1 0  0.4 0.1 0  0.425 0.1 0  0.45 0.1 0  0.475 0.1 0  0.5 0.1 0  0.525 0.1 0  0.55 0.1 0  0.575 0.1 0  0.6 0.1 0  0.625 0.1 0  0.65 0.1 0  0.675 0.1 0  0.7 0.1 0  0.725 0.1 0  0.75 0.1 0  0.775 0.1 0  0.8 0.1 0  0.825 0.1 0  0.85 0.1 0  0.875 0.1 0  0.9 0.1 0  0.925 0.1 0  0.95 0.1 0  0.975 0.1 0  1 0.1 0  0 0.125 0  0.025 0.125 0  0.05 0.125 0  0.075 0.125 0  0.1 0.125 0  0.125 0.125 0  0.15 0.125 0  0.175 0.125 0  0.2 0.125 0  0.225 0.125 0  0.25 0.125 0  0.275 0.125 0  0.3 0.125 0  0.325 0.125 0  0.35 0.125 0  0.375 0.125 0  0.4 0.125 0  0.425 0.125 0  0.45 0.125 0  0.475 0.125 0  0.5 0.125 0  0.525 0.125 0  0.55 0.125 0  0.575 0.125 0  0.6 0.125 0  0.625 0.125 0  0.65 0.125 0  0.675 0.125 0  0.7 0.125 0  0.725 0.125 0  0.75 0.125 0  0.775 0.125 0  0.8 0.125 0  0.825 0.125 0  0.85 0.125 0  0.875 0.125 0  0.9 0.125 0  0.925 0.125 0  0.95 0.125 0  0.975 0.125 0  1 0.125 0  0 0.15 0  0.025 0.15 0  0.05 0.15 0  0.075 0.15 0  0.1 0.15 0  0.125 0.15 0  0.15 0.15 0  0.175 0.15 0  0.2 0.15 0  0.225 0.15 0  0.25 0.15 0  0.275 0.15 0  0.3 0.15 0  0.325 0.15 0  0.35 0.15 0  0.375 0.15 0  0.4 0.15 0  0.425 0.15 0  0.45 0.15 0  0.475 0.15 0  0.5 0.15 0  0.525 0.15 0  0.55 0.15 0  0.575 0.15 0  0.6 0.15 0  0.625 0.15 0  0.65 0.15 0  0.675 0.15 0  0.7 0.15 0  0.725 0.15 0  0.75 0.15 0  0.775 0.15 0  0.8 0.15 0  0.825 0.15 0  0.85 0.15 0  0.875 0.15 0  0.9 0.15 0  0.925 0.15 0  0.95 0.15 0  0.975 0.15 0  1 0.15 0  0 0.175 0  0.025 0.175 0  0.05 0.175 0  0.075 0.175 0  0.1 0.175 0  0.125 0.175 0  0.15 0.175 0  0.175 0.175 0  0.2 0.175 0  0.225 0.175 0  0.25 0.175 0  0.275 0.175 0  0.3 0.175 0  0.325 0.175 0  0.35 0.175 0  0.375 0.175 0  0.4 0.175 0  0.425 0.175 0  0.45 0.175 0  0.475 0.175 0  0.5 0.175 0  0.525 0.175 0  0.55 0.175 0  0.575 0.175 0  0.6 0.175 0  0.625 0.175 0  0.65 0.175 0  0.675 0.175 0  0.7 0.175 0  0.725 0.175 0  0.75 0.175 0  0.775 0.175 0  0.8 0.175 0  0.825 0.175 0  0.85 0.175 0  0.875 0.175 0  0.9 0.175 0  0.925 0.175 0  0.95 0.175 0  0.975 0.175 0  1 0.175 0  0 0.2 0  0.025 0.2 0  0.05 0.2 0  0.075 0.2 0  0.1 0.2 0  0.125 0.2 0  0.15 0.2 0  0.175 0.2 0  0.2 0.2 0  0.225 0.2 0  0.25 0.2 0  0.275 0.2 0  0.3 0.2 0  0.325 0.2 0  0.35 0.2 0  0.375 0.2 0  0.4 0.2 0  0.425 0.2 0  0.45 0.2 0  0.475 0.2 0  0.5 0.2 0  0.525 0.2 0  0.55 0.2 0  0.575 0.2 0  0.6 0.2 0  0.625 0.2 0  0.65 0.2 0  0.675 0.2 0  0.7 0.2 0  0.725 0.2 0  0.75 0.2 0  0.775 0.2 0  0.8 0.2 0  0.825 0.2 0  0.85 0.2 0  0.875 0.2 0  0.9 0.2 0  0.925 0.2 0  0.95 0.2 0  0.975 0.2 0  1 0.2 0  0 0.225 0  0.025 0.225 0  0.05 0.225 0  0.075 0.225 0  0.1 0.225 0  0.125 0.225 0  0.15 0.225 0  0.175 0.225 0  0.2 0.225 0  0.225 0.225 0  0.25 0.225 0  0.275 0.225 0  0.3 0.225 0  0.325 0.225 0  0.35 0.225 0  0.375 0.225 0  0.4 0.225 0  0.425 0.225 0  0.45 0.225 0  0.475 0.225 0  0.5 0.225 0  0.525 0.225 0  0.55 0.225 0  0.575 0.225 0  0.6 0.225 0  0.625 0.225 0  0.65 0.225 0  0.675 0.225 0  0.7 0.225 0  0.725 0.225 0  0.75 0.225 0  0.775 0.225 0  0.8 0.225 0  0.825 0.225 0  0.85 0.225 0  0.875 0.225 0  0.9 0.225 0  0.925 0.225 0  0.95 0.225 0  0.975 0.225 0  1 0.225 0  0 0.25 0  0.025 0.25 0  0.05 0.25 0  0.075 0.25 0  0.1 0.25 0  0.125 0.25 0  0.15 0.25 0  0.175 0.25 0  0.2 0.25 0  0.225 0.25 0  0.25 0.25 0  0.275 0.25 0  0.3 0.25 0  0.325 0.25 0  0.35 0.25 0  0.375 0.25 0  0.4 0.25 0  0.425 0.25 0  0.45 0.25 0  0.475 0.25 0  0.5 0.25 0  0.525 0.25 0  0.55 0.25 0  0.575 0.25 0  0.6 0.25 0  0.625 0.25 0  0.65 0.25 0  0.675 0.25 0  0.7 0.25 0  0.725 0.25 0  0.75 0.25 0  0.775 0.25 0  0.8 0.25 0  0.825 0.25 0  0.85 0.25 0  0.875 0.25 0  0.9 0.25 0  0.925 0.25 0  0.95 0.25 0  0.975 0.25 0  1 0.25 0  0 0.275 0  0.025 0.275 0  0.05 0.275 0  0.075 0.275 0  0.1 0.275 0  0.125 0.275 0  0.15 0.275 0  0.175 0.275 0  0.2 0.275 0  0.225 0.275 0  0.25 0.275 0  0.275 0.275 0  0.3 0.275 0  0.325 0.275 0  0.35 0.275 0  0.375 0.275 0  0.4 0.275 0  0.425 0.275 0  0.45 0.275 0  0.475 0.275 0  0.5 0.275 0  0.525 0.275 0  0.55 0.275 0  0.575 0.275 0  0.6 0.275 0  0.625 0.275 0  0.65 0.275 0  0.675 0.275 0  0.7 0.275 0  0.725 0.275 0  0.75 0.275 0  0.775 0.275 0  0.8 0.275 0  0.825 0.275 0  0.85 0.275 0  0.875 0.275 0  0.9 0.275 0  0.925 0.275 0  0.95 0.275 0  0.975 0.275 0  1 0.275 0  0 0.3 0  0.025 0.3 0  0.05 0.3 0  0.075 0.3 0  0.1 0.3 0  0.125 0.3 0  0.15 0.3 0  0.175 0.3 0  0.2 0.3 0  0.225 0.3 0  0.25 0.3 0  0.275 0.3 0  0.3 0.3 0  0.325 0.3 0  0.35 0.3 0  0.375 0.3 0  0.4 0.3 0  0.425 0.3 0  0.45 0.3 0  0.475 0.3 0  0.5 0.3 0  0.525 0.3 0  0.55 0.3 0  0.575 0.3 0  0.6 0.3 0  0.625 0.3 0  0.65 0.3 0  0.675 0.3 0  0.7 0.3 0  0.725 0.3 0  0.75 0.3 0  0.775 0.3 0  0.8 0.3 0  0.825 0.3 0  0.85 0.3 0  0.875 0.3 0  0.9 0.3 0  0.925 0.3 0  0.95 0.3 0  0.975 0.3 0  1 0.3 0  0 0.325 0  0.025 0.325 0  0.05 0.325 0  0.075 0.325 0  0.1 0.325 0  0.125 0.325 0  0.15 0.325 0  0.175 0.325 0  0.2 0.325 0  0.225 0.325 0  0.25 0.325 0  0.275 0.325 0  0.3 0.325 0  0.325 0.325 0  0.35 0.325 0  0.375 0.325 0  0.4 0.325 0  0.425 0.325 0  0.45 0.325 0  0.475 0.325 0  0.5 0.325 0  0.525 0.325 0  0.55 0.325 0  0.575 0.325 0  0.6 0.325 0  0.625 0.325 0  0.65 0.325 0  0.675 0.325 0  0.7 0.325 0  0.725 0.325 0  0.75 0.325 0  0.775 0.325 0  0.8 0.325 0  0.825 0.325 0  0.85 0.325 0  0.875 0.325 0  0.9 0.325 0  0.925 0.325 0  0.95 0.325 0  0.975 0.325 0  1 0.325 0  0 0.35 0  0.025 0.35 0  0.05 0.35 0  0.075 0.35 0  0.1 0.35 0  0.125 0.35 0  0.15 0.35 0  0.175 0.35 0  0.2 0.35 0  0.225 0.35 0  0.25 0.35 0  0.275 0.35 0  0.3 0.35 0  0.325 0.35 0  0.35 0.35 0  0.375 0.35 0  0.4 0.35 0  0.425 0.35 0  0.45 0.35 0  0.475 0.35 0  0.5 0.35 0  0.525 0.35 0  0.55 0.35 0  0.575 0.35 0  0.6 0.35 0  0.625 0.35 0  0.65 0.35 0  0.675 0.35 0  0.7 0.35 0  0.725 0.35 0  0.75 0.35 0  0.775 0.35 0  0.8 0.35 0  0.825 0.35 0  0.85 0.35 0  0.875 0.35 0  0.9 0.35 0  0.925 0.35 0  0.95 0.35 0  0.975 0.35 0  1 0.35 0  0 0.375 0  0.025 0.375 0  0.05 0.375 0  0.075 0.375 0  0.1 0.375 0  0.125 0.375 0  0.15 0.375 0  0.175 0.375 0  0.2 0.375 0  0.225 0.375 0  0.25 0.375 0  0.275 0.375 0  0.3 0.375 0  0.325 0.375 0  0.35 0.375 0  0.375 0.375 0  0.4 0.375 0  0.425 0.375 0  0.45 0.375 0  0.475 0.375 0  0.5 0.375 0  0.525 0.375 0  0.55 0.375 0  0.575 0.375 0  0.6 0.375 0  0.625 0.375 0  0.65 0.375 0  0.675 0.375 0  0.7 0.375 0  0.725 0.375 0  0.75 0.375 0  0.775 0.375 0  0.8 0.375 0  0.825 0.375 0  0.85 0.375 0  0.875 0.375 0  0.9 0.375 0  0.925 0.375 0  0.95 0.375 0  0.975 0.375 0  1 0.375 0  0 0.4 0  0.025 0.4 0  0.05 0.4 0  0.075 0.4 0  0.1 0.4 0  0.125 0.4 0  0.15 0.4 0  0.175 0.4 0  0.2 0.4 0  0.225 0.4 0  0.25 0.4 0  0.275 0.4 0  0.3 0.4 0  0.325 0.4 0  0.35 0.4 0  0.375 0.4 0  0.4 0.4 0  0.425 0.4 0  0.45 0.4 0  0.475 0.4 0  0.5 0.4 0  0.525 0.4 0  0.55 0.4 0  0.575 0.4 0  0.6 0.4 0  0.625 0.4 0  0.65 0.4 0  0.675 0.4 0  0.7 0.4 0  0.725 0.4 0  0.75 0.4 0  0.775 0.4 0  0.8 0.4 0  0.825 0.4 0  0.85 0.4 0  0.875 0.4 0  0.9 0.4 0  0.925 0.4 0  0.95 0.4 0  0.975 0.4 0  1 0.4 0  0 0.425 0  0.025 0.425 0  0.05 0.425 0  0.075 0.425 0  0.1 0.425 0  0.125 0.425 0  0.15 0.425 0  0.175 0.425 0  0.2 0.425 0  0.225 0.425 0  0.25 0.425 0  0.275 0.425 0  0.3 0.425 0  0.325 0.425 0  0.35 0.425 0  0.375 0.425 0  0.4 0.425 0  0.425 0.425 0  0.45 0.425 0  0.475 0.425 0  0.5 0.425 0  0.525 0.425 0  0.55 0.425 0  0.575 0.425 0  0.6 0.425 0  0.625 0.425 0  0.65 0.425 0  0.675 0.425 0  0.7 0.425 0  0.725 0.425 0  0.75 0.425 0  0.775 0.425 0  0.8 0.425 0  0.825 0.425 0  0.85 0.425 0  0.875 0.425 0  0.9 0.425 0  0.925 0.425 0  0.95 0.425 0  0.975 0.425 0  1 0.425 0  0 0.45 0  0.02
[...]
<PointData  Scalars="ControlVisualisation"> 
<DataArray  type="Float64"  Name="ControlVisualisation"  format="ascii">4.6243556142764897e-01  4.4783174345077875e-01  4.4783665338003581e-01  4.4797515519141945e-01  4.4827749716078058e-01  4.4869384670107082e-01  4.4914754945362434e-01  4.4957344273833100e-01  4.4993318275832306e-01  4.5021348703251324e-01  4.5041770260996428e-01  4.5055746437395183e-01  4.5064692789788202e-01  4.5069959004974158e-01  4.5072691606288545e-01  4.5073799901021372e-01  4.5073971219050435e-01  4.5073703905863527e-01  4.5073341869120787e-01  4.5073103379294666e-01  4.5073101376102653e-01  4.5073354535373844e-01  4.5073789015721749e-01  4.5074230877609173e-01  4.5074389151635952e-01  4.5073829892804751e-01  4.5071942907765011e-01  4.5067906222503723e-01  4.5060660236606365e-01  4.5048916168977704e-01  4.5031243453686581e-01  4.5006304204901221e-01  4.4973323149183325e-01  4.4932836071381044e-01  4.4887590737627281e-01  4.4843161649395058e-01  4.4807161434194803e-01  4.4786332369148996e-01  4.4781600646938341e-01  4.4784591474889590e-01  4.7704981033846644e-01  4.4782907146646683e-01  4.0441502413552338e-01  4.0515366673052050e-01  4.0719767660669315e-01  4.1076231051746487e-01  4.1540026553044562e-01  4.2037937554812699e-01  4.2506221231826369e-01  4.2906262715088156e-01  4.3223683519899336e-01  4.3460717427376921e-01  4.3628321399173275e-01  4.3740506208674601e-01  4.3811051652068439e-01  4.3851967004432313e-01  4.3873000240831017e-01  4.3881683032764257e-01  4.3883595679763965e-01  4.3882679912605260e-01  4.3881515744569949e-01  4.3881526560641443e-01  4.3883099763374112e-01  4.3885619645188678e-01  4.3887411943756754e-01  4.3885600681666137e-01  4.3875881662180705e-01  4.3852228615444022e-01  4.3806575538314796e-01  4.3728573710571156e-01  4.3605622196972449e-01  4.3423526045840954e-01  4.3168345415887510e-01  4.2830185240456897e-01  4.2409468926894039e-01  4.1925367944611108e-01  4.1423058855933287e-01  4.0971599336938186e-01  4.0643863669341829e-01  4.0473950053565527e-01  4.0429345057383759e-01  4.4784560244754512e-01  4.4780484376667207e-01  4.0508716559163643e-01  4.0839760817985571e-01  4.1454245609681434e-01  4.2351647862447539e-01  4.3432591490568090e-01  4.4548252563756746e-01  4.5574847839476684e-01  4.6441833947513456e-01  4.7126633157270831e-01  4.7638071644313190e-01  4.8000900248028067e-01  4.8245113482956770e-01  4.8399842209066118e-01  4.8490483335164158e-01  4.8537771785043460e-01  4.8557861991550444e-01  4.8562838437014838e-01  4.8561330154537685e-01  4.8559064208104324e-01  4.8559283351972365e-01  4.8562998658200646e-01  4.8569067830879747e-01  4.8574097092510049e-01  4.8572168011460654e-01  4.8554398320701547e-01  4.8508366843323697e-01  4.8417480553142073e-01  4.8260455179976602e-01  4.8011248639218962e-01  4.7640045271016496e-01  4.7116273867908165e-01  4.6414990743644025e-01  4.5528034319803196e-01  4.4480401888399068e-01  4.3346933660293824e-01  4.2257340601445120e-01  4.1364523754235133e-01  4.0763436122233004e-01  4.0466102469392462e-01  4.4780582213364239e-01  4.4784752790688220e-01  4.0713572641316709e-01  4.1551272275995738e-01  4.2711355052900185e-01  4.4084706270695834e-01  4.5551101039012132e-01  4.6958588319535066e-01  4.8193436598606182e-01  4.9201412932938388e-01  4.9976356923915882e-01  5.0540738373728245e-01  5.0929894905471684e-01  5.1181946552711921e-01  5.1332317258400895e-01  5.1411310784475062e-01  5.1443475891262136e-01  5.1447892480495028e-01  5.1438838859968994e-01  5.1426532123541380e-01  5.1417781209833591e-01  5.1416477820382911e-01  5.1423895079247350e-01  5.1438783942695587e-01  5.1457264759684374e-01  5.1472514831166427e-01  5.1474260071061895e-01  5.1448098688514177e-01  5.1374729290144605e-01  5.1229240465253134e-01  5.0980769012985838e-01  5.0593060887904551e-01  5.0026834651222618e-01  4.9245179855362270e-01  4.8223827556138388e-01  4.6967264474264087e-01  4.5528647967455343e-01  4.4024680827234092e-01  4.2609008122429126e-01  4.1417050204086525e-01  4.0612402465140651e-01  4.4779379121617885e-01  4.4800873952157583e-01  4.1172238690621260e-01  4.3063612977388782e-01  4.5056729225468412e-01  4.6838490691620871e-01  4.8389962702498618e-01  4.9698655014962784e-01  5.0751777932577757e-01  5.1556273504049732e-01  5.2137796018499660e-01  5.2532225873736238e-01  5.2778269928702803e-01  5.2912710469284863e-01  5.2967912407806139e-01  5.2970870543610760e-01  5.2943195525615216e-01  5.2901594319947298e-01  5.2858544111588812e-01  5.2822973362090875e-01  5.2800846108161659e-01  5.2795598292191137e-01  5.2808404545446175e-01  5.2838267945520345e-01  5.2881930613953609e-01  5.2933605388447313e-01  5.2984533470633133e-01  5.3022385528850635e-01  5.3030550780407293e-01  5.2987406506774826e-01  5.2865739005917933e-01  5.2632584776245883e-01  5.2249923601771664e-01  5.1676703081988173e-01  5.0873151713850528e-01  4.9806887934975974e-01  4.8462008320656230e-01  4.6841029588756677e-01  4.4949939922882798e-01  4.2847501544794842e-01  4.0988358993474222e-01  4.4786847549500336e-01  4.4843059285896048e-01  4.2459175298748220e-01  4.6498866170435971e-01  4.9645542782967789e-01  5.1512300791430099e-01  5.2617334926025128e-01  5.3305946879156041e-01  5.3742385520243308e-01  5.4005318771359889e-01  5.4139660089669694e-01  5.4177420025731815e-01  5.4144855651232893e-01  5.4064526560229420e-01  5.3955710579041760e-01  5.3834459812636826e-01  5.3713723433500238e-01  5.3603609281358744e-01  5.3511735113404968e-01  5.3443598493043221e-01  5.3402908406833005e-01  5.3391842459430305e-01  5.3411210159988409e-01  5.3460513494485806e-01  5.3537902246849545e-01  5.3640026043767830e-01  5.3761790596093906e-01  5.3896034480272870e-01  5.4033155901528562e-01  5.4160733075826950e-01  5.4263185398100133e-01  5.4321471381633557e-01  5.4312685860160215e-01  5.4208869553937811e-01  5.3973672567271280e-01  5.3551908873059828e-01  5.2846668496234994e-01  5.1656151830488994e-01  4.9597165455905706e-01  4.6124788286756913e-01  4.1879559780850378e-01  4.4793942001464587e-01  4.5852274348740274e-01  4.7496477644915824e-01  5.4773144623629344e-01  5.8184066774600407e-01  5.8972317659840268e-01  5.8654487715771519e-01  5.8001576966574420e-01  5.7322419988396667e-01  5.6709151053693796e-01  5.6173955874920611e-01  5.5707128032794351e-01  5.5297092281744165e-01  5.4935656431448621e-01  5.4618263227873443e-01  5.4342953505359204e-01  5.4109297533941603e-01  5.3917619663761784e-01  5.3768522902731819e-01  5.3662634169476831e-01  5.3600487870914204e-01  5.3582485592865103e-01  5.3608891984083606e-01  5.3679845628326173e-01  5.3795378958343287e-01  5.3955455147559050e-01  5.4160044844746602e-01  5.4409283353599269e-01  5.4703768605530567e-01  5.5045074479485578e-01  5.5436535481919746e-01  5.5884235767793511e-01  5.6397744988594500e-01  5.6988912044283957e-01  5.7664553555084141e-01  5.8400966331537074e-01  5.9080804714242419e-01  5.9350258074895101e-01  5.8428247364698116e-01  5.4670162117524457e-01  4.6431547173840332e-01  4.5032482816326724e-01  5.8717156132497517e-01  6.6241382801835003e-01  7.1003596524000989e-01  7.1165050843981315e-01  6.9093455189509179e-01  6.6253178209144614e-01  6.3546492620469242e-01  6.1308879101211711e-01  5.9554375078460520e-01  5.8194314599163799e-01  5.7132483390379440e-01  5.6292321205669449e-01  5.5619057003082129e-01  5.5075187798735648e-01  5.4635478307254759e-01  5.4283033873423048e-01  5.4006551526046720e-01  5.3798497700085712e-01  5.3653940130525768e-01  5.3569822891038565e-01  5.3544540534438623e-01  5.3577721876029827e-01  5.3670175967710909e-01  5.3823986823222192e-01  5.4042774916569813e-01  5.4332177814496418e-01  5.4700644660372821e-01  5.5160693182341647e-01  5.5730840186843200e-01  5.6438459363327442e-01  5.7323746683182031e-01  5.8444450491329292e-01  5.9879138618982963e-01  6.1721451458793619e-01  6.4043057356170741e-01  6.6788320906465914e-01  6.9570871866535522e-01  7.1567679865274292e-01  7.1290362277430541e-01  6.8757584120412241e-01  5.2623336041096669e-01  8.2057509008792617e-01  9.0095439215795792e-01  8.7336985938567147e-01  8.4334623415104681e-01  7.9645505272462591e-01  7.4152571845990134e-01  6.9170823602575304e-01  6.5213186940445911e-01  6.2231310360576420e-01  6.0011302758196206e-01  5.8346907110065738e-01  5.7081719566106615e-01  5.6106390346864632e-01  5.5346583936030491e-01  5.4752090063003478e-01  5.4288925543126154e-01  5.3934022933173209e-01  5.3671766526961151e-01  5.3491770130281069e-01  5.3387479576332586e-01  5.3355333523588067e-01  5.3394323107137531e-01  5.3505867228606507e-01  5.3693979389650859e-01  5.3965755945616234e-01  5.4332275486064319e-01  5.4810076345461145e-01  5.5423486484457896e-01  5.6208225412584478e-01  5.7216862790840850e-01  5.8526770994042143e-01  6.0250613595914571e-01  6.2546496676120478e-01  6.5614521462401143e-01  6.9638713331502777e-01  7.4593592904433048e-01  7.9890766758528731e-01  8.4459453439306198e-01  8.7083611637691538e-01  9.1035034124283842e-01  7.8601970797953014e-01  9.0245990083906280e-01  9.5617940801081214e-01  9.3873580360208297e-01  9.2170582880643770e-01  8.7405910313353929e-01  8.0495701473417314e-01  7.3780587150460886e-01  6.8374665208094942e-01  6.4335280446784882e-01  6.1376237199980510e-01  5.9199337006381847e-01  5.7576804880502952e-01  5.6350161283215139e-01  5.5412289009258886e-01  5.4691097709092840e-01  5.4137855430678727e-01  5.3719462633054826e-01  5.3413470522112683e-01  5.3204905565576943e-01  5.3084275759898047e-01  5.3046370105118723e-01  5.3089623008306208e-01  5.3215925395490493e-01  5.3430847434837048e-01  5.3744312689106843e-01  5.4171847103504400e-01  5.4736636754383639e-01  5.5472787336690332e-01  5.6430406017663326e-01  5.7683409700467814e-01  5.9341123234823501e-01  6.1563970527956757e-01  6.4578995829900987e-01  6.8673571703940461e-01  7.4096856600618843e-01  8.0712921575332608e-01  8.7377233846340607e-01  9.2215156895099359e-01  9.4343981465905924e-01  9.5595242723376095e-01  8.9398465936095439e-01  9.1597964569634327e-01  9.6733266784385785e-01  9.5693694314933797e-01  9.4798209217897456e-01  9.0889594998393708e-01  8.3885212174865065e-01  7.6414905398568111e-01  7.0192086881123172e-01  6.5499794277026102e-01  6.2066434252163394e-01  5.9554465220616992e-01  5.7696047397364703e-01  5.6302660697694873e-01  5.5246363113722063e-01  5.4440866685365841e-01  5.3827731805116097e-01  5.3367180643360035e-01  5.3032170033529802e-01  5.2804612808040319e-01  5.2673002985262063e-01  5.2630982104955515e-01  5.2676575517517166e-01  5.2811958011573767e-01  5.3043705870684399e-01  5.3383579862303110e-01  5.3849980998915192e-01  5.4470350095017595e-01  5.5284969229056347e-01  5.6352892505808827e-01  5.7761066386283944e-01  5.9637863474561359e-01  6.2171192952413190e-01  6.5625143732904057e-01  7.0325835205092913e-01  7.6520137926461707e-01  8.3898490717984620e-01  9.0797199885243263e-01  9.4752571963230858e-01  9.5760120965817619e-01  9.6727814664300182e-01  9.1525657516888748e-01  8.9393876257586702e-01  9.5725093549559226e-01  9.4850507145460350e-01  9.3919955091192053e-01  9.0387161974803953e-01  8.3904332720191466e-01  7.6615792076356348e-01  7.0340323191208132e-01  6.5520355539817376e-01  6.1958349452404149e-01  5.9338850727565418e-01  5.7396576810006572e-01  5.5939891969104893e-01  5.4836716400656282e-01  5.3996998225504189e-01  5.3359224839335140e-01  5.2881226594524700e-01  5.2534158399134201e-01  5.2298624609858191e-01  5.2162224621604225e-01  5.2118060980104919e-01  5.2163938247706054e-01  5.2302110249531819e-01  5.2539530894802278e-01  5.2888650947783555e-01  5.3368899312322726e-01  5.4009113239327899e-01  5.4851360589224518e-01  5.5956846188905596e-01  5.7414877071809423e-01  5.9355900438771370e-01  6.1968242380482697e-01  6.5511203603486923e-01  7.0292427813577851e-01  7.6509608843495536e-01  8.3763351732545477e-01  9.0320220541378982e-01  9.3758921975815901e-01  9.4384740060809214e-01  9.5761274454426115e-01  9.0280632164386843e-01  7.8616230800309261e-01  9.1726908227002768e-01  8.9775011460256826e-01  8.9414228099539139e-01  8.6391059186630503e-01  8.0865701839869231e-01  7.4507831109668299e-01  6.8865259815771052e-01  6.4417831367737788e-01  6.1065735789802922e-01  5.8564221875025546e-01  5.6689472590761147e-01  5.5272649203973190e-01  5.4193976825676138e-01  5.3370021034305903e-01  5.2742816060864950e-01  5.2272076033925885e-01  5.1929935655376724e-01  5.1697487428817479e-01  5.1562551166387782e-01  5.1518300203052947e-01  5.1562514878773746e-01  5.1697340482398613e-01  5.1929509565134746e-01  5.2271062897764242e-01  5.2740684002800231e-01  5.3365863999432317e-01  5.4186250532899771e-01  5.5258708588887129e-01  5.6664771792479174e-01  5.8520989918555133e-01  6.0991057182080710e-01  6.4291920542794723e-01  6.8664549609941772e-01  7.4227524886780627e-01  8.0578858679193444e-01  8.6260240272704691e-01  8.9318720175059840e-01  8.9965161174256614e-01  9.0944354720973786e-01  8.2129515998056213e-01  5.3285114550706791e-01  7.3360319732941104e-01  7.8920080932526893e-01  8.1077892579102873e-01  7.9580752275716371e-01  7.5589513065214564e-01  7.0687362952031241e-01  6.6139778318290565e-01  6.2419963562964587e-01  5.9530822370071612e-01  5.7323027979835983e-01  5.5637664389727748e-01  5.4345860371454513e-01  5.3351789833269680e-01  5.2586345120510458e-01  5.2000202037711085e-01  5.1558339727706581e-01  5.1236118953340126e-01  5.1016595036176993e-01  5.0888735846123145e-01  5.0846300143483869e-01  5.0887217410996877e-01  5.1013380716031487e-01  5.1230822277708488e-01  5.1550294620995585e-01  5.1988336253504364e-01  5.2568966621407576e-01  5.3326233258228795e-01  5.4307909191884363e-01  5.5580630783694485e-01  5.7236381520358726e-01  5.9398520900587204e-01  6.2219814677037388e-01  6.5848727769434512e-01  7.0306187515154839e-01  7.5191767706982771e-01  7.9312538710419056e-01  8.0936632965317268e-01  7.8871606717343001e-01  7.0803224784004792e-01  5.9207112075294710e-01  4.5480591152018091e-01  5.2101635942495372e-01  6.5585616108031386e-01  7.0985119963541021e-01  7.1491259028329113e-01  6.9297585235710846e-01  6.6013137781727094e-01  6.2718648860077686e-01  5.9876281811357412e-01  5.7576086229138856e-01  5.5760830077106949e-01  5.4339748962460499e-01  5.3228882251701337e-01  5.2360900691745971e-01  5.1684629366289070e-01  5.1162077608887635e-01  5.0765437976407313e-01  5.0474676605121083e-01  5.0275760807598491e-01  5.0159425114227307e-01  5.0120367414427003e-01  5.0156793055323345e-01  5.0270257145839026e-01  5.0465786589548067e-01  5.0752293274059079e-01  5.1143319626899486e-01  5.1658187113135223e-01  5.2323640408578931e-01  5.3176068113056685e-01  5.4264248928160130e-01  5.5652064450951888e-01  5.7419021041643437e-01  5.9651918056818842e-01  6.2409950583154350e-01  6.5625377492585568e-01  6.8892226165640624e-01  7.1190338577931589e-01  7.0835498662198759e-01  6.5555620513455570e-01  5.2974737867028399e-01  4.6440066710285666e-01  4.5086760225100825e-01  4.6190502811414347e-01  5.6438468599907743e-01  6.2317919286113244e-01  6.4004919923900816e-01  6.3224076662876016e-01  6.1316211559329248e-01  5.9151926869588978e-01  5.7147226061243916e-01  5.5439763404560904e-01  5.4038341121193822e-01  5.2907089673515284e-01  5.2001266246341438e-01  5.1280025328271461e-01  5.0709739528501463e-01  5.0264004767731385e-01  4.9922670683802556e-01  4.9670752796683582e-01  4.9497500393414040e-01  4.9395686480583595e-01  4.9361117495584939e-01  4.9392343929387272e-01  4.9490555463166819e-01  4.9659653001583720e-01  4.9906500024342204e-01  5.0241363826737195e-01  5.0678558696902865e-01  5.1237286506896496e-01  5.1942606392105983e-01  5.2826278684086259e-01  5.3926725336963055e-01  5.5286049492960376e-01  5.6938885737315259e-01  5.8881009406116458e-01  6.0994751617827581e-01  6.2905601811010370e-01  6.3794530433864138e-01  6.2306757850642724e-01  5.6712049234842110e-01  4.6904195592275283e-01  4.5172519826860441e-01  4.5046895556660965e-01  4.4578691438116480e-01  5.1680845757601912e-01  5.6329083583113815e-01  5.8149017311819962e-01  5.8123059084920592e-01  5.7149716994359323e-01  5.5838200959474782e-01  5.4515609198399206e-01  5.3321736445113133e-01  5.2297855881306354e-01  5.1442559329078197e-01  5.0738947011869562e-01  5.0166615264185466e-01  4.9706376218584708e-01  4.9341860797629394e-01  4.9059833917344337e-01  4.8850030618276447e-01  4.8704854400604730e-01  4.8619081641002493e-01  4.8589629406788287e-01  4.8615407431216712e-01  4.8697260181051755e-01  4.8837999220910816e-01  4.9042522842960040e-01  4.9318014319078107e-01  4.9674196001203680e-01  5.0123582610074857e-01  5.0681599445343184e-01  5.1366255784051129e-01  5.2196665899329753e-01  5.3188811876890263e-01  5.4344993553002163e-01  5.5629669604939913e-01  5.6919352670570433e-01  5.7915171133773691e-01  5.8034917473252123e-01  5.6370174695364861e-01  5.1893406745692228e-01  4.4854638311505918e-01  4.5083610897387566e-01  4.5000031679601005e-01  4.3630282652263153e-01  4.8862127525882598e-01  5.2356562052635280e-01  5.3899500959506774e-01  5.4162746431059028e-01  5.3724540414500432e-01  5.2977379580351569e-01  5.2150145083440302e-01  5.1356389565870852e-01  5.0643768961028923e-01  5.0026748925618147e-01  4.9504469736500878e-01  4.9069852612533771e-01  4.8713954908413148e-01  4.8427996471885287e-01  4.8204239838833635e-01  4.8036323446621798e-01  4.7919341977645419e-01  4.7849822673527787e-01  4.7825672115357998e-01  4.7846130191574626e-01  4.7911747696576118e-01  4.8024391945583411e-01  4.8187275246140659e-01  4.8404989535509402e-01  4.8683511738374691e-01  4.9030110137137306e-01  4.9453016753532120e-01  4.9960602787520131e-01  5.0559536727627874e-01  5.1250880205316873e-01  5.2022038872439569e-01  5.2830674611666684e-01  5.3574574072505887e-01  5.4042552509872255e-01  5.3854593578724919e-01  5.2429553104796500e-01  4.9063330979186404e-01  4.3859303398658539e-01  4.5028864984604866e-01  4.4962879965503694e-01  4.2997116106137145e-01  4.7033032455705437e-01  4.9656590030638270e-01  5.0857371182074940e-01  5.1181134285010454e-01  5.1016112624956778e-01  5.0611977446132372e-01  5.0117284656474959e-01  4.9612661371807465e-01  4.9138604801791247e-01  4.8713183923155717e-01  4.8342568933812169e-01  4.8026908460012280e-01  4.7763536935636264e-01  4.7548728866944662e-01  4.7378642061212395e-01  4.7249814144262414e-01  4.7159411927090727e-01  4.7105347763768735e-01  4.7086327410030610e-01  4.7101865160869522e-01  4.7152284126664901e-01  4.7238707167557686e-01  4.7363033503620183e-01  4.7527884272001997e-01  4.7736483924816075e-01  4.7992418612321347e-01  4.8299169699790856e-01  4.8659245426125081e-01  4.9072596091194182e-01  4.9533735916648758e-01  5.0026494878263694e-01  5.0514451059428966e-01  5.0923933334718430e-01  5.1116030602774531e-01  5.0846554507141961e-01  4.9718089608120480e-01  4.7171228555266398e-01  4.3153134398168647e-01  4.4986338508768536e-01  4.4930638057703876e-01  4.2499895933789450e-01  4.5682817133965214e-01  4.7703247335188187e-01  4.8633673021074270e-01  4.8936909781435095e-01  4.8902926542567443e-01  4.8697931222406160e-01  4.8415967841129570e-01  4.8110080585604398e-01  4.7809707227140413e-01  4.7530548057626942e-01  4.7280351521833003e-01  4.7062261957408169e-01  4.6876837949317685e-01  4.6723285667318748e-01  4.6600214446485066e-01  4.6506097092976950e-01  4.6439544702427255e-01  4.6399466079054885e-01  4.6385155507155751e-01  4.6396335375210024e-01  4.6433167857211410e-01  4.6496240408408568e-01  4.6586521401041991e-01  4.6705273235057643e-01  4.6853899070463945e-01  4.7033683948874833e-01  4.7245368534131843e-01  4.7488458323444888e-01  4.7760109812921792e-01  4.8053315561894655e-01  4.8353858199323585e-01  4.8634971354621664e-01  4.8847600351206449e-01  4.8902335370426364e-01  4.8636151705045921e-01  4.7754747167026312e-01  4.5786172169729139e-01  4.2618833238398768e-01  4.4950419549465670e-01  4.4903397628367769e-01  4.2103201149049163e-01  4.4648227053486100e-01  4.6235767308743075e-01  4.6962045809500075e-01  4.7224302221158165e-01  4.7251724798345601e-01  4.7160616534031963e-01  4.701160280