<?xml version="1.0"?>
<VTKFile type="UnstructuredGrid"  version="0.1"  >
<UnstructuredGrid>
<Piece  NumberOfPoints="1681" NumberOfCells="3200">
<Points>
<DataArray  type="Float64"  NumberOfComponents="3"  format="ascii">0 0 0  0.025 0 0  0.05 0 0  0.075 0 0  0.1 0 0  0.125 0 0  0.15 0 0  0.175 0 0  0.2 0 0  0.225 0 0  0.25 0 0  0.275 0 0  0.3 0 0  0.325 0 0  0.35 0 0  0.375 0 0  0.4 0 0  0.425 0 0  0.45 0 0  0.475 0 0  0.5 0 0  0.525 0 0  0.55 0 0  0.575 0 0  0.6 0 0  0.625 0 0  0.65 0 0  0.675 0 0  0.7 0 0  0.725 0 0  0.75 0 0  0.775 0 0  0.8 0 0  0.825 0 0  0.85 0 0  0.875 0 0  0.9 0 0  0.925 0 0  0.95 0 0  0.975 0 0  1 0 0  0 0.025 0  0.025 0.025 0  0.05 0.025 0  0.075 0.025 0  0.1 0.025 0  0.125 0.025 0  0.15 0.025 0  0.175 0.025 0  0.2 0.025 0  0.225 0.025 0  0.25 0.025 0  0.275 0.025 0  0.3 0.025 0  0.325 0.025 0  0.35 0.025 0  0.375 0.025 0  0.4 0.025 0  0.425 0.025 0  0.45 0.025 0  0.475 0.025 0  0.5 0.025 0  0.525 0.025 0  0.55 0.025 0  0.575 0.025 0  0.6 0.025 0  0.625 0.025 0  0.65 0.025 0  0.675 0.025 0  0.7 0.025 0  0.725 0.025 0  0.75 0.025 0  0.775 0.025 0  0.8 0.025 0  0.825 0.025 0  0.85 0.025 0  0.875 0.025 0  0.9 0.025 0  0.925 0.025 0  0.95 0.025 0  0.975 0.025 0  1 0.025 0  0 0.05 0  0.025 0.05 0  0.05 0.05 0  0.075 0.05 0  0.1 0.05 0  0.125 0.05 0  0.15 0.05 0  0.175 0.05 0  0.2 0.05 0  0.225 0.05 0  0.25 0.05 0  0.275 0.05 0  0.3 0.05 0  0.325 0.05 0  0.35 0.05 0  0.375 0.05 0  0.4 0.05 0  0.425 0.05 0  0.45 0.05 0  0.475 0.05 0  0.5 0.05 0  0.525 0.05 0  0.55 0.05 0  0.575 0.05 0  0.6 0.05 0  0.625 0.05 0  0.65 0.05 0  0.675 0.05 0  0.7 0.05 0  0.725 0.05 0  0.75 0.05 0  0.775 0.05 0  0.8 0.05 0  0.825 0.05 0  0.85 0.05 0  0.875 0.05 0  0.9 0.05 0  0.925 0.05 0  0.95 0.05 0  0.975 0.05 0  1 0.05 0  0 0.075 0  0.025 0.075 0  0.05 0.075 0  0.075 0.075 0  0.1 0.075 0  0.125 0.075 0  0.15 0.075 0  0.175 0.075 0  0.2 0.075 0  0.225 0.075 0  0.25 0.075 0  0.275 0.075 0  0.3 0.075 0  0.325 0.075 0  0.35 0.075 0  0.375 0.075 0  0.4 0.075 0  0.425 0.075 0  0.45 0.075 0  0.475 0.075 0  0.5 0.075 0  0.525 0.075 0  0.55 0.075 0  0.575 0.075 0  0.6 0.075 0  0.625 0.075 0  0.65 0.075 0  0.675 0.075 0  0.7 0.075 0  0.725 0.075 0  0.75 0.075 0  0.775 0.075 0  0.8 0.075 0  0.825 0.075 0  0.85 0.075 0  0.875 0.075 0  0.9 0.075 0  0.925 0.075 0  0.95 0.075 0  0.975 0.075 0  1 0.075 0  0 0.1 0  0.025 0.1 0  0.05 0.1 0  0.075 0.1 0  0.1 0.1 0  0.125 0.1 0  0.15 0.1 0  0.175 0.1 0  0.2 0.1 0  0.225 0.1 0  0.25 0.1 0  0.275 0.1 0  0.3 0.1 0  0.325 0.1 0  0.35 0.1 0  0.375 0.1 0  0.4 0.1 0  0.425 0.1 0  0.45 0.1 0  0.475 0.1 0  0.5 0.1 0  0.525 0.1 0  0.55 0.1 0  0.575 0.1 0  0.6 0.1 0  0.625 0.1 0  0.65 0.1 0  0.675 0.1 0  0.7 0.1 0  0.725 0.1 0  0.75 0.1 0  0.775 0.1 0  0.8 0.1 0  0.825 0.1 0  0.85 0.1 0  0.875 0.1 0  0.9 0.1 0  0.925 0.1 0  0.95 0.1 0  0.975 0.1 0  1 0.1 0  0 0.125 0  0.025 0.125 0  0.05 0.125 0  0.075 0.125 0  0.1 0.125 0  0.125 0.125 0  0.15 0.125 0  0.175 0.125 0  0.2 0.125 0  0.225 0.125 0  0.25 0.125 0  0.275 0.125 0  0.3 0.125 0  0.325 0.125 0  0.35 0.125 0  0.375 0.125 0  0.4 0.125 0  0.425 0.125 0  0.45 0.125 0  0.475 0.125 0  0.5 0.125 0  0.525 0.125 0  0.55 0.125 0  0.575 0.125 0  0.6 0.125 0  0.625 0.125 0  0.65 0.125 0  0.675 0.125 0  0.7 0.125 0  0.725 0.125 0  0.75 0.125 0  0.775 0.125 0  0.8 0.125 0  0.825 0.125 0  0.85 0.125 0  0.875 0.125 0  0.9 0.125 0  0.925 0.125 0  0.95 0.125 0  0.975 0.125 0  1 0.125 0  0 0.15 0  0.025 0.15 0  0.05 0.15 0  0.075 0.15 0  0.1 0.15 0  0.125 0.15 0  0.15 0.15 0  0.175 0.15 0  0.2 0.15 0  0.225 0.15 0  0.25 0.15 0  0.275 0.15 0  0.3 0.15 0  0.325 0.15 0  0.35 0.15 0  0.375 0.15 0  0.4 0.15 0  0.425 0.15 0  0.45 0.15 0  0.475 0.15 0  0.5 0.15 0  0.525 0.15 0  0.55 0.15 0  0.575 0.15 0  0.6 0.15 0  0.625 0.15 0  0.65 0.15 0  0.675 0.15 0  0.7 0.15 0  0.725 0.15 0  0.75 0.15 0  0.775 0.15 0  0.8 0.15 0  0.825 0.15 0  0.85 0.15 0  0.875 0.15 0  0.9 0.15 0  0.925 0.15 0  0.95 0.15 0  0.975 0.15 0  1 0.15 0  0 0.175 0  0.025 0.175 0  0.05 0.175 0  0.075 0.175 0  0.1 0.175 0  0.125 0.175 0  0.15 0.175 0  0.175 0.175 0  0.2 0.175 0  0.225 0.175 0  0.25 0.175 0  0.275 0.175 0  0.3 0.175 0  0.325 0.175 0  0.35 0.175 0  0.375 0.175 0  0.4 0.175 0  0.425 0.175 0  0.45 0.175 0  0.475 0.175 0  0.5 0.175 0  0.525 0.175 0  0.55 0.175 0  0.575 0.175 0  0.6 0.175 0  0.625 0.175 0  0.65 0.175 0  0.675 0.175 0  0.7 0.175 0  0.725 0.175 0  0.75 0.175 0  0.775 0.175 0  0.8 0.175 0  0.825 0.175 0  0.85 0.175 0  0.875 0.175 0  0.9 0.175 0  0.925 0.175 0  0.95 0.175 0  0.975 0.175 0  1 0.175 0  0 0.2 0  0.025 0.2 0  0.05 0.2 0  0.075 0.2 0  0.1 0.2 0  0.125 0.2 0  0.15 0.2 0  0.175 0.2 0  0.2 0.2 0  0.225 0.2 0  0.25 0.2 0  0.275 0.2 0  0.3 0.2 0  0.325 0.2 0  0.35 0.2 0  0.375 0.2 0  0.4 0.2 0  0.425 0.2 0  0.45 0.2 0  0.475 0.2 0  0.5 0.2 0  0.525 0.2 0  0.55 0.2 0  0.575 0.2 0  0.6 0.2 0  0.625 0.2 0  0.65 0.2 0  0.675 0.2 0  0.7 0.2 0  0.725 0.2 0  0.75 0.2 0  0.775 0.2 0  0.8 0.2 0  0.825 0.2 0  0.85 0.2 0  0.875 0.2 0  0.9 0.2 0  0.925 0.2 0  0.95 0.2 0  0.975 0.2 0  1 0.2 0  0 0.225 0  0.025 0.225 0  0.05 0.225 0  0.075 0.225 0  0.1 0.225 0  0.125 0.225 0  0.15 0.225 0  0.175 0.225 0  0.2 0.225 0  0.225 0.225 0  0.25 0.225 0  0.275 0.225 0  0.3 0.225 0  0.325 0.225 0  0.35 0.225 0  0.375 0.225 0  0.4 0.225 0  0.425 0.225 0  0.45 0.225 0  0.475 0.225 0  0.5 0.225 0  0.525 0.225 0  0.55 0.225 0  0.575 0.225 0  0.6 0.225 0  0.625 0.225 0  0.65 0.225 0  0.675 0.225 0  0.7 0.225 0  0.725 0.225 0  0.75 0.225 0  0.775 0.225 0  0.8 0.225 0  0.825 0.225 0  0.85 0.225 0  0.875 0.225 0  0.9 0.225 0  0.925 0.225 0  0.95 0.225 0  0.975 0.225 0  1 0.225 0  0 0.25 0  0.025 0.25 0  0.05 0.25 0  0.075 0.25 0  0.1 0.25 0  0.125 0.25 0  0.15 0.25 0  0.175 0.25 0  0.2 0.25 0  0.225 0.25 0  0.25 0.25 0  0.275 0.25 0  0.3 0.25 0  0.325 0.25 0  0.35 0.25 0  0.375 0.25 0  0.4 0.25 0  0.425 0.25 0  0.45 0.25 0  0.475 0.25 0  0.5 0.25 0  0.525 0.25 0  0.55 0.25 0  0.575 0.25 0  0.6 0.25 0  0.625 0.25 0  0.65 0.25 0  0.675 0.25 0  0.7 0.25 0  0.725 0.25 0  0.75 0.25 0  0.775 0.25 0  0.8 0.25 0  0.825 0.25 0  0.85 0.25 0  0.875 0.25 0  0.9 0.25 0  0.925 0.25 0  0.95 0.25 0  0.975 0.25 0  1 0.25 0  0 0.275 0  0.025 0.275 0  0.05 0.275 0  0.075 0.275 0  0.1 0.275 0  0.125 0.275 0  0.15 0.275 0  0.175 0.275 0  0.2 0.275 0  0.225 0.275 0  0.25 0.275 0  0.275 0.275 0  0.3 0.275 0  0.325 0.275 0  0.35 0.275 0  0.375 0.275 0  0.4 0.275 0  0.425 0.275 0  0.45 0.275 0  0.475 0.275 0  0.5 0.275 0  0.525 0.275 0  0.55 0.275 0  0.575 0.275 0  0.6 0.275 0  0.625 0.275 0  0.65 0.275 0  0.675 0.275 0  0.7 0.275 0  0.725 0.275 0  0.75 0.275 0  0.775 0.275 0  0.8 0.275 0  0.825 0.275 0  0.85 0.275 0  0.875 0.275 0  0.9 0.275 0  0.925 0.275 0  0.95 0.275 0  0.975 0.275 0  1 0.275 0  0 0.3 0  0.025 0.3 0  0.05 0.3 0  0.075 0.3 0  0.1 0.3 0  0.125 0.3 0  0.15 0.3 0  0.175 0.3 0  0.2 0.3 0  0.225 0.3 0  0.25 0.3 0  0.275 0.3 0  0.3 0.3 0  0.325 0.3 0  0.35 0.3 0  0.375 0.3 0  0.4 0.3 0  0.425 0.3 0  0.45 0.3 0  0.475 0.3 0  0.5 0.3 0  0.525 0.3 0  0.55 0.3 0  0.575 0.3 0  0.6 0.3 0  0.625 0.3 0  0.65 0.3 0  0.675 0.3 0  0.7 0.3 0  0.725 0.3 0  0.75 0.3 0  0.775 0.3 0  0.8 0.3 0  0.825 0.3 0  0.85 0.3 0  0.875 0.3 0  0.9 0.3 0  0.925 0.3 0  0.95 0.3 0  0.975 0.3 0  1 0.3 0  0 0.325 0  0.025 0.325 0  0.05 0.325 0  0.075 0.325 0  0.1 0.325 0  0.125 0.325 0  0.15 0.325 0  0.175 0.325 0  0.2 0.325 0  0.225 0.325 0  0.25 0.325 0  0.275 0.325 0  0.3 0.325 0  0.325 0.325 0  0.35 0.325 0  0.375 0.325 0  0.4 0.325 0  0.425 0.325 0  0.45 0.325 0  0.475 0.325 0  0.5 0.325 0  0.525 0.325 0  0.55 0.325 0  0.575 0.325 0  0.6 0.325 0  0.625 0.325 0  0.65 0.325 0  0.675 0.325 0  0.7 0.325 0  0.725 0.325 0  0.75 0.325 0  0.775 0.325 0  0.8 0.325 0  0.825 0.325 0  0.85 0.325 0  0.875 0.325 0  0.9 0.325 0  0.925 0.325 0  0.95 0.325 0  0.975 0.325 0  1 0.325 0  0 0.35 0  0.025 0.35 0  0.05 0.35 0  0.075 0.35 0  0.1 0.35 0  0.125 0.35 0  0.15 0.35 0  0.175 0.35 0  0.2 0.35 0  0.225 0.35 0  0.25 0.35 0  0.275 0.35 0  0.3 0.35 0  0.325 0.35 0  0.35 0.35 0  0.375 0.35 0  0.4 0.35 0  0.425 0.35 0  0.45 0.35 0  0.475 0.35 0  0.5 0.35 0  0.525 0.35 0  0.55 0.35 0  0.575 0.35 0  0.6 0.35 0  0.625 0.35 0  0.65 0.35 0  0.675 0.35 0  0.7 0.35 0  0.725 0.35 0  0.75 0.35 0  0.775 0.35 0  0.8 0.35 0  0.825 0.35 0  0.85 0.35 0  0.875 0.35 0  0.9 0.35 0  0.925 0.35 0  0.95 0.35 0  0.975 0.35 0  1 0.35 0  0 0.375 0  0.025 0.375 0  0.05 0.375 0  0.075 0.375 0  0.1 0.375 0  0.125 0.375 0  0.15 0.375 0  0.175 0.375 0  0.2 0.375 0  0.225 0.375 0  0.25 0.375 0  0.275 0.375 0  0.3 0.375 0  0.325 0.375 0  0.35 0.375 0  0.375 0.375 0  0.4 0.375 0  0.425 0.375 0  0.45 0.375 0  0.475 0.375 0  0.5 0.375 0  0.525 0.375 0  0.55 0.375 0  0.575 0.375 0  0.6 0.375 0  0.625 0.375 0  0.65 0.375 0  0.675 0.375 0  0.7 0.375 0  0.725 0.375 0  0.75 0.375 0  0.775 0.375 0  0.8 0.375 0  0.825 0.375 0  0.85 0.375 0  0.875 0.375 0  0.9 0.375 0  0.925 0.375 0  0.95 0.375 0  0.975 0.375 0  1 0.375 0  0 0.4 0  0.025 0.4 0  0.05 0.4 0  0.075 0.4 0  0.1 0.4 0  0.125 0.4 0  0.15 0.4 0  0.175 0.4 0  0.2 0.4 0  0.225 0.4 0  0.25 0.4 0  0.275 0.4 0  0.3 0.4 0  0.325 0.4 0  0.35 0.4 0  0.375 0.4 0  0.4 0.4 0  0.425 0.4 0  0.45 0.4 0  0.475 0.4 0  0.5 0.4 0  0.525 0.4 0  0.55 0.4 0  0.575 0.4 0  0.6 0.4 0  0.625 0.4 0  0.65 0.4 0  0.675 0.4 0  0.7 0.4 0  0.725 0.4 0  0.75 0.4 0  0.775 0.4 0  0.8 0.4 0  0.825 0.4 0  0.85 0.4 0  0.875 0.4 0  0.9 0.4 0  0.925 0.4 0  0.95 0.4 0  0.975 0.4 0  1 0.4 0  0 0.425 0  0.025 0.425 0  0.05 0.425 0  0.075 0.425 0  0.1 0.425 0  0.125 0.425 0  0.15 0.425 0  0.175 0.425 0  0.2 0.425 0  0.225 0.425 0  0.25 0.425 0  0.275 0.425 0  0.3 0.425 0  0.325 0.425 0  0.35 0.425 0  0.375 0.425 0  0.4 0.425 0  0.425 0.425 0  0.45 0.425 0  0.475 0.425 0  0.5 0.425 0  0.525 0.425 0  0.55 0.425 0  0.575 0.425 0  0.6 0.425 0  0.625 0.425 0  0.65 0.425 0  0.675 0.425 0  0.7 0.425 0  0.725 0.425 0  0.75 0.425 0  0.775 0.425 0  0.8 0.425 0  0.825 0.425 0  0.85 0.425 0  0.875 0.425 0  0.9 0.425 0  0.925 0.425 0  0.95 0.425 0  0.975 0.425 0  1 0.425 0  0 0.45 0  0.02
[...]
<PointData  Scalars="ControlVisualisation"> 
<DataArray  type="Float64"  Name="ControlVisualisation"  format="ascii">7.8445231193354129e-02  6.0550637503914255e-02  6.2140592065111674e-02  6.3465083172831643e-02  6.4537367493466377e-02  6.6216443217778906e-02  6.7835579183593259e-02  6.9807936140098253e-02  7.1139176501646986e-02  7.2136982884683398e-02  7.4153809423590566e-02  7.5882291675982538e-02  7.6734176464235249e-02  7.8877392477691904e-02  8.0609926245895525e-02  8.1909179023812895e-02  8.1591620020253414e-02  8.0613075049301278e-02  7.8500877691711823e-02  8.0231517206555011e-02  8.2611269766743656e-02  8.2810324109002895e-02  8.1613716584092361e-02  8.0366650671279377e-02  7.8604296581821151e-02  7.9269105658246075e-02  8.1414135823484016e-02  8.1106409649637043e-02  7.8868857228017467e-02  7.7671063815681202e-02  7.5569545345965175e-02  7.3680890864843210e-02  7.1355593374185816e-02  6.9933046604076288e-02  6.8346528481736002e-02  6.6600961543886034e-02  6.5159062617068525e-02  6.3465944397867402e-02  6.1876029219883610e-02  6.0445939517979830e-02  1.5478928737572606e-01  5.9439658164697505e-02  3.5645273560696536e-02  3.5893160130333196e-02  3.6570904464068688e-02  3.7588205472806002e-02  3.8626978281544558e-02  4.1039203074724181e-02  4.3448585799716333e-02  4.4724311702136477e-02  4.6902258257398501e-02  5.0862588167755893e-02  5.3848618653999189e-02  5.4816849114532558e-02  5.8386931717252143e-02  6.3337364081703984e-02  6.6301895022411392e-02  6.8067948003315282e-02  6.9894308752082107e-02  6.4767358707943909e-02  6.5384011510454615e-02  7.2631464272548685e-02  7.1559285849592494e-02  6.8128015152870813e-02  6.6940919256606141e-02  6.3654667107312018e-02  6.2590972036010495e-02  6.6131102188558277e-02  6.4287000479122974e-02  6.2223852926995837e-02  5.9496608186069617e-02  5.5528028664996121e-02  5.2338105611715521e-02  4.9140106748238419e-02  4.6361767099572508e-02  4.3673371853411823e-02  4.1227938879484685e-02  3.9327888447735167e-02  3.7743420898334275e-02  3.6626617271363647e-02  3.5908933260381859e-02  6.0441615721890656e-02  5.8406146317018778e-02  3.6682798177688686e-02  3.7019742303652042e-02  3.6887418879045064e-02  3.9014796594237830e-02  4.0627213801295567e-02  4.3629184679866595e-02  4.7676962857778199e-02  4.8461838121715853e-02  5.1197187728788902e-02  6.1173422672504162e-02  6.5744487525016243e-02  6.6958643257966965e-02  7.7723537617695071e-02  9.4146166951535215e-02  1.1322448240301104e-01  1.2184377051064005e-01  1.3863014274922819e-01  1.2388774690258808e-01  1.1389580059664667e-01  1.5922508618726838e-01  1.3717019738708053e-01  1.2016236917375085e-01  1.0685314933601468e-01  1.0262859256009886e-01  9.7704875012540701e-02  1.0578507933423106e-01  1.0210133374920101e-01  8.8984611025501356e-02  8.2651949729936378e-02  6.9832649902380250e-02  6.2521524907683118e-02  5.7534435447043807e-02  5.2342230011132369e-02  4.7217653026064531e-02  4.3360228733654346e-02  4.0578462631401205e-02  3.8644444862732066e-02  3.7310878156626551e-02  3.6518943840754450e-02  6.1838692369307807e-02  5.7194628963087746e-02  3.8048071466778494e-02  4.0165648384568924e-02  4.0650599201590254e-02  4.3593977856303825e-02  4.8140491477929384e-02  5.0451464810431029e-02  5.8442796812967580e-02  6.1984062195558388e-02  6.2421414865697383e-02  7.5116073125034960e-02  9.1888353489390062e-02  1.0341644223520916e-01  1.7391584930962090e-01  2.0575815450998378e-01  2.1136330246754079e-01  2.7829441412928058e-01  3.2789974606271466e-01  3.7552599210734272e-01  3.2950537038314903e-01  4.0749633616404329e-01  3.7822044425466195e-01  3.6649088109685890e-01  3.4765289591202964e-01  2.8912813052625358e-01  2.5273163075044952e-01  2.2906028744841728e-01  2.2993447978771916e-01  1.5972427611928253e-01  1.3373916314898540e-01  1.0117187104922537e-01  8.0762124857779352e-02  7.1979163745917160e-02  6.1775738916079313e-02  5.4403957071396100e-02  4.8569269345868804e-02  4.5153440283107617e-02  4.1799546500363612e-02  3.9424835706623459e-02  3.8104638597479749e-02  6.3638968197814394e-02  5.5968059991161272e-02  3.9266303305628608e-02  4.4793339152019961e-02  4.6569014300759534e-02  5.0097340299609862e-02  5.8613286270973397e-02  6.1839728734720989e-02  7.0032407409359440e-02  8.0555145444090981e-02  8.6327784900179505e-02  1.2095929667981555e-01  1.8219814655307462e-01  2.2009075644812759e-01  3.7785846702084946e-01  4.8800370811178473e-01  4.2158583409310063e-01  4.5074961879180730e-01  5.2299904882339354e-01  5.8534031355159266e-01  5.4398334830609274e-01  6.0534330846561868e-01  7.0193944487555582e-01  6.5790289340560171e-01  6.0023314762723368e-01  5.0387183961377013e-01  4.6334648388261401e-01  4.2474714593056068e-01  4.1571812328354935e-01  3.5563870668569347e-01  2.6353905542343037e-01  1.6686505936010587e-01  1.0958325509464049e-01  9.3214191682242362e-02  7.5846243882803657e-02  6.7561626607235511e-02  5.8057360437087369e-02  5.2280774377984451e-02  4.7060680316540107e-02  4.2837891505704273e-02  4.0308438374430877e-02  6.6104512095925355e-02  5.4466046204126324e-02  4.1622635277238633e-02  5.2411596849712520e-02  5.5319930707594681e-02  5.7358026615788954e-02  6.3636971709776821e-02  7.0103475235737275e-02  7.9773236464966313e-02  1.1178064835584944e-01  1.7400425196173069e-01  2.6371170807815958e-01  2.6771969333067358e-01  2.9962310857652924e-01  4.9399889142774939e-01  5.1512002541456958e-01  6.2623541675866135e-01  6.6789300131471840e-01  6.1710195749338481e-01  6.3817061520766549e-01  5.7695585410849959e-01  6.9248812563142526e-01  7.8944191972481592e-01  7.7737477031145441e-01  6.8010040325698506e-01  6.4488451549225034e-01  6.3830478351056130e-01  6.0065642797766305e-01  5.8118441013447231e-01  5.5735559035799020e-01  4.5650143433981538e-01  3.0123517487689239e-01  1.8025287910109541e-01  1.6403049363580086e-01  1.2888743510218023e-01  8.6200564875612687e-02  6.7208674495613546e-02  5.9608373297966921e-02  5.6250851097685031e-02  5.0957174522458203e-02  4.4216971892658101e-02  6.8818627304194233e-02  5.4950434254438747e-02  4.8455946905778861e-02  4.6530074935064197e-02  4.9839148954226531e-02  6.2309769436884765e-02  1.4804777987225523e-01  1.5006873650459523e-01  2.3957640169425209e-01  2.4690778746654385e-01  3.2977226117054464e-01  4.1542416528355630e-01  4.8397049655034780e-01  4.6953581372515230e-01  6.3845504899869177e-01  5.7211872826258348e-01  6.3442844109460439e-01  6.8159686321231039e-01  7.3806275965855661e-01  7.5088682734924261e-01  7.0106827526920568e-01  8.0441554280063432e-01  7.8892577415884224e-01  7.5481550916399887e-01  6.2765731317581441e-01  6.9443616394524155e-01  7.9701459692670618e-01  6.9494740450569259e-01  6.3811418333593317e-01  6.4451665097346411e-01  5.5145061739327017e-01  4.9693119847591505e-01  4.3599583013557780e-01  3.8561942104471586e-01  3.8396031645481588e-01  2.9239082686618023e-01  1.8969009564133379e-01  1.0998049234261514e-01  7.9797110516579589e-02  5.2778006030080454e-02  5.3601932603825037e-02  7.6578444402912657e-02  3.0793119474706443e-01  3.8107134912308782e-01  8.9694308296325842e-01  7.9422450914147069e-01  7.1458432328565213e-01  7.5527975545782633e-01  6.9779773458573569e-01  6.6579550725017811e-01  6.2506225889943701e-01  6.0944062576560709e-01  5.9034126422699562e-01  6.5003561649099162e-01  6.4796091623804186e-01  7.4327453887370198e-01  6.2357368243489564e-01  7.2024402033983337e-01  7.6957149329410601e-01  6.9256947430464200e-01  7.3310285199404746e-01  7.6129530863823069e-01  7.9060785345927109e-01  7.0304369160255908e-01  6.6861020664039261e-01  6.7025017509302720e-01  6.9820104609735456e-01  7.5245810822988124e-01  7.5733499022225614e-01  7.2527678321316191e-01  7.9226927434277772e-01  6.4554812878885892e-01  5.8556810016400784e-01  7.2209306984847310e-01  7.0632768066050389e-01  8.2076615085075022e-01  8.2855423636323622e-01  8.2310385404119724e-01  8.4611536994462377e-01  8.8206428344987042e-01  9.1784255077042243e-01  9.5868818131936961e-01  6.3009231992290338e-01  9.5940232828141081e-01  9.6335428429282344e-01  9.6937231515999867e-01  9.3890516941120195e-01  9.1788161662609091e-01  9.2760349498701633e-01  9.2997641464009084e-01  9.1654545971738721e-01  8.5453646819542683e-01  8.3123109251697513e-01  7.8048341252737841e-01  7.2596722221439769e-01  7.6413593805911817e-01  8.1594673396664907e-01  7.9512969431017888e-01  8.9220446688226052e-01  8.7925007285868362e-01  7.7220417307334843e-01  7.2979865218545092e-01  7.4734783323336085e-01  6.6342715334318014e-01  6.1445796256540930e-01  6.2735505884102227e-01  7.0242389938224914e-01  6.9680881830844799e-01  7.5816147247590471e-01  8.0276998138311328e-01  7.8374878404339698e-01  8.6145773479945476e-01  8.5272470956093460e-01  8.1103923191281524e-01  8.8323589482210196e-01  9.1288566829282791e-01  9.4751741631383879e-01  9.3763105524752621e-01  9.3614478989127647e-01  9.3602124374809037e-01  9.5764340336612863e-01  9.7951504270055212e-01  9.7344031824746291e-01  9.6173875953654686e-01  9.7637984431037994e-01  9.8664076788002320e-01  9.7728719315653434e-01  9.7428776420488616e-01  9.5810735318669038e-01  9.4385749275719277e-01  9.3989352418951710e-01  9.4318691114987152e-01  9.4043675877951838e-01  9.2905951195857528e-01  9.0950665559440325e-01  8.4851844876123894e-01  8.7125106803998398e-01  8.2724070019377371e-01  8.1768976654422243e-01  8.9341502937783812e-01  8.9113277969808580e-01  7.8277822266951902e-01  8.2283467446349112e-01  7.8543174129888516e-01  7.6690629771997987e-01  6.6890621521925286e-01  7.3722715018487106e-01  7.2949633983725115e-01  7.5067376218269843e-01  7.8837842825432392e-01  8.7585806503240793e-01  9.3406936955971409e-01  9.4210406527581825e-01  9.4864111370600379e-01  9.6982889289672081e-01  9.5072620638780136e-01  9.4928533251268832e-01  9.4624704753149758e-01  9.3877617014964321e-01  9.5295707016515052e-01  9.7519079690429389e-01  9.7840618352742792e-01  9.7908042858393340e-01  9.8589640519549315e-01  9.7247101383994916e-01  9.7961138330749942e-01  9.8722824559636690e-01  9.8254564672784739e-01  9.7533860365646008e-01  9.6941060221578002e-01  9.5603978977459148e-01  9.4283211586959204e-01  9.4161699249614816e-01  9.4192946910864217e-01  9.4052747278322069e-01  9.1353428601759923e-01  8.8516820202349211e-01  8.8983931651577508e-01  8.7727434093508161e-01  8.2467468013231404e-01  8.2995485883607312e-01  6.8505287111741464e-01  6.2923254821997932e-01  7.3557733779889833e-01  7.4208148866967094e-01  7.3327216865302280e-01  6.9558956085816082e-01  7.6936181654113933e-01  7.6245766459289477e-01  7.5184618540528891e-01  8.3978646393976564e-01  8.8210891892781018e-01  9.2654156461972936e-01  9.8534533002224711e-01  9.7686897386610794e-01  9.8340436410733900e-01  9.6526376188539209e-01  9.5378075070368618e-01  9.4425434516527951e-01  9.4424745931029164e-01  9.5986081950819557e-01  9.7725950161795028e-01  9.7577681615519485e-01  9.8261438909318655e-01  9.8760267246356281e-01  9.7927122651555565e-01  9.7481148614771329e-01  9.8639478371183842e-01  9.7918747511435456e-01  9.7354540900629039e-01  9.6897286297896212e-01  9.5533358294920279e-01  9.4267863951245967e-01  9.4233188449835548e-01  9.4023309404889621e-01  9.3767903608522452e-01  9.4129545199899411e-01  9.2723198543004304e-01  9.1147854378958582e-01  8.7872432763765540e-01  8.6792789055297881e-01  7.8457570714815561e-01  6.7336531077907347e-01  6.2375101086268181e-01  6.7062188969131353e-01  6.8768612556998399e-01  7.3431629401613374e-01  7.1966324110718383e-01  7.2613440264930385e-01  7.6109963158820126e-01  7.7492992140154537e-01  8.2873020899747030e-01  8.5888275116970636e-01  8.9511980651168965e-01  9.7994986723475586e-01  9.9763199619351850e-01  9.8180116276455154e-01  9.5970157172342063e-01  9.4611460211825693e-01  9.4468610358642047e-01  9.4467620673203634e-01  9.6085045445287565e-01  9.7168332445620231e-01  9.7245116247527841e-01  9.7800054578214080e-01  9.8747896940540347e-01  9.7462920019932742e-01  9.6005728281162606e-01  9.7222560381068168e-01  9.6762145341911621e-01  9.5755162538020111e-01  9.4734129362664632e-01  9.3370176177496678e-01  9.3314433936144447e-01  9.3873882611681980e-01  9.2338912330672862e-01  8.8018789603087622e-01  9.0122449107367264e-01  9.0211969854868690e-01  8.4518630128630912e-01  7.5956640079244886e-01  7.4624138076675217e-01  7.3800801812755246e-01  7.3565570172884254e-01  6.9188672981819610e-01  6.1481793916242833e-01  6.7853557198278103e-01  6.4656748187024926e-01  6.5184897893033844e-01  6.0940141650596857e-01  6.8023268119495195e-01  6.6387599790167329e-01  7.3633779580935554e-01  7.9368431358973146e-01  8.5455055861417828e-01  9.3878225140255223e-01  9.6064144000276208e-01  9.3388513611197055e-01  9.3264603925787459e-01  9.4028174762857109e-01  9.4311789791517908e-01  9.3851878086970009e-01  9.4190745978580703e-01  9.5438683816285785e-01  9.6174468838841187e-01  9.6583550295403864e-01  9.6309715790657624e-01  9.5253607408331831e-01  6.6788096395375074e-01  8.9895581818767012e-01  8.8425310617999642e-01  9.0015997765042288e-01  9.1409255518235721e-01  9.2525461348363558e-01  9.4594643015485136e-01  9.3507775875251409e-01  8.8372062749314917e-01  8.2782330581448127e-01  7.4795353223985206e-01  7.6821844304810816e-01  7.0834427284397894e-01  5.6348318306053646e-01  5.3301393158757782e-01  6.3887668988677460e-01  6.2858779967129508e-01  6.1808558213589904e-01  5.7669621671210869e-01  6.5131099893926536e-01  5.6776283404798100e-01  5.8828049263160176e-01  5.6439867955703793e-01  6.0688012481691711e-01  5.9888258529474270e-01  6.4912244386947859e-01  7.1992016213334020e-01  7.8403974668427800e-01  8.8123983161914776e-01  8.9421112219190046e-01  8.4637287108399228e-01  8.4316301802187876e-01  8.6683496010602734e-01  9.2012541654740732e-01  9.4526799330603839e-01  9.4170644655211400e-01  9.2385121824837335e-01  9.0178773917781341e-01  8.7756268318032893e-01  3.9563257273655938e-01  1.6789678508744790e-01  9.1227503269433005e-02  6.5393615763261720e-02  2.7035030348426642e-01  6.1920532078636370e-01  7.7816673273127024e-01  7.1530950554102257e-01  6.7988263607521870e-01  6.7724619776996164e-01  5.8673210170680357e-01  5.9018823984238156e-01  6.2172944456317625e-01  5.4622984444765010e-01  4.1502462235148496e-01  3.2493473387507477e-01  4.0585910266693015e-01  4.2756456587016828e-01  3.8563666003331099e-01  3.4217493190021930e-01  4.1537970226551590e-01  5.4828431531570332e-01  4.7118198826578817e-01  4.1328091579627202e-01  4.8806083155328750e-01  4.7978266734666730e-01  5.3025198249124528e-01  5.5274432974802612e-01  5.6574836575613485e-01  5.6874995918901394e-01  6.5727778740822584e-01  6.4566696235660759e-01  6.6456069751846636e-01  6.9457270134362925e-01  6.5581836729649390e-01  6.3067943249811265e-01  7.3077610949503113e-01  7.9810900662651263e-01  7.2566006966093977e-01  5.5065236349456692e-01  1.9544074482125842e-01  4.5355569062389856e-02  5.2946649327897395e-02  8.0261791568094598e-02  5.7602922892645937e-02  5.8110010576254867e-02  1.0548276701553150e-01  1.5123598020521634e-01  1.7715498886117342e-01  1.5136227406585342e-01  1.5022863434418821e-01  1.6904420214981622e-01  2.6378087160686897e-01  3.5980431336262891e-01  3.3387831992161543e-01  2.0483388983883777e-01  1.7855804645412432e-01  2.0686110506975131e-01  2.1269517922019346e-01  2.1667029448493552e-01  2.0515024212244914e-01  2.0720055542898833e-01  3.0083326454587195e-01  3.3536777889763381e-01  3.0465975428341302e-01  3.2116359180234655e-01  3.5304777902760626e-01  3.4742653281936425e-01  3.0430698647364951e-01  3.5157546146905932e-01  2.9600798793923244e-01  3.3019594068237340e-01  3.2579195903213221e-01  3.6565267376355098e-01  3.8920951864062614e-01  3.2416086434785907e-01  1.7840337143965582e-01  1.8615967406779421e-01  2.3629166700607918e-01  2.2789067747051395e-01  1.0886978332402622e-01  5.3077388366763484e-02  4.6355531115046880e-02  5.1799071982795410e-02  7.6528916773433847e-02  5.2896709838708006e-02  5.7183669531708309e-02  5.7736950462097689e-02  6.3021512563961907e-02  6.8849831049023272e-02  8.1038710925142976e-02  9.7349848236089498e-02  1.1377469301502433e-01  1.8620824507974076e-01  2.2995459081246153e-01  2.4308593028046879e-01  1.9646452368644182e-01  1.6198019739763370e-01  1.5208236096273395e-01  1.4319667357406751e-01  1.5874423509114483e-01  1.9252642254541430e-01  1.8317390633034955e-01  1.8676503587333568e-01  2.0673952846035298e-01  2.7250909808987034e-01  2.5585797229838630e-01  2.4860964284941178e-01  2.6747704818161816e-01  2.5715250550193314e-01  2.0068149915080497e-01  1.7935268905027221e-01  2.0379036018580066e-01  2.1473744620745333e-01  2.2006045428080070e-01  2.2274653070786229e-01  1.9987321945482650e-01  1.2723858216558909e-01  9.7435525838184309e-02  1.1909265573411286e-01  1.1995820133328937e-01  7.1524536740218164e-02  5.9131083887198579e-02  4.5845513758280929e-02  5.3472728468327596e-02  7.3053677954603366e-02  4.7911418799485343e-02  4.8823105843755071e-02  5.2199885998163019e-02  6.0075905260854726e-02  6.1709131364978506e-02  6.7213313784924233e-02  7.7068348503547740e-02  8.5747678621398996e-02  8.7879478787655937e-02  1.0728718441582999e-01  1.3497060707861325e-01  1.3813678599528198e-01  1.0729116374153422e-01  9.4827765734579447e-02  9.7318330781285212e-02  1.1913179870598299e-01  1.4227306417149521e-01  1.3340213825879127e-01  1.2417494700874566e-01  1.2593837980255679e-01  1.4837249616057674e-01  1.6659832425914120e-01  1.3830551722166515e-01  1.4513135216438500e-01  1.6612137687064127e-01  1.4597296534311333e-01  1.1918305243502977e-01  1.2385846660990103e-01  1.1820189526221293e-01  1.0712383187611460e-01  1.0825851487292930e-01  1.1126242798384012e-01  9.1332094517620588e-02  7.7480146296372024e-02  7.5650343940143375e-02  8.7109722114742313e-02  6.7247218646918044e-02  5.6946387339452779e-02  4.3777909888348371e-02  5.3965450232722881e-02  7.0530330370888919e-02  4.4493495568169360e-02  4.4988915526593114e-02  4.8173835036971993e-02  5.5481054930077767e-02  5.7696748584579877e-02  5.9000661484501435e-02  6.2319393288392616e-02  6.6125419422541978e-02  7.1113856839216616e-02  8.3529726078684280e-02  8.9970314616201447e-02  8.9790102803384661e-02  7.9759739856511039e-02  7.9469679170651675e-02  9.0098393664074031e-02  9.3792341076621794e-02  9.2541398140674094e-02  9.3686490068467479e-02  9.6878580606859444e-02  9.5336956426380889e-02  9.7314933797532394e-02  1.1029501541023064e-01  1.0216440660986258e-01  9.2408015157103535e-02  9.8377506195470102e-02  1.0498445360297688e-01  9.4875957483253240e-02  9.2606544627398035e-02  9.7681850060247849e-02  8.4053990579004437e-02  7.7659434230734362e-02  7.3457687719441084e-02  7.5270138978956930e-02  6.8431519663431389e-02  6.5832496833874821e-02  6.7435002245180092e-02  6.2519352803260930e-02  5.4669462256195005e-02  4.2086223730153680e-02  5.4298257604365602e-02  7.0074857048963837e-02  4.4122215517783947e-02  4.7017048064223035e-02  4.9702969294168287e-02  5.0728748221710813e-02  5.0716554723310263e-02  5.4282164235888414e-02  5.8700029507688142e-02  5.9406890967053289e-02  6.1950482546440186e-02  6.9997547951450051e-02  7.2632016477406497e-02  7.1200264687695997e-02  7.2194816667069187e-02  7.0909450935361801e-02  7.1990520759458027e-02  7.7578893553554878e-02  7.4089386893054859e-02  7.3019117159505473e-02  7.5533105020185273e-02  7.9952480589416980e-02  7.5392496581616439e-02  7.6175696148055388e-02  7.5893101569159127e-02  7.2734058025148887e-02  7.3323347815022949e-02  7.3393489198746359e-02  7.4468753322097209e-02  7.6091183059146333e-02  7.5071324931534955e-02  7.5522193076872149e-02  6.8669042664806917e-02  6.3263436154763902e-02  6.1779288602119738e-02  6.0143966021531679e-02  5.8269831423146616e-02  5.8603577461625485e-02  5.7481904183104060e-02  5.5019418475459839e-02  4.1478853960488934e-02  5.4176601082919579e-02  6.9789287766093930e-02  4.3934648201571162e-02  4.6792641957305217e-02  4.9823520608441224e-02  4.9264666509821198e-02  4.8272928095295639e-02  5.1913105497515086e-02  5.4005625233517845e-02  5.346257377