<?xml version="1.0"?>
<VTKFile type="UnstructuredGrid"  version="0.1"  >
<UnstructuredGrid>
<Piece  NumberOfPoints="1681" NumberOfCells="3200">
<Points>
<DataArray  type="Float64"  NumberOfComponents="3"  format="ascii">0 0 0  0.025 0 0  0.05 0 0  0.075 0 0  0.1 0 0  0.125 0 0  0.15 0 0  0.175 0 0  0.2 0 0  0.225 0 0  0.25 0 0  0.275 0 0  0.3 0 0  0.325 0 0  0.35 0 0  0.375 0 0  0.4 0 0  0.425 0 0  0.45 0 0  0.475 0 0  0.5 0 0  0.525 0 0  0.55 0 0  0.575 0 0  0.6 0 0  0.625 0 0  0.65 0 0  0.675 0 0  0.7 0 0  0.725 0 0  0.75 0 0  0.775 0 0  0.8 0 0  0.825 0 0  0.85 0 0  0.875 0 0  0.9 0 0  0.925 0 0  0.95 0 0  0.975 0 0  1 0 0  0 0.025 0  0.025 0.025 0  0.05 0.025 0  0.075 0.025 0  0.1 0.025 0  0.125 0.025 0  0.15 0.025 0  0.175 0.025 0  0.2 0.025 0  0.225 0.025 0  0.25 0.025 0  0.275 0.025 0  0.3 0.025 0  0.325 0.025 0  0.35 0.025 0  0.375 0.025 0  0.4 0.025 0  0.425 0.025 0  0.45 0.025 0  0.475 0.025 0  0.5 0.025 0  0.525 0.025 0  0.55 0.025 0  0.575 0.025 0  0.6 0.025 0  0.625 0.025 0  0.65 0.025 0  0.675 0.025 0  0.7 0.025 0  0.725 0.025 0  0.75 0.025 0  0.775 0.025 0  0.8 0.025 0  0.825 0.025 0  0.85 0.025 0  0.875 0.025 0  0.9 0.025 0  0.925 0.025 0  0.95 0.025 0  0.975 0.025 0  1 0.025 0  0 0.05 0  0.025 0.05 0  0.05 0.05 0  0.075 0.05 0  0.1 0.05 0  0.125 0.05 0  0.15 0.05 0  0.175 0.05 0  0.2 0.05 0  0.225 0.05 0  0.25 0.05 0  0.275 0.05 0  0.3 0.05 0  0.325 0.05 0  0.35 0.05 0  0.375 0.05 0  0.4 0.05 0  0.425 0.05 0  0.45 0.05 0  0.475 0.05 0  0.5 0.05 0  0.525 0.05 0  0.55 0.05 0  0.575 0.05 0  0.6 0.05 0  0.625 0.05 0  0.65 0.05 0  0.675 0.05 0  0.7 0.05 0  0.725 0.05 0  0.75 0.05 0  0.775 0.05 0  0.8 0.05 0  0.825 0.05 0  0.85 0.05 0  0.875 0.05 0  0.9 0.05 0  0.925 0.05 0  0.95 0.05 0  0.975 0.05 0  1 0.05 0  0 0.075 0  0.025 0.075 0  0.05 0.075 0  0.075 0.075 0  0.1 0.075 0  0.125 0.075 0  0.15 0.075 0  0.175 0.075 0  0.2 0.075 0  0.225 0.075 0  0.25 0.075 0  0.275 0.075 0  0.3 0.075 0  0.325 0.075 0  0.35 0.075 0  0.375 0.075 0  0.4 0.075 0  0.425 0.075 0  0.45 0.075 0  0.475 0.075 0  0.5 0.075 0  0.525 0.075 0  0.55 0.075 0  0.575 0.075 0  0.6 0.075 0  0.625 0.075 0  0.65 0.075 0  0.675 0.075 0  0.7 0.075 0  0.725 0.075 0  0.75 0.075 0  0.775 0.075 0  0.8 0.075 0  0.825 0.075 0  0.85 0.075 0  0.875 0.075 0  0.9 0.075 0  0.925 0.075 0  0.95 0.075 0  0.975 0.075 0  1 0.075 0  0 0.1 0  0.025 0.1 0  0.05 0.1 0  0.075 0.1 0  0.1 0.1 0  0.125 0.1 0  0.15 0.1 0  0.175 0.1 0  0.2 0.1 0  0.225 0.1 0  0.25 0.1 0  0.275 0.1 0  0.3 0.1 0  0.325 0.1 0  0.35 0.1 0  0.375 0.1 0  0.4 0.1 0  0.425 0.1 0  0.45 0.1 0  0.475 0.1 0  0.5 0.1 0  0.525 0.1 0  0.55 0.1 0  0.575 0.1 0  0.6 0.1 0  0.625 0.1 0  0.65 0.1 0  0.675 0.1 0  0.7 0.1 0  0.725 0.1 0  0.75 0.1 0  0.775 0.1 0  0.8 0.1 0  0.825 0.1 0  0.85 0.1 0  0.875 0.1 0  0.9 0.1 0  0.925 0.1 0  0.95 0.1 0  0.975 0.1 0  1 0.1 0  0 0.125 0  0.025 0.125 0  0.05 0.125 0  0.075 0.125 0  0.1 0.125 0  0.125 0.125 0  0.15 0.125 0  0.175 0.125 0  0.2 0.125 0  0.225 0.125 0  0.25 0.125 0  0.275 0.125 0  0.3 0.125 0  0.325 0.125 0  0.35 0.125 0  0.375 0.125 0  0.4 0.125 0  0.425 0.125 0  0.45 0.125 0  0.475 0.125 0  0.5 0.125 0  0.525 0.125 0  0.55 0.125 0  0.575 0.125 0  0.6 0.125 0  0.625 0.125 0  0.65 0.125 0  0.675 0.125 0  0.7 0.125 0  0.725 0.125 0  0.75 0.125 0  0.775 0.125 0  0.8 0.125 0  0.825 0.125 0  0.85 0.125 0  0.875 0.125 0  0.9 0.125 0  0.925 0.125 0  0.95 0.125 0  0.975 0.125 0  1 0.125 0  0 0.15 0  0.025 0.15 0  0.05 0.15 0  0.075 0.15 0  0.1 0.15 0  0.125 0.15 0  0.15 0.15 0  0.175 0.15 0  0.2 0.15 0  0.225 0.15 0  0.25 0.15 0  0.275 0.15 0  0.3 0.15 0  0.325 0.15 0  0.35 0.15 0  0.375 0.15 0  0.4 0.15 0  0.425 0.15 0  0.45 0.15 0  0.475 0.15 0  0.5 0.15 0  0.525 0.15 0  0.55 0.15 0  0.575 0.15 0  0.6 0.15 0  0.625 0.15 0  0.65 0.15 0  0.675 0.15 0  0.7 0.15 0  0.725 0.15 0  0.75 0.15 0  0.775 0.15 0  0.8 0.15 0  0.825 0.15 0  0.85 0.15 0  0.875 0.15 0  0.9 0.15 0  0.925 0.15 0  0.95 0.15 0  0.975 0.15 0  1 0.15 0  0 0.175 0  0.025 0.175 0  0.05 0.175 0  0.075 0.175 0  0.1 0.175 0  0.125 0.175 0  0.15 0.175 0  0.175 0.175 0  0.2 0.175 0  0.225 0.175 0  0.25 0.175 0  0.275 0.175 0  0.3 0.175 0  0.325 0.175 0  0.35 0.175 0  0.375 0.175 0  0.4 0.175 0  0.425 0.175 0  0.45 0.175 0  0.475 0.175 0  0.5 0.175 0  0.525 0.175 0  0.55 0.175 0  0.575 0.175 0  0.6 0.175 0  0.625 0.175 0  0.65 0.175 0  0.675 0.175 0  0.7 0.175 0  0.725 0.175 0  0.75 0.175 0  0.775 0.175 0  0.8 0.175 0  0.825 0.175 0  0.85 0.175 0  0.875 0.175 0  0.9 0.175 0  0.925 0.175 0  0.95 0.175 0  0.975 0.175 0  1 0.175 0  0 0.2 0  0.025 0.2 0  0.05 0.2 0  0.075 0.2 0  0.1 0.2 0  0.125 0.2 0  0.15 0.2 0  0.175 0.2 0  0.2 0.2 0  0.225 0.2 0  0.25 0.2 0  0.275 0.2 0  0.3 0.2 0  0.325 0.2 0  0.35 0.2 0  0.375 0.2 0  0.4 0.2 0  0.425 0.2 0  0.45 0.2 0  0.475 0.2 0  0.5 0.2 0  0.525 0.2 0  0.55 0.2 0  0.575 0.2 0  0.6 0.2 0  0.625 0.2 0  0.65 0.2 0  0.675 0.2 0  0.7 0.2 0  0.725 0.2 0  0.75 0.2 0  0.775 0.2 0  0.8 0.2 0  0.825 0.2 0  0.85 0.2 0  0.875 0.2 0  0.9 0.2 0  0.925 0.2 0  0.95 0.2 0  0.975 0.2 0  1 0.2 0  0 0.225 0  0.025 0.225 0  0.05 0.225 0  0.075 0.225 0  0.1 0.225 0  0.125 0.225 0  0.15 0.225 0  0.175 0.225 0  0.2 0.225 0  0.225 0.225 0  0.25 0.225 0  0.275 0.225 0  0.3 0.225 0  0.325 0.225 0  0.35 0.225 0  0.375 0.225 0  0.4 0.225 0  0.425 0.225 0  0.45 0.225 0  0.475 0.225 0  0.5 0.225 0  0.525 0.225 0  0.55 0.225 0  0.575 0.225 0  0.6 0.225 0  0.625 0.225 0  0.65 0.225 0  0.675 0.225 0  0.7 0.225 0  0.725 0.225 0  0.75 0.225 0  0.775 0.225 0  0.8 0.225 0  0.825 0.225 0  0.85 0.225 0  0.875 0.225 0  0.9 0.225 0  0.925 0.225 0  0.95 0.225 0  0.975 0.225 0  1 0.225 0  0 0.25 0  0.025 0.25 0  0.05 0.25 0  0.075 0.25 0  0.1 0.25 0  0.125 0.25 0  0.15 0.25 0  0.175 0.25 0  0.2 0.25 0  0.225 0.25 0  0.25 0.25 0  0.275 0.25 0  0.3 0.25 0  0.325 0.25 0  0.35 0.25 0  0.375 0.25 0  0.4 0.25 0  0.425 0.25 0  0.45 0.25 0  0.475 0.25 0  0.5 0.25 0  0.525 0.25 0  0.55 0.25 0  0.575 0.25 0  0.6 0.25 0  0.625 0.25 0  0.65 0.25 0  0.675 0.25 0  0.7 0.25 0  0.725 0.25 0  0.75 0.25 0  0.775 0.25 0  0.8 0.25 0  0.825 0.25 0  0.85 0.25 0  0.875 0.25 0  0.9 0.25 0  0.925 0.25 0  0.95 0.25 0  0.975 0.25 0  1 0.25 0  0 0.275 0  0.025 0.275 0  0.05 0.275 0  0.075 0.275 0  0.1 0.275 0  0.125 0.275 0  0.15 0.275 0  0.175 0.275 0  0.2 0.275 0  0.225 0.275 0  0.25 0.275 0  0.275 0.275 0  0.3 0.275 0  0.325 0.275 0  0.35 0.275 0  0.375 0.275 0  0.4 0.275 0  0.425 0.275 0  0.45 0.275 0  0.475 0.275 0  0.5 0.275 0  0.525 0.275 0  0.55 0.275 0  0.575 0.275 0  0.6 0.275 0  0.625 0.275 0  0.65 0.275 0  0.675 0.275 0  0.7 0.275 0  0.725 0.275 0  0.75 0.275 0  0.775 0.275 0  0.8 0.275 0  0.825 0.275 0  0.85 0.275 0  0.875 0.275 0  0.9 0.275 0  0.925 0.275 0  0.95 0.275 0  0.975 0.275 0  1 0.275 0  0 0.3 0  0.025 0.3 0  0.05 0.3 0  0.075 0.3 0  0.1 0.3 0  0.125 0.3 0  0.15 0.3 0  0.175 0.3 0  0.2 0.3 0  0.225 0.3 0  0.25 0.3 0  0.275 0.3 0  0.3 0.3 0  0.325 0.3 0  0.35 0.3 0  0.375 0.3 0  0.4 0.3 0  0.425 0.3 0  0.45 0.3 0  0.475 0.3 0  0.5 0.3 0  0.525 0.3 0  0.55 0.3 0  0.575 0.3 0  0.6 0.3 0  0.625 0.3 0  0.65 0.3 0  0.675 0.3 0  0.7 0.3 0  0.725 0.3 0  0.75 0.3 0  0.775 0.3 0  0.8 0.3 0  0.825 0.3 0  0.85 0.3 0  0.875 0.3 0  0.9 0.3 0  0.925 0.3 0  0.95 0.3 0  0.975 0.3 0  1 0.3 0  0 0.325 0  0.025 0.325 0  0.05 0.325 0  0.075 0.325 0  0.1 0.325 0  0.125 0.325 0  0.15 0.325 0  0.175 0.325 0  0.2 0.325 0  0.225 0.325 0  0.25 0.325 0  0.275 0.325 0  0.3 0.325 0  0.325 0.325 0  0.35 0.325 0  0.375 0.325 0  0.4 0.325 0  0.425 0.325 0  0.45 0.325 0  0.475 0.325 0  0.5 0.325 0  0.525 0.325 0  0.55 0.325 0  0.575 0.325 0  0.6 0.325 0  0.625 0.325 0  0.65 0.325 0  0.675 0.325 0  0.7 0.325 0  0.725 0.325 0  0.75 0.325 0  0.775 0.325 0  0.8 0.325 0  0.825 0.325 0  0.85 0.325 0  0.875 0.325 0  0.9 0.325 0  0.925 0.325 0  0.95 0.325 0  0.975 0.325 0  1 0.325 0  0 0.35 0  0.025 0.35 0  0.05 0.35 0  0.075 0.35 0  0.1 0.35 0  0.125 0.35 0  0.15 0.35 0  0.175 0.35 0  0.2 0.35 0  0.225 0.35 0  0.25 0.35 0  0.275 0.35 0  0.3 0.35 0  0.325 0.35 0  0.35 0.35 0  0.375 0.35 0  0.4 0.35 0  0.425 0.35 0  0.45 0.35 0  0.475 0.35 0  0.5 0.35 0  0.525 0.35 0  0.55 0.35 0  0.575 0.35 0  0.6 0.35 0  0.625 0.35 0  0.65 0.35 0  0.675 0.35 0  0.7 0.35 0  0.725 0.35 0  0.75 0.35 0  0.775 0.35 0  0.8 0.35 0  0.825 0.35 0  0.85 0.35 0  0.875 0.35 0  0.9 0.35 0  0.925 0.35 0  0.95 0.35 0  0.975 0.35 0  1 0.35 0  0 0.375 0  0.025 0.375 0  0.05 0.375 0  0.075 0.375 0  0.1 0.375 0  0.125 0.375 0  0.15 0.375 0  0.175 0.375 0  0.2 0.375 0  0.225 0.375 0  0.25 0.375 0  0.275 0.375 0  0.3 0.375 0  0.325 0.375 0  0.35 0.375 0  0.375 0.375 0  0.4 0.375 0  0.425 0.375 0  0.45 0.375 0  0.475 0.375 0  0.5 0.375 0  0.525 0.375 0  0.55 0.375 0  0.575 0.375 0  0.6 0.375 0  0.625 0.375 0  0.65 0.375 0  0.675 0.375 0  0.7 0.375 0  0.725 0.375 0  0.75 0.375 0  0.775 0.375 0  0.8 0.375 0  0.825 0.375 0  0.85 0.375 0  0.875 0.375 0  0.9 0.375 0  0.925 0.375 0  0.95 0.375 0  0.975 0.375 0  1 0.375 0  0 0.4 0  0.025 0.4 0  0.05 0.4 0  0.075 0.4 0  0.1 0.4 0  0.125 0.4 0  0.15 0.4 0  0.175 0.4 0  0.2 0.4 0  0.225 0.4 0  0.25 0.4 0  0.275 0.4 0  0.3 0.4 0  0.325 0.4 0  0.35 0.4 0  0.375 0.4 0  0.4 0.4 0  0.425 0.4 0  0.45 0.4 0  0.475 0.4 0  0.5 0.4 0  0.525 0.4 0  0.55 0.4 0  0.575 0.4 0  0.6 0.4 0  0.625 0.4 0  0.65 0.4 0  0.675 0.4 0  0.7 0.4 0  0.725 0.4 0  0.75 0.4 0  0.775 0.4 0  0.8 0.4 0  0.825 0.4 0  0.85 0.4 0  0.875 0.4 0  0.9 0.4 0  0.925 0.4 0  0.95 0.4 0  0.975 0.4 0  1 0.4 0  0 0.425 0  0.025 0.425 0  0.05 0.425 0  0.075 0.425 0  0.1 0.425 0  0.125 0.425 0  0.15 0.425 0  0.175 0.425 0  0.2 0.425 0  0.225 0.425 0  0.25 0.425 0  0.275 0.425 0  0.3 0.425 0  0.325 0.425 0  0.35 0.425 0  0.375 0.425 0  0.4 0.425 0  0.425 0.425 0  0.45 0.425 0  0.475 0.425 0  0.5 0.425 0  0.525 0.425 0  0.55 0.425 0  0.575 0.425 0  0.6 0.425 0  0.625 0.425 0  0.65 0.425 0  0.675 0.425 0  0.7 0.425 0  0.725 0.425 0  0.75 0.425 0  0.775 0.425 0  0.8 0.425 0  0.825 0.425 0  0.85 0.425 0  0.875 0.425 0  0.9 0.425 0  0.925 0.425 0  0.95 0.425 0  0.975 0.425 0  1 0.425 0  0 0.45 0  0.02
[...]
<PointData  Scalars="ControlVisualisation"> 
<DataArray  type="Float64"  Name="ControlVisualisation"  format="ascii">2.3623492678086894e-01  2.1962677713070328e-01  2.1915002253931962e-01  2.1910325652079304e-01  2.1938442196457481e-01  2.1954949864777237e-01  2.1977697016233499e-01  2.1987504120172000e-01  2.2010772213960847e-01  2.2035459486332934e-01  2.2028273688444888e-01  2.2022938814909040e-01  2.2030795527908356e-01  2.2009284086660585e-01  2.1993205276168579e-01  2.1981987266896003e-01  2.1994220918571442e-01  2.2014844564191033e-01  2.2054153626758774e-01  2.2025403450682890e-01  2.1987427481488112e-01  2.1983202751196423e-01  2.1999337005216080e-01  2.2015693443947118e-01  2.2040508198614023e-01  2.2020219304400107e-01  2.1972198690377112e-01  2.1961110824551758e-01  2.1978061083229794e-01  2.1971683977657824e-01  2.1977018513759364e-01  2.1972611512691501e-01  2.1973847332652877e-01  2.1945701657752384e-01  2.1917165294248142e-01  2.1894597088590670e-01  2.1870481273139006e-01  2.1876178610814281e-01  2.1908256381332766e-01  2.1963770377989866e-01  2.5291719511773020e-01  2.2014324449980663e-01  1.7322768716666043e-01  1.7536057860888835e-01  1.7912448515186497e-01  1.8419911735915656e-01  1.9000184480494375e-01  1.9446652653403765e-01  1.9849897285163864e-01  2.0265421635769648e-01  2.0527195394305317e-01  2.0609632710698689e-01  2.0706090662389212e-01  2.0860452692573089e-01  2.0846951697420371e-01  2.0763171366693040e-01  2.0744303304890441e-01  2.0748673059396022e-01  2.0736404700794103e-01  2.0910755929814737e-01  2.0905595962537682e-01  2.0708329855685764e-01  2.0727018913651921e-01  2.0802388608650058e-01  2.0809337082487275e-01  2.0874305162979787e-01  2.0852329003610326e-01  2.0644202320327115e-01  2.0585586810890702e-01  2.0497624854719407e-01  2.0391723646029603e-01  2.0298255159307624e-01  2.0114507997919348e-01  1.9867223203919840e-01  1.9519556400489679e-01  1.9098113767824931e-01  1.8618298748997328e-01  1.8107088756846723e-01  1.7670549253684437e-01  1.7375404856285664e-01  1.7248356922282110e-01  2.1963929127755208e-01  2.2087015677945604e-01  1.7458079713912189e-01  1.8010902504036927e-01  1.8868961489104522e-01  1.9739958155435092e-01  2.0767565416990466e-01  2.1655016523569143e-01  2.2379979400499392e-01  2.3165462060625605e-01  2.3684094126405189e-01  2.3762427459412735e-01  2.4004906318143213e-01  2.4269998167197127e-01  2.4247515638876807e-01  2.4179599910194785e-01  2.4129567714410380e-01  2.4153954024784180e-01  2.4118894438691901e-01  2.4237850740271977e-01  2.4319087770099940e-01  2.4092058113344381e-01  2.4179000746212048e-01  2.4255129544787538e-01  2.4311558130553307e-01  2.4291230450908968e-01  2.4252208482047605e-01  2.4060541332943508e-01  2.3921341944077035e-01  2.3831790879487141e-01  2.3612491408310890e-01  2.3466366923231677e-01  2.3160716803450079e-01  2.2678194016437248e-01  2.2083333534188418e-01  2.1373075648469109e-01  2.0500500959158136e-01  1.9539874447128525e-01  1.8630130771228168e-01  1.7916325561919955e-01  1.7392542886718521e-01  2.1909350952153422e-01  2.2202865301612332e-01  1.7862896358281766e-01  1.8750621288376407e-01  1.9835143325621121e-01  2.0853925258589090e-01  2.1826454470009776e-01  2.2874582491768319e-01  2.3494053199518949e-01  2.4179126673449039e-01  2.4804504760851617e-01  2.4954187563955746e-01  2.5086401607686465e-01  2.5262090243285307e-01  2.5119043748235970e-01  2.5169160555526698e-01  2.5263090634941993e-01  2.5177437610873499e-01  2.5125573219573027e-01  2.5079250657840224e-01  2.5184539938243022e-01  2.5047411571247402e-01  2.5084943750606992e-01  2.5097263741556636e-01  2.5107394833228447e-01  2.5171699058338165e-01  2.5172699168166068e-01  2.5112221168443227e-01  2.4948661793955851e-01  2.4953698251067608e-01  2.4783674096776370e-01  2.4616553954696468e-01  2.4354713431344657e-01  2.3879035900233708e-01  2.3369371571349337e-01  2.2674758729970185e-01  2.1799473462078750e-01  2.0713853138513585e-01  1.9679230060933853e-01  1.8728609343585104e-01  1.7691455733597714e-01  2.1868498906934031e-01  2.2360087304374929e-01  1.8698609510449501e-01  2.0258602972623957e-01  2.1623028063863273e-01  2.2704896206103162e-01  2.3418760624380802e-01  2.4257782499305222e-01  2.4763191118627037e-01  2.5150044328689081e-01  2.5523552954646556e-01  2.5609890792316437e-01  2.5625433613472909e-01  2.5701512868942555e-01  2.5509059224681924e-01  2.5416402575517905e-01  2.5576441320047810e-01  2.5572790082123992e-01  2.5486502799012450e-01  2.5413572830514380e-01  2.5484414616380763e-01  2.5390999489292454e-01  2.5246345824425787e-01  2.5315164681469432e-01  2.5397941812510455e-01  2.5518301516777159e-01  2.5541371982079542e-01  2.5537199497110996e-01  2.5455661945958358e-01  2.5424882824380413e-01  2.5425629397566635e-01  2.5436523391752158e-01  2.5359924298436076e-01  2.5040064969044523e-01  2.4689065280211425e-01  2.4124992537244946e-01  2.3508071920253634e-01  2.2605623170368339e-01  2.1557458644026867e-01  2.0316474302868026e-01  1.8355285421797699e-01  2.1845473711934305e-01  2.2552696722393803e-01  2.0304926539522350e-01  2.3178306345470748e-01  2.4861159938033209e-01  2.5744130257821973e-01  2.6079457779893883e-01  2.6326177433036219e-01  2.6480325520639025e-01  2.6475687095153089e-01  2.6400638897971240e-01  2.6287764822220311e-01  2.6326194213853232e-01  2.6276765406930125e-01  2.5959622875839622e-01  2.5895483117314783e-01  2.5705633074689338e-01  2.5619057814436447e-01  2.5668877698045200e-01  2.5627508292487011e-01  2.5707569721644491e-01  2.5534043320398397e-01  2.5387235700115401e-01  2.5431412831482653e-01  2.5613380582874790e-01  2.5689087119063120e-01  2.5724732507623305e-01  2.5805710095501955e-01  2.5848635383479368e-01  2.5889613872428235e-01  2.6031923659352546e-01  2.6254008957048358e-01  2.6444214890103412e-01  2.6367794076411605e-01  2.6296831074071725e-01  2.6259677808745391e-01  2.6101598588908709e-01  2.5721972111699043e-01  2.4829463334552879e-01  2.3134355743928228e-01  1.9470730108858675e-01  2.1837211319650865e-01  2.3480014898196025e-01  2.4086771137211660e-01  2.8898937089172172e-01  3.0192710281091717e-01  3.0064006322593922e-01  2.9374253056030269e-01  2.8911128164751621e-01  2.8328875270180282e-01  2.7972751566571641e-01  2.7551749804619402e-01  2.7172821893666022e-01  2.6854957603259533e-01  2.6673140166322096e-01  2.6254859421864474e-01  2.6189328615377466e-01  2.5962374162541896e-01  2.5784688493768348e-01  2.5620543903124948e-01  2.5545347149369441e-01  2.5592727476357552e-01  2.5415380674450538e-01  2.5454391312960450e-01  2.5556661043455514e-01  2.5825182743751629e-01  2.5807740872462709e-01  2.5743541298642619e-01  2.6034590711847622e-01  2.6268517849358192e-01  2.6437935271325708e-01  2.6785811945069338e-01  2.7107369160172340e-01  2.7477632136672508e-01  2.7879654063091364e-01  2.8269799558998504e-01  2.8864782667206451e-01  2.9536624221820612e-01  3.0113069901447953e-01  3.0171157826777606e-01  2.8733070524919263e-01  2.2946322874083211e-01  2.2004580301684584e-01  3.1221235906919470e-01  3.5272320510816002e-01  3.8302396518420490e-01  3.7767941969239072e-01  3.5752996462801229e-01  3.3462133861202253e-01  3.1741985749769608e-01  3.0397812941111174e-01  2.9400784403566027e-01  2.8613484367434894e-01  2.8006616699646852e-01  2.7399996631267232e-01  2.6971973522074005e-01  2.6464701716390421e-01  2.6363391906082911e-01  2.5972942579915181e-01  2.5711049924997603e-01  2.5713672649807767e-01  2.5544765138935577e-01  2.5433684684906244e-01  2.5362696210999824e-01  2.5536205399458201e-01  2.5657191909249966e-01  2.5765047755301496e-01  2.5864809762325724e-01  2.5947756294959817e-01  2.6172442126163137e-01  2.6513554054242683e-01  2.6747859956837050e-01  2.7432720317520931e-01  2.8066405346817624e-01  2.8531508596354843e-01  2.9420763293710472e-01  3.0346027638194417e-01  3.1790589213030340e-01  3.3642050356112130e-01  3.5707377499289433e-01  3.7640357259448748e-01  3.7957114970309974e-01  3.6319582599341443e-01  2.6832752445187735e-01  4.7776259695408185e-01  5.3874943719026469e-01  4.9262125297396897e-01  4.5821527700498321e-01  4.1768184017571919e-01  3.7649046461936292e-01  3.4515855375252213e-01  3.2247333506853026e-01  3.0723342353390715e-01  2.9459946076969595e-01  2.8578782232184874e-01  2.7903166283061265e-01  2.7191318834323885e-01  2.6574129317881051e-01  2.6205744634569322e-01  2.5647818007950163e-01  2.5437332504933458e-01  2.5497458011854546e-01  2.5440191427950504e-01  2.5316644451167097e-01  2.5435046306744957e-01  2.5544267939847692e-01  2.5607271747192101e-01  2.5624570050309037e-01  2.5831877621242955e-01  2.5972497081954610e-01  2.6205106767736192e-01  2.6652988154430479e-01  2.6987866387082327e-01  2.7644794319852684e-01  2.8567767954815804e-01  2.9425466305515285e-01  3.0681596852109488e-01  3.2280032102391337e-01  3.4718100726834694e-01  3.7709632264684567e-01  4.1389963395530310e-01  4.5441879397132245e-01  4.8859167833884226e-01  5.4570725414865917e-01  4.4372252260604628e-01  5.7234925221082711e-01  6.6517235899751015e-01  5.7338514119188277e-01  5.1782796152426591e-01  4.6425856277340177e-01  4.1071955077632788e-01  3.6747679542286826e-01  3.3624680646295763e-01  3.1499487452644254e-01  2.9935806473188059e-01  2.8774973658370845e-01  2.8011937390091857e-01  2.7148989045006877e-01  2.6648703157717646e-01  2.6168160956898645e-01  2.5557762825516334e-01  2.5260091457725997e-01  2.5304418037374043e-01  2.5053347859525049e-01  2.5028786934149799e-01  2.5039921536322785e-01  2.5259446983877359e-01  2.5234145526799201e-01  2.5415092736599548e-01  2.5612865278412161e-01  2.5846483321695646e-01  2.6028985557194778e-01  2.6333855952990398e-01  2.6919912077469982e-01  2.7660714415320337e-01  2.8484884381712250e-01  2.9909351486883029e-01  3.1578929478773710e-01  3.3772641378538582e-01  3.6992650281341971e-01  4.0893744216450018e-01  4.5769966218015984e-01  5.1593012404150851e-01  5.7994939572137871e-01  6.6742896648185779e-01  5.5500796862624047e-01  5.9818123428939030e-01  7.2120206907552353e-01  6.1709574957255175e-01  5.4930758573430716e-01  4.8867952305447715e-01  4.3020543339233874e-01  3.8200185400788328e-01  3.4556605415541064e-01  3.2062955157269957e-01  3.0216776675402640e-01  2.8975150690120655e-01  2.7981382192507248e-01  2.7076058162829769e-01  2.6412949729735730e-01  2.5999678801146198e-01  2.5532348390815379e-01  2.5486586129684080e-01  2.5331246542687652e-01  2.4955174044843426e-01  2.4827440907893364e-01  2.4818955378353624e-01  2.4937163322124734e-01  2.4905672904281750e-01  2.5099278351411702e-01  2.5384271639535572e-01  2.5534552097532648e-01  2.5863360455915452e-01  2.6259244954136074e-01  2.6634381378763106e-01  2.7530237053127232e-01  2.8414155664973229e-01  3.0004753839076637e-01  3.1917414198618160e-01  3.4623537983028307e-01  3.8251676787798250e-01  4.2912211118774130e-01  4.8395394755104326e-01  5.4776165865899251e-01  6.1800345817301960e-01  7.2109683207356789e-01  5.9783644687622595e-01  5.5255185309385568e-01  6.7874089458529652e-01  6.0564934829645256e-01  5.4765995868629547e-01  4.8801215214537036e-01  4.3057367217309672e-01  3.8234129596487432e-01  3.4549525609818493e-01  3.2070790492757068e-01  3.0154835965525129e-01  2.8635008753373187e-01  2.7571109584569964e-01  2.6739792570878546e-01  2.6123817140561056e-01  2.5569841738585181e-01  2.5302023590102335e-01  2.5161194373480283e-01  2.4990181740147244e-01  2.4717690963275876e-01  2.4567466018763312e-01  2.4455527719941228e-01  2.4531373247847402e-01  2.4630882938837809e-01  2.4746577136720635e-01  2.4987232889894775e-01  2.5221215175030315e-01  2.5600481811488646e-01  2.6066560849713244e-01  2.6422015627435952e-01  2.7133398989725110e-01  2.8338895098221956e-01  2.9997113584231977e-01  3.2071782273741467e-01  3.4557103343387174e-01  3.8162526397998842e-01  4.2811234981691243e-01  4.8601734516904366e-01  5.4509894876332132e-01  5.9712120182665618e-01  6.7723227410686115e-01  5.7661663260638041e-01  4.4295313858401358e-01  5.6695670529141473e-01  5.4152009744755270e-01  5.1626617050633039e-01  4.6688141356641422e-01  4.1631535779744883e-01  3.7256391235697972e-01  3.3928172421411323e-01  3.1591228127918741e-01  2.9859888112406224e-01  2.8292560135036715e-01  2.7149749295888603e-01  2.6426571517363701e-01  2.5916960296148123e-01  2.5373404033278979e-01  2.4934650936629235e-01  2.4600804460922210e-01  2.4428615568717982e-01  2.4364906288218768e-01  2.4148809181972131e-01  2.4162410631248965e-01  2.4193229179355638e-01  2.4365253203432194e-01  2.4430285069199681e-01  2.4712083676869565e-01  2.4926929754637445e-01  2.5251500498242341e-01  2.5666707069897393e-01  2.6119732383705579e-01  2.6904734239855005e-01  2.8128455192176521e-01  2.9593114788908981e-01  3.1437920144719744e-01  3.3840118862372481e-01  3.7071406561258163e-01  4.1284596280626462e-01  4.6413577599556105e-01  5.1248391060325560e-01  5.4035939601847127e-01  5.6195497846266629e-01  4.8089743467681256e-01  2.7438651078598775e-01  4.1140565803973245e-01  4.5926889037118945e-01  4.6152021150822542e-01  4.2864561745545571e-01  3.8880723707855724e-01  3.5239133491542890e-01  3.2518631148963861e-01  3.0496979563725701e-01  2.8923942820778442e-01  2.7743502567168277e-01  2.6664119947574405e-01  2.5960767547981245e-01  2.5555319290709588e-01  2.5086777189620502e-01  2.4517835317463429e-01  2.4217846254768105e-01  2.4000221710339306e-01  2.3887494025200465e-01  2.3669863989841425e-01  2.3757397778442629e-01  2.3760132625045299e-01  2.3888155569991232e-01  2.3987880218811930e-01  2.4232087177845779e-01  2.4468432421433822e-01  2.4750873271563076e-01  2.5132797011772390e-01  2.5562672421993937e-01  2.6324995790728317e-01  2.7450280552620215e-01  2.8777680862312305e-01  3.0418549223849822e-01  3.2436923482585017e-01  3.5082531803745648e-01  3.8501533843411501e-01  4.2632647834818593e-01  4.6120100795810526e-01  4.6299872378831741e-01  4.0101282137496808e-01  3.1835051508840795e-01  2.2522933885100768e-01  2.8775541497130197e-01  3.8196944305051139e-01  3.9850854918769635e-01  3.8116355733938001e-01  3.5616613149280230e-01  3.3085784419543923e-01  3.0908910706226728e-01  2.9291070564608879e-01  2.7898144664394309e-01  2.6752097627414001e-01  2.5990585644628394e-01  2.5493675736541016e-01  2.5082666684995408e-01  2.4516845640886448e-01  2.4121554878326748e-01  2.3902910778342540e-01  2.3760722175720023e-01  2.3498594762731931e-01  2.3208408876880440e-01  2.3286736872816349e-01  2.3400722831806828e-01  2.3376040500534276e-01  2.3527325257395015e-01  2.3661477624228586e-01  2.3900302051200498e-01  2.4225979623105126e-01  2.4647748656548565e-01  2.5045934060739838e-01  2.5730286154269488e-01  2.6557969309469565e-01  2.7599981420190667e-01  2.9026556500147704e-01  3.0779530253599907e-01  3.2762269247623138e-01  3.5201006187019218e-01  3.8007909170768711e-01  3.9909718983120274e-01  3.8408246529709533e-01  2.9812949992999455e-01  2.4293690338902227e-01  2.2183889518214331e-01  2.4401080269361278e-01  3.2237943156228127e-01  3.4320312160371591e-01  3.3852207919956911e-01  3.2366245187337911e-01  3.0812349428272617e-01  2.9344217386507560e-01  2.8050300941002321e-01  2.6814252577348707e-01  2.5793094363374303e-01  2.5151552338542726e-01  2.4863187421743824e-01  2.4481600027044495e-01  2.4039687486291403e-01  2.3719649346335236e-01  2.3468626642905330e-01  2.3315029579327207e-01  2.3181516366550173e-01  2.2909441834198843e-01  2.2816517522234994e-01  2.2895882152788324e-01  2.2940467278433863e-01  2.3004274002115144e-01  2.3184099337149139e-01  2.3486636456727206e-01  2.3695088818235563e-01  2.4145177290593234e-01  2.4515102882112733e-01  2.5056767173228223e-01  2.5653873892091594e-01  2.6436984238970163e-01  2.7561065609957197e-01  2.9079097757885747e-01  3.0503680013993711e-01  3.1993218973349796e-01  3.3482031165427295e-01  3.4263470610518104e-01  3.2416281656287832e-01  2.5609150330148600e-01  2.3289330319260440e-01  2.2125141427138770e-01  2.2679873209920703e-01  2.8466113524181613e-01  3.0241921618849926e-01  3.0196570922306465e-01  2.9425610053059570e-01  2.8373153222557729e-01  2.7330900725471663e-01  2.6408999897185936e-01  2.5405079710078637e-01  2.4665268800162110e-01  2.4118276081991016e-01  2.3828253775226449e-01  2.3599139138531031e-01  2.3344781964314962e-01  2.3134452600599575e-01  2.2871544277858141e-01  2.2609157753655346e-01  2.2535384628238561e-01  2.2460615988713900e-01  2.2374939742536606e-01  2.2233913095575525e-01  2.2330357145837326e-01  2.2445473026983864e-01  2.2535663720616797e-01  2.2739177659713072e-01  2.3115615786169671e-01  2.3462658370791348e-01  2.3725094878858130e-01  2.4103127747144565e-01  2.4581441446643404e-01  2.5160249057754369e-01  2.5924978214321859e-01  2.7006496359133886e-01  2.8074511942513192e-01  2.8870639796043618e-01  2.9582363349712870e-01  2.9925163905788094e-01  2.8458040500915077e-01  2.3372608609128151e-01  2.3059892413721766e-01  2.2070150484055870e-01  2.1565427180427008e-01  2.6113211648569890e-01  2.7435275504328560e-01  2.7272297947946567e-01  2.6929839788558302e-01  2.6293648233455291e-01  2.5571709181199215e-01  2.4942827572093429e-01  2.4456243093929642e-01  2.3851182249746122e-01  2.3307293414136862e-01  2.2988036609392629e-01  2.2934322119129419e-01  2.2829749966753435e-01  2.2616692986365389e-01  2.2285531789920690e-01  2.2033531989871571e-01  2.1996659061646759e-01  2.2001023024848587e-01  2.1971219925424096e-01  2.1863348909869873e-01  2.1829484401195254e-01  2.2035565603784274e-01  2.2108494074849072e-01  2.2149823198353741e-01  2.2414068967403586e-01  2.2782271407524024e-01  2.3002016250040286e-01  2.3335913946903475e-01  2.3768040993812672e-01  2.4159219199724741e-01  2.4589750810185587e-01  2.5273981807395463e-01  2.5981466393671843e-01  2.6500761645935672e-01  2.6659829796875406e-01  2.6819088869239832e-01  2.5790734886030708e-01  2.2089012442744183e-01  2.2889813347779678e-01  2.2035371880935017e-01  2.0786865103956190e-01  2.4337757808344346e-01  2.5294879223099959e-01  2.5154568703257441e-01  2.4945681714743068e-01  2.4647043628368243e-01  2.4236650390745473e-01  2.3824987723822555e-01  2.3412590617345877e-01  2.2908212939990505e-01  2.2576511528968221e-01  2.2370006058048061e-01  2.2344573680283000e-01  2.2193966522737110e-01  2.1894402351813358e-01  2.1734294987358913e-01  2.1662276981023346e-01  2.1584805374097327e-01  2.1508592113955188e-01  2.1512406611581386e-01  2.1499490581971423e-01  2.1405920617422020e-01  2.1538212327701051e-01  2.1728588695850462e-01  2.1759962008205905e-01  2.1816727095955069e-01  2.2075418801124874e-01  2.2279178299125985e-01  2.2422562418935665e-01  2.2834074552537262e-01  2.3204036735782499e-01  2.3570367426948158e-01  2.3828167439448886e-01  2.4278972640884117e-01  2.4601214017119105e-01  2.4679448999927334e-01  2.4630794317192306e-01  2.3868808815112419e-01  2.1130309140180006e-01  2.2758315893743120e-01  2.1968913802228390e-01  2.0017486829732001e-01  2.2710621394718083e-01  2.3447980128910356e-01  2.3597697065702347e-01  2.3559954708483308e-01  2.3271541321605591e-01  2.2935877686481795e-01  2.2742198783579579e-01  2.2487200629263246e-01  2.2090492466741277e-01  2.1876451288255463e-01  2.1776103208598963e-01  2.1632794755784393e-01  2.1562002234398811e-01  2.1442401795386343e-01  2.1237870733289865e-01  2.1253274753785953e-01  2.1235639474239698e-01  2.1148939341397024e-01  2.1049346375832167e-01  2.1150720137510121e-01  2.1156236023709954e-01  2.1201217503209085e-01  2.1329951277788592e-01  2.1387212602407424e-01  2.1469712906886129e-01  2.1543352729640849e-01  2.1623022525355562e-01  2.1774340565404904e-01  2.1909761973710867e-01  2.2233949895221547e-01  2.2560665917390810e-01  2.2776078373607961e-01  2.2991022717572118e-01  2.3187432092929572e-01  2.3212518029205645e-01  2.3067171333605568e-01  2.2315102985416588e-01  2.0347802508444623e-01  2.2673846487004240e-01  2.1912914589551907e-01  1.9397453431998710e-01  2.1552832632796734e-01  2.2082257829441784e-01  2.2289624215935411e-01  2.2349783420250038e-01  2.2116711706956274e-01  2.1944052127138253e-01  2.188012157