<?xml version="1.0"?>
<VTKFile type="UnstructuredGrid"  version="0.1"  >
<UnstructuredGrid>
<Piece  NumberOfPoints="1681" NumberOfCells="3200">
<Points>
<DataArray  type="Float64"  NumberOfComponents="3"  format="ascii">0 0 0  0.025 0 0  0.05 0 0  0.075 0 0  0.1 0 0  0.125 0 0  0.15 0 0  0.175 0 0  0.2 0 0  0.225 0 0  0.25 0 0  0.275 0 0  0.3 0 0  0.325 0 0  0.35 0 0  0.375 0 0  0.4 0 0  0.425 0 0  0.45 0 0  0.475 0 0  0.5 0 0  0.525 0 0  0.55 0 0  0.575 0 0  0.6 0 0  0.625 0 0  0.65 0 0  0.675 0 0  0.7 0 0  0.725 0 0  0.75 0 0  0.775 0 0  0.8 0 0  0.825 0 0  0.85 0 0  0.875 0 0  0.9 0 0  0.925 0 0  0.95 0 0  0.975 0 0  1 0 0  0 0.025 0  0.025 0.025 0  0.05 0.025 0  0.075 0.025 0  0.1 0.025 0  0.125 0.025 0  0.15 0.025 0  0.175 0.025 0  0.2 0.025 0  0.225 0.025 0  0.25 0.025 0  0.275 0.025 0  0.3 0.025 0  0.325 0.025 0  0.35 0.025 0  0.375 0.025 0  0.4 0.025 0  0.425 0.025 0  0.45 0.025 0  0.475 0.025 0  0.5 0.025 0  0.525 0.025 0  0.55 0.025 0  0.575 0.025 0  0.6 0.025 0  0.625 0.025 0  0.65 0.025 0  0.675 0.025 0  0.7 0.025 0  0.725 0.025 0  0.75 0.025 0  0.775 0.025 0  0.8 0.025 0  0.825 0.025 0  0.85 0.025 0  0.875 0.025 0  0.9 0.025 0  0.925 0.025 0  0.95 0.025 0  0.975 0.025 0  1 0.025 0  0 0.05 0  0.025 0.05 0  0.05 0.05 0  0.075 0.05 0  0.1 0.05 0  0.125 0.05 0  0.15 0.05 0  0.175 0.05 0  0.2 0.05 0  0.225 0.05 0  0.25 0.05 0  0.275 0.05 0  0.3 0.05 0  0.325 0.05 0  0.35 0.05 0  0.375 0.05 0  0.4 0.05 0  0.425 0.05 0  0.45 0.05 0  0.475 0.05 0  0.5 0.05 0  0.525 0.05 0  0.55 0.05 0  0.575 0.05 0  0.6 0.05 0  0.625 0.05 0  0.65 0.05 0  0.675 0.05 0  0.7 0.05 0  0.725 0.05 0  0.75 0.05 0  0.775 0.05 0  0.8 0.05 0  0.825 0.05 0  0.85 0.05 0  0.875 0.05 0  0.9 0.05 0  0.925 0.05 0  0.95 0.05 0  0.975 0.05 0  1 0.05 0  0 0.075 0  0.025 0.075 0  0.05 0.075 0  0.075 0.075 0  0.1 0.075 0  0.125 0.075 0  0.15 0.075 0  0.175 0.075 0  0.2 0.075 0  0.225 0.075 0  0.25 0.075 0  0.275 0.075 0  0.3 0.075 0  0.325 0.075 0  0.35 0.075 0  0.375 0.075 0  0.4 0.075 0  0.425 0.075 0  0.45 0.075 0  0.475 0.075 0  0.5 0.075 0  0.525 0.075 0  0.55 0.075 0  0.575 0.075 0  0.6 0.075 0  0.625 0.075 0  0.65 0.075 0  0.675 0.075 0  0.7 0.075 0  0.725 0.075 0  0.75 0.075 0  0.775 0.075 0  0.8 0.075 0  0.825 0.075 0  0.85 0.075 0  0.875 0.075 0  0.9 0.075 0  0.925 0.075 0  0.95 0.075 0  0.975 0.075 0  1 0.075 0  0 0.1 0  0.025 0.1 0  0.05 0.1 0  0.075 0.1 0  0.1 0.1 0  0.125 0.1 0  0.15 0.1 0  0.175 0.1 0  0.2 0.1 0  0.225 0.1 0  0.25 0.1 0  0.275 0.1 0  0.3 0.1 0  0.325 0.1 0  0.35 0.1 0  0.375 0.1 0  0.4 0.1 0  0.425 0.1 0  0.45 0.1 0  0.475 0.1 0  0.5 0.1 0  0.525 0.1 0  0.55 0.1 0  0.575 0.1 0  0.6 0.1 0  0.625 0.1 0  0.65 0.1 0  0.675 0.1 0  0.7 0.1 0  0.725 0.1 0  0.75 0.1 0  0.775 0.1 0  0.8 0.1 0  0.825 0.1 0  0.85 0.1 0  0.875 0.1 0  0.9 0.1 0  0.925 0.1 0  0.95 0.1 0  0.975 0.1 0  1 0.1 0  0 0.125 0  0.025 0.125 0  0.05 0.125 0  0.075 0.125 0  0.1 0.125 0  0.125 0.125 0  0.15 0.125 0  0.175 0.125 0  0.2 0.125 0  0.225 0.125 0  0.25 0.125 0  0.275 0.125 0  0.3 0.125 0  0.325 0.125 0  0.35 0.125 0  0.375 0.125 0  0.4 0.125 0  0.425 0.125 0  0.45 0.125 0  0.475 0.125 0  0.5 0.125 0  0.525 0.125 0  0.55 0.125 0  0.575 0.125 0  0.6 0.125 0  0.625 0.125 0  0.65 0.125 0  0.675 0.125 0  0.7 0.125 0  0.725 0.125 0  0.75 0.125 0  0.775 0.125 0  0.8 0.125 0  0.825 0.125 0  0.85 0.125 0  0.875 0.125 0  0.9 0.125 0  0.925 0.125 0  0.95 0.125 0  0.975 0.125 0  1 0.125 0  0 0.15 0  0.025 0.15 0  0.05 0.15 0  0.075 0.15 0  0.1 0.15 0  0.125 0.15 0  0.15 0.15 0  0.175 0.15 0  0.2 0.15 0  0.225 0.15 0  0.25 0.15 0  0.275 0.15 0  0.3 0.15 0  0.325 0.15 0  0.35 0.15 0  0.375 0.15 0  0.4 0.15 0  0.425 0.15 0  0.45 0.15 0  0.475 0.15 0  0.5 0.15 0  0.525 0.15 0  0.55 0.15 0  0.575 0.15 0  0.6 0.15 0  0.625 0.15 0  0.65 0.15 0  0.675 0.15 0  0.7 0.15 0  0.725 0.15 0  0.75 0.15 0  0.775 0.15 0  0.8 0.15 0  0.825 0.15 0  0.85 0.15 0  0.875 0.15 0  0.9 0.15 0  0.925 0.15 0  0.95 0.15 0  0.975 0.15 0  1 0.15 0  0 0.175 0  0.025 0.175 0  0.05 0.175 0  0.075 0.175 0  0.1 0.175 0  0.125 0.175 0  0.15 0.175 0  0.175 0.175 0  0.2 0.175 0  0.225 0.175 0  0.25 0.175 0  0.275 0.175 0  0.3 0.175 0  0.325 0.175 0  0.35 0.175 0  0.375 0.175 0  0.4 0.175 0  0.425 0.175 0  0.45 0.175 0  0.475 0.175 0  0.5 0.175 0  0.525 0.175 0  0.55 0.175 0  0.575 0.175 0  0.6 0.175 0  0.625 0.175 0  0.65 0.175 0  0.675 0.175 0  0.7 0.175 0  0.725 0.175 0  0.75 0.175 0  0.775 0.175 0  0.8 0.175 0  0.825 0.175 0  0.85 0.175 0  0.875 0.175 0  0.9 0.175 0  0.925 0.175 0  0.95 0.175 0  0.975 0.175 0  1 0.175 0  0 0.2 0  0.025 0.2 0  0.05 0.2 0  0.075 0.2 0  0.1 0.2 0  0.125 0.2 0  0.15 0.2 0  0.175 0.2 0  0.2 0.2 0  0.225 0.2 0  0.25 0.2 0  0.275 0.2 0  0.3 0.2 0  0.325 0.2 0  0.35 0.2 0  0.375 0.2 0  0.4 0.2 0  0.425 0.2 0  0.45 0.2 0  0.475 0.2 0  0.5 0.2 0  0.525 0.2 0  0.55 0.2 0  0.575 0.2 0  0.6 0.2 0  0.625 0.2 0  0.65 0.2 0  0.675 0.2 0  0.7 0.2 0  0.725 0.2 0  0.75 0.2 0  0.775 0.2 0  0.8 0.2 0  0.825 0.2 0  0.85 0.2 0  0.875 0.2 0  0.9 0.2 0  0.925 0.2 0  0.95 0.2 0  0.975 0.2 0  1 0.2 0  0 0.225 0  0.025 0.225 0  0.05 0.225 0  0.075 0.225 0  0.1 0.225 0  0.125 0.225 0  0.15 0.225 0  0.175 0.225 0  0.2 0.225 0  0.225 0.225 0  0.25 0.225 0  0.275 0.225 0  0.3 0.225 0  0.325 0.225 0  0.35 0.225 0  0.375 0.225 0  0.4 0.225 0  0.425 0.225 0  0.45 0.225 0  0.475 0.225 0  0.5 0.225 0  0.525 0.225 0  0.55 0.225 0  0.575 0.225 0  0.6 0.225 0  0.625 0.225 0  0.65 0.225 0  0.675 0.225 0  0.7 0.225 0  0.725 0.225 0  0.75 0.225 0  0.775 0.225 0  0.8 0.225 0  0.825 0.225 0  0.85 0.225 0  0.875 0.225 0  0.9 0.225 0  0.925 0.225 0  0.95 0.225 0  0.975 0.225 0  1 0.225 0  0 0.25 0  0.025 0.25 0  0.05 0.25 0  0.075 0.25 0  0.1 0.25 0  0.125 0.25 0  0.15 0.25 0  0.175 0.25 0  0.2 0.25 0  0.225 0.25 0  0.25 0.25 0  0.275 0.25 0  0.3 0.25 0  0.325 0.25 0  0.35 0.25 0  0.375 0.25 0  0.4 0.25 0  0.425 0.25 0  0.45 0.25 0  0.475 0.25 0  0.5 0.25 0  0.525 0.25 0  0.55 0.25 0  0.575 0.25 0  0.6 0.25 0  0.625 0.25 0  0.65 0.25 0  0.675 0.25 0  0.7 0.25 0  0.725 0.25 0  0.75 0.25 0  0.775 0.25 0  0.8 0.25 0  0.825 0.25 0  0.85 0.25 0  0.875 0.25 0  0.9 0.25 0  0.925 0.25 0  0.95 0.25 0  0.975 0.25 0  1 0.25 0  0 0.275 0  0.025 0.275 0  0.05 0.275 0  0.075 0.275 0  0.1 0.275 0  0.125 0.275 0  0.15 0.275 0  0.175 0.275 0  0.2 0.275 0  0.225 0.275 0  0.25 0.275 0  0.275 0.275 0  0.3 0.275 0  0.325 0.275 0  0.35 0.275 0  0.375 0.275 0  0.4 0.275 0  0.425 0.275 0  0.45 0.275 0  0.475 0.275 0  0.5 0.275 0  0.525 0.275 0  0.55 0.275 0  0.575 0.275 0  0.6 0.275 0  0.625 0.275 0  0.65 0.275 0  0.675 0.275 0  0.7 0.275 0  0.725 0.275 0  0.75 0.275 0  0.775 0.275 0  0.8 0.275 0  0.825 0.275 0  0.85 0.275 0  0.875 0.275 0  0.9 0.275 0  0.925 0.275 0  0.95 0.275 0  0.975 0.275 0  1 0.275 0  0 0.3 0  0.025 0.3 0  0.05 0.3 0  0.075 0.3 0  0.1 0.3 0  0.125 0.3 0  0.15 0.3 0  0.175 0.3 0  0.2 0.3 0  0.225 0.3 0  0.25 0.3 0  0.275 0.3 0  0.3 0.3 0  0.325 0.3 0  0.35 0.3 0  0.375 0.3 0  0.4 0.3 0  0.425 0.3 0  0.45 0.3 0  0.475 0.3 0  0.5 0.3 0  0.525 0.3 0  0.55 0.3 0  0.575 0.3 0  0.6 0.3 0  0.625 0.3 0  0.65 0.3 0  0.675 0.3 0  0.7 0.3 0  0.725 0.3 0  0.75 0.3 0  0.775 0.3 0  0.8 0.3 0  0.825 0.3 0  0.85 0.3 0  0.875 0.3 0  0.9 0.3 0  0.925 0.3 0  0.95 0.3 0  0.975 0.3 0  1 0.3 0  0 0.325 0  0.025 0.325 0  0.05 0.325 0  0.075 0.325 0  0.1 0.325 0  0.125 0.325 0  0.15 0.325 0  0.175 0.325 0  0.2 0.325 0  0.225 0.325 0  0.25 0.325 0  0.275 0.325 0  0.3 0.325 0  0.325 0.325 0  0.35 0.325 0  0.375 0.325 0  0.4 0.325 0  0.425 0.325 0  0.45 0.325 0  0.475 0.325 0  0.5 0.325 0  0.525 0.325 0  0.55 0.325 0  0.575 0.325 0  0.6 0.325 0  0.625 0.325 0  0.65 0.325 0  0.675 0.325 0  0.7 0.325 0  0.725 0.325 0  0.75 0.325 0  0.775 0.325 0  0.8 0.325 0  0.825 0.325 0  0.85 0.325 0  0.875 0.325 0  0.9 0.325 0  0.925 0.325 0  0.95 0.325 0  0.975 0.325 0  1 0.325 0  0 0.35 0  0.025 0.35 0  0.05 0.35 0  0.075 0.35 0  0.1 0.35 0  0.125 0.35 0  0.15 0.35 0  0.175 0.35 0  0.2 0.35 0  0.225 0.35 0  0.25 0.35 0  0.275 0.35 0  0.3 0.35 0  0.325 0.35 0  0.35 0.35 0  0.375 0.35 0  0.4 0.35 0  0.425 0.35 0  0.45 0.35 0  0.475 0.35 0  0.5 0.35 0  0.525 0.35 0  0.55 0.35 0  0.575 0.35 0  0.6 0.35 0  0.625 0.35 0  0.65 0.35 0  0.675 0.35 0  0.7 0.35 0  0.725 0.35 0  0.75 0.35 0  0.775 0.35 0  0.8 0.35 0  0.825 0.35 0  0.85 0.35 0  0.875 0.35 0  0.9 0.35 0  0.925 0.35 0  0.95 0.35 0  0.975 0.35 0  1 0.35 0  0 0.375 0  0.025 0.375 0  0.05 0.375 0  0.075 0.375 0  0.1 0.375 0  0.125 0.375 0  0.15 0.375 0  0.175 0.375 0  0.2 0.375 0  0.225 0.375 0  0.25 0.375 0  0.275 0.375 0  0.3 0.375 0  0.325 0.375 0  0.35 0.375 0  0.375 0.375 0  0.4 0.375 0  0.425 0.375 0  0.45 0.375 0  0.475 0.375 0  0.5 0.375 0  0.525 0.375 0  0.55 0.375 0  0.575 0.375 0  0.6 0.375 0  0.625 0.375 0  0.65 0.375 0  0.675 0.375 0  0.7 0.375 0  0.725 0.375 0  0.75 0.375 0  0.775 0.375 0  0.8 0.375 0  0.825 0.375 0  0.85 0.375 0  0.875 0.375 0  0.9 0.375 0  0.925 0.375 0  0.95 0.375 0  0.975 0.375 0  1 0.375 0  0 0.4 0  0.025 0.4 0  0.05 0.4 0  0.075 0.4 0  0.1 0.4 0  0.125 0.4 0  0.15 0.4 0  0.175 0.4 0  0.2 0.4 0  0.225 0.4 0  0.25 0.4 0  0.275 0.4 0  0.3 0.4 0  0.325 0.4 0  0.35 0.4 0  0.375 0.4 0  0.4 0.4 0  0.425 0.4 0  0.45 0.4 0  0.475 0.4 0  0.5 0.4 0  0.525 0.4 0  0.55 0.4 0  0.575 0.4 0  0.6 0.4 0  0.625 0.4 0  0.65 0.4 0  0.675 0.4 0  0.7 0.4 0  0.725 0.4 0  0.75 0.4 0  0.775 0.4 0  0.8 0.4 0  0.825 0.4 0  0.85 0.4 0  0.875 0.4 0  0.9 0.4 0  0.925 0.4 0  0.95 0.4 0  0.975 0.4 0  1 0.4 0  0 0.425 0  0.025 0.425 0  0.05 0.425 0  0.075 0.425 0  0.1 0.425 0  0.125 0.425 0  0.15 0.425 0  0.175 0.425 0  0.2 0.425 0  0.225 0.425 0  0.25 0.425 0  0.275 0.425 0  0.3 0.425 0  0.325 0.425 0  0.35 0.425 0  0.375 0.425 0  0.4 0.425 0  0.425 0.425 0  0.45 0.425 0  0.475 0.425 0  0.5 0.425 0  0.525 0.425 0  0.55 0.425 0  0.575 0.425 0  0.6 0.425 0  0.625 0.425 0  0.65 0.425 0  0.675 0.425 0  0.7 0.425 0  0.725 0.425 0  0.75 0.425 0  0.775 0.425 0  0.8 0.425 0  0.825 0.425 0  0.85 0.425 0  0.875 0.425 0  0.9 0.425 0  0.925 0.425 0  0.95 0.425 0  0.975 0.425 0  1 0.425 0  0 0.45 0  0.02
[...]
<PointData  Scalars="ControlVisualisation"> 
<DataArray  type="Float64"  Name="ControlVisualisation"  format="ascii">4.3936920421543152e-01  4.1321511019433260e-01  4.1321406993183707e-01  4.1340602544229582e-01  4.1385993077106403e-01  4.1453008428974447e-01  4.1531594511700320e-01  4.1611599273220046e-01  4.1685693973231924e-01  4.1749896207661963e-01  4.1802874824897812e-01  4.1844982211640508e-01  4.1877450183051235e-01  4.1901845646255365e-01  4.1919747314868172e-01  4.1932576247189207e-01  4.1941521878490168e-01  4.1947521686040401e-01  4.1951267072531911e-01  4.1953218623161026e-01  4.1953620993066515e-01  4.1952512214492360e-01  4.1949725082810330e-01  4.1944880291437131e-01  4.1937372868750750e-01  4.1926355938870263e-01  4.1910729621654519e-01  4.1889148899676454e-01  4.1860073180360075e-01  4.1821893123191972e-01  4.1773186361492842e-01  4.1713164946633130e-01  4.1642379862764817e-01  4.1563652669740042e-01  4.1482959152293797e-01  4.1409627375064517e-01  4.1354346949313037e-01  4.1324675678228934e-01  4.1318985801414232e-01  4.1323746231283820e-01  4.6578039612536976e-01  4.1321111774422586e-01  3.3781177618327607e-01  3.3875566901043508e-01  3.4153364412209652e-01  3.4666422124428070e-01  3.5377336580169050e-01  3.6196384952663557e-01  3.7030461538848713e-01  3.7810154291708531e-01  3.8495745166137690e-01  3.9071960574586317e-01  3.9539742435242931e-01  3.9909061609486118e-01  4.0193833135314622e-01  4.0408737725777899e-01  4.0567432056742458e-01  4.0681663792908629e-01  4.0760926682632315e-01  4.0812405489039727e-01  4.0841049091842796e-01  4.0849672984207214e-01  4.0839035001037255e-01  4.0807856721771285e-01  4.0752783678512439e-01  4.0668296043657859e-01  4.0546603500334738e-01  4.0377589167570321e-01  4.0148913854858703e-01  3.9846458392372397e-01  3.9455376239883255e-01  3.8962140824729069e-01  3.8358090939141848e-01  3.7645011356661745e-01  3.6842753039745085e-01  3.5997685459323325e-01  3.5186895751950231e-01  3.4507638824433534e-01  3.4045342857773675e-01  3.3820145110816874e-01  3.3766017382972685e-01  4.1323704695366514e-01  4.1316238294340285e-01  3.3860764181526620e-01  3.4296940438206119e-01  3.5157734932130857e-01  3.6491028389360169e-01  3.8196284197068453e-01  4.0075809636324666e-01  4.1937920609439833e-01  4.3648912029527404e-01  4.5138455135066280e-01  4.6384483113533242e-01  4.7395157397981663e-01  4.8194609277195088e-01  4.8813414920975307e-01  4.9282843996883202e-01  4.9631678057288814e-01  4.9884644586758203e-01  5.0061803367525148e-01  5.0178446425070033e-01  5.0245229702998651e-01  5.0268361518367177e-01  5.0249745394226641e-01  5.0187024915644673e-01  5.0073515584960981e-01  4.9898042112293600e-01  4.9644737734676109e-01  4.9292913637807123e-01  4.8817181072941007e-01  4.8188116523970487e-01  4.7373920583549561e-01  4.6343736522054385e-01  4.5073621715050860e-01  4.3556370980387077e-01  4.1816228720210546e-01  3.9927965538002913e-01  3.8031763555301484e-01  3.6327405759880965e-01  3.5016937061333087e-01  3.4189484286458416e-01  3.3806522625541774e-01  4.1317453608016952e-01  4.1318329258675279e-01  3.4110809864775410e-01  3.5253451045571327e-01  3.6984559294182417e-01  3.9184385910167108e-01  4.1670920699737524e-01  4.4198546160513053e-01  4.6568636020188608e-01  4.8665789556264527e-01  5.0445228570995237e-01  5.1907773824668935e-01  5.3079275015579241e-01  5.3997010264900502e-01  5.4701476471369070e-01  5.5231685009156350e-01  5.5622623867145493e-01  5.5904037851082045e-01  5.6099988732683881e-01  5.6228843001970974e-01  5.6303452207301685e-01  5.6331371408836217e-01  5.6315019793993359e-01  5.6251731685727924e-01  5.6133681837075822e-01  5.5947701760230539e-01  5.5675039634629220e-01  5.5291160567080433e-01  5.4765742342318702e-01  5.4063100068364633e-01  5.3143389405223174e-01  5.1965108800448379e-01  5.0489769470294055e-01  4.8689981324024362e-01  4.6563306689239864e-01  4.4153379369336121e-01  4.1576101234937213e-01  3.9038958625110959e-01  3.6794718571382629e-01  3.5048088251520187e-01  3.3977030422683063e-01  4.1313360401425053e-01  4.1336064357182323e-01  3.4705306962864862e-01  3.7442023539665348e-01  4.0692150163068863e-01  4.3887616871986335e-01  4.6847511228017102e-01  4.9476328226108141e-01  5.1730401594958475e-01  5.3611433679784448e-01  5.5147070598505166e-01  5.6375880458146488e-01  5.7339817288812422e-01  5.8080677722182938e-01  5.8638141816149147e-01  5.9048451939709368e-01  5.9343508163635483e-01  5.9550334626082468e-01  5.9690860182011984e-01  5.9781922545623856e-01  5.9835393714847007e-01  5.9858335548395014e-01  5.9853117394489253e-01  5.9817454436945672e-01  5.9744352184079641e-01  5.9621968744116716e-01  5.9433432731820468e-01  5.9156680257984062e-01  5.8764395611114106e-01  5.8224147525064784e-01  5.7498798254110595e-01  5.6547208174162966e-01  5.5325261639535672e-01  5.3787279692113821e-01  5.1889128434091147e-01  4.9594197189944544e-01  4.6890664352516304e-01  4.3813802165338722e-01  4.0461340914931787e-01  3.7089295647539322e-01  3.4454206398595699e-01  4.1319036988430974e-01  4.1409370173698945e-01  3.6668243939610118e-01  4.3021504873304761e-01  4.8610256948437297e-01  5.2421455039576170e-01  5.5014491384959352e-01  5.6850386198186720e-01  5.8198569238478948e-01  5.9214928033908276e-01  5.9990033278136290e-01  6.0578504731444105e-01  6.1016897844222262e-01  6.1333477983883344e-01  6.1552666482311191e-01  6.1696513067786729e-01  6.1784827845412471e-01  6.1834880946546200e-01  6.1861081100506532e-01  6.1874766101293199e-01  6.1884109098537121e-01  6.1894099443565964e-01  6.1906552563695139e-01  6.1920116510059053e-01  6.1930262078059639e-01  6.1929263634888798e-01  6.1906195799634944e-01  6.1846981979179150e-01  6.1734523382262052e-01  6.1548889157682340e-01  6.1267418741716284e-01  6.0864303243513196e-01  6.0308749070299217e-01  5.9559984762860130e-01  5.8556921506791693e-01  5.7198098095793670e-01  5.5311565381822680e-01  5.2581676698627067e-01  4.8481292581651825e-01  4.2376643462517616e-01  3.5744125390506365e-01  4.1325473271238028e-01  4.3255770549906469e-01  4.5748059648557793e-01  5.8072612442843408e-01  6.4036351947189685e-01  6.6118251886466295e-01  6.6583578946566702e-01  6.6398563887339634e-01  6.5986691504383921e-01  6.5533508295945508e-01  6.5110100659300219e-01  6.4734749046594742e-01  6.4405270982848151e-01  6.4114651263378952e-01  6.3857273768210665e-01  6.3630512444108878e-01  6.3434398175298967e-01  6.3270709780737933e-01  6.3142065166910999e-01  6.3051204907757974e-01  6.3000495049734928e-01  6.2991618040992303e-01  6.3025411149218591e-01  6.3101822030325816e-01  6.3219968349428124e-01  6.3378306423561159e-01  6.3574928424073252e-01  6.3808012438554695e-01  6.4076431835985637e-01  6.4380463866767212e-01  6.4722368732376190e-01  6.5106257467658413e-01  6.5536019411709556e-01  6.6008933960973348e-01  6.6501481031750087e-01  6.6940143672277541e-01  6.7144708674738984e-01  6.6678293402814970e-01  6.4529911921895067e-01  5.7918238406162037e-01  4.3763090332849203e-01  4.1747819999359154e-01  6.7845237914066181e-01  7.9797732357174922e-01  8.4612758879257688e-01  8.4115064593233591e-01  8.2066772531103893e-01  7.9459023165538745e-01  7.6745163627693491e-01  7.4217335177372634e-01  7.2020165960727245e-01  7.0185484079775340e-01  6.8683749928430082e-01  6.7463959001144924e-01  6.6474924455596152e-01  6.5673620010606271e-01  6.5026914512623890e-01  6.4510586663264746e-01  6.4107560729818469e-01  6.3806183813584294e-01  6.3598823075055066e-01  6.3480834595470625e-01  6.3449877111239072e-01  6.3505528698676261e-01  6.3649174159130795e-01  6.3884148919419115e-01  6.4216143819922211e-01  6.4653887946897282e-01  6.5210124113207513e-01  6.5902854503216146e-01  6.6756722512202993e-01  6.7804135671611965e-01  6.9085221538818098e-01  7.0644834085803965e-01  7.2523876211945615e-01  7.4742256987854927e-01  7.7272864419891718e-01  8.0012872744414909e-01  8.2728846691615510e-01  8.5020136269618585e-01  8.5623743653480300e-01  8.2486664649927077e-01  5.6346937266232577e-01  9.6510506490901227e-01  9.8612753981971724e-01  9.7428726272406796e-01  9.5381935222874847e-01  9.2741327454520861e-01  8.9357219546381694e-01  8.5427122345651274e-01  8.1426988664920241e-01  7.7767768804203763e-01  7.4638699525482077e-01  7.2060122195516552e-01  6.9974322512621256e-01  6.8302282477712106e-01  6.6969198175208533e-01  6.5913015088299554e-01  6.5085487998672098e-01  6.4450557621781224e-01  6.3982132891625165e-01  6.3662075321975664e-01  6.3478631049425027e-01  6.3425348422040462e-01  6.3500456544813511e-01  6.3706675117892353e-01  6.4051441037439472e-01  6.4547555115376332e-01  6.5214259347715842e-01  6.6078730209440284e-01  6.7177871638288700e-01  6.8560015177685818e-01  7.0285492901941837e-01  7.2423728214366700e-01  7.5042196034943565e-01  7.8180008304534787e-01  8.1799691801829144e-01  8.5728997735812662e-01  8.9645877194505852e-01  9.3143876791080094e-01  9.5938676391526534e-01  9.8151414459784370e-01  9.8599366363410512e-01  9.2625764767808749e-01  9.9701129837156111e-01  9.9638051113583259e-01  9.9148094466939074e-01  9.8073644490575218e-01  9.6578433195893121e-01  9.4252021479328896e-01  9.0755657084890085e-01  8.6396302854845919e-01  8.1925552536806401e-01  7.7879994848037548e-01  7.4459948045797708e-01  7.1667637488408176e-01  6.9427804675327021e-01  6.7649231491833450e-01  6.6249106017823145e-01  6.5160034688251189e-01  6.4330189062576892e-01  6.3721274982643417e-01  6.3306202900945752e-01  6.3067125336504004e-01  6.2994030572372117e-01  6.3083916595779177e-01  6.3340528470836654e-01  6.3774646675988522e-01  6.4404927082214691e-01  6.5259288567959506e-01  6.6376780703791360e-01  6.7809652180951274e-01  6.9624779483131494e-01  7.1902283989920535e-01  7.4726313093095764e-01  7.8157806695911369e-01  8.2173094884597009e-01  8.6559100152766477e-01  9.0824449587522127e-01  9.4334575570916734e-01  9.6764205990463326e-01  9.8278912209259572e-01  9.9339566379015232e-01  9.9685644872149193e-01  9.8828419819647917e-01  9.9907360200192752e-01  9.9821287007317838e-01  9.9448775773791187e-01  9.8624916352892678e-01  9.7483805790142364e-01  9.5726000051257842e-01  9.2883274841391805e-01  8.8743525879834528e-01  8.4022932971629705e-01  7.9503045063619449e-01  7.5574339459647721e-01  7.2325378877783020e-01  6.9706091890609090e-01  6.7624269483291533e-01  6.5987396372233964e-01  6.4716939645114679e-01  6.3751127750363601e-01  6.3043664568415436e-01  6.2561454223860191e-01  6.2282488246432111e-01  6.2194270605880619e-01  6.2292871546320272e-01  6.2582615001784303e-01  6.3076391896051542e-01  6.3796595809418044e-01  6.4776658057061398e-01  6.6063055981665364e-01  6.7717350048633884e-01  6.9816972577547709e-01  7.2451500898739218e-01  7.5706834531796230e-01  7.9621905985844710e-01  8.4094894120073849e-01  8.8738077106241675e-01  9.2823044513480280e-01  9.5700058023878498e-01  9.7507471227452092e-01  9.8647671864046926e-01  9.9445182218621486e-01  9.9813578570276151e-01  9.9915257565168880e-01  9.8907292634664845e-01  9.9710201058504333e-01  9.9320130142131102e-01  9.8355175233709724e-01  9.7138951957509989e-01  9.5345248002385163e-01  9.2628621024978963e-01  8.8659036621830078e-01  8.3970581028542113e-01  7.9350779634511381e-01  7.5261649198168512e-01  7.1842990757555791e-01  6.9068943458713061e-01  6.6855634870071545e-01  6.5111528361702642e-01  6.3756168267662605e-01  6.2725025916714183e-01  6.1969113085122662e-01  6.1453072757169735e-01  6.1153199169070682e-01  6.1055898973726652e-01  6.1156744390690720e-01  6.1460147621807137e-01  6.1979655604076456e-01  6.2738856551271238e-01  6.3772856844243764e-01  6.5130160023047634e-01  6.6874412842129982e-01  6.9084545859943747e-01  7.1849621309949696e-01  7.5249948914201981e-01  7.9307686201933125e-01  8.3883782435501464e-01  8.8531823710447455e-01  9.2492036586701132e-01  9.5222666806694578e-01  9.7025197237920979e-01  9.8237675091485166e-01  9.9173203793890530e-01  9.9651883181497269e-01  9.9722844343043815e-01  9.2727334803557637e-01  9.8676864961778255e-01  9.8248374578209763e-01  9.6797257974060158e-01  9.5261304463557550e-01  9.3177557508469311e-01  9.0267612937297714e-01  8.6366294399135302e-01  8.1892962610585762e-01  7.7490096914166307e-01  7.3565240249497232e-01  7.0256383464862815e-01  6.7550818598364770e-01  6.5378146912983237e-01  6.3657028809588412e-01  6.2313890677514894e-01  6.1288572654291207e-01  6.0534738039944269e-01  6.0018560475386207e-01  5.9717142298972292e-01  5.9617218350350076e-01  5.9714333848481049e-01  6.0012548554339173e-01  6.0524674225040564e-01  6.1273031441199011e-01  6.2290668376781244e-01  6.3622854240862825e-01  6.5328314993283354e-01  6.7478835884964150e-01  7.0153926463792171e-01  7.3423220646460130e-01  7.7302532995618711e-01  8.1665649297817056e-01  8.6125824176960664e-01  9.0041873327162658e-01  9.2938830948307138e-01  9.4973752151421109e-01  9.6449635770739517e-01  9.7762679604160030e-01  9.8744719173567364e-01  9.6668829539425860e-01  5.7338694497325582e-01  8.6810607883525903e-01  9.1134883450653614e-01  9.1480883314511563e-01  9.0422657950700802e-01  8.8470747199866429e-01  8.5652941706619368e-01  8.2057736090655720e-01  7.8073287935507407e-01  7.4184312929466423e-01  7.0701083040153734e-01  6.7736527012062153e-01  6.5287055309197006e-01  6.3300697761953251e-01  6.1713679997489568e-01  6.0466283720775837e-01  5.9508415635773448e-01  5.8800713797337489e-01  5.8313984393555240e-01  5.8028210149583426e-01  5.7931652164665426e-01  5.8020250358519743e-01  5.8297394182480700e-01  5.8774078874792102e-01  5.9469428251607026e-01  6.0411513179496534e-01  6.1638274854618114e-01  6.3198079182874656e-01  6.5148786685195526e-01  6.7552829524656011e-01  7.0463001958997840e-01  7.3889207136340418e-01  7.7734315611321059e-01  8.1708770434285927e-01  8.5320905223083554e-01  8.8115827532838020e-01  8.9973944099988912e-01  9.0894061641019575e-01  9.0559256379047137e-01  8.4953413757544538e-01  6.8696009892551368e-01  4.2479355186340106e-01  5.2691179763545182e-01  7.3059266055643479e-01  8.0164321650185555e-01  8.1759137649173153e-01  8.1056945259882851e-01  7.9034096101372286e-01  7.6197541710995886e-01  7.3009467579136900e-01  6.9869410443125657e-01  6.7019129578189784e-01  6.4555307988516808e-01  6.2487965876471319e-01  6.0787811667646818e-01  5.9412862090512875e-01  5.8321095796034983e-01  5.7475708615389043e-01  5.6846854046996365e-01  5.6411861455816836e-01  5.6154898550385668e-01  5.6066533093746829e-01  5.6143399950360251e-01  5.6388058878532688e-01  5.6809065564594419e-01  5.7421233308650743e-01  5.8246005382488408e-01  5.9311752372357107e-01  6.0653593963973662e-01  6.2311902991404922e-01  6.4327754168392359e-01  6.6731861683498583e-01  6.9520820196229016e-01  7.2612802754748085e-01  7.5785012541838181e-01  7.8637420945781256e-01  8.0663904864180203e-01  8.1335444605485330e-01  7.9739268521203754e-01  7.3019838964698847e-01  5.4451852153364311e-01  4.4239622993370642e-01  4.1765140291693581e-01  4.2170417179788794e-01  5.8028464881805997e-01  6.7564814183332877e-01  7.1489154726978232e-01  7.2329704891068269e-01  7.1445600716470548e-01  6.9618484464452368e-01  6.7375703769686301e-01  6.5077596756292522e-01  6.2930631927989067e-01  6.1028052034887281e-01  5.9396397878625495e-01  5.8029048715263454e-01  5.6905544891399673e-01  5.6001646240387970e-01  5.5294225697453392e-01  5.4763474201603857e-01  5.4393761607161129e-01  5.4173868293567617e-01  5.4096963092428640e-01  5.4160519686829189e-01  5.4366261329820775e-01  5.4720160640160520e-01  5.5232471202938505e-01  5.5917709813923600e-01  5.6794418954649983e-01  5.7884382747983687e-01  5.9210681424433176e-01  6.0793423667036794e-01  6.2640971081145291e-01  6.4732750942089212e-01  6.6988025980889110e-01  6.9217626508301411e-01  7.1071353511713131e-01  7.2009605247508157e-01  7.1258505600790245e-01  6.7526034567738047e-01  5.8426174923272911e-01  4.3328214096234546e-01  4.1916410683160432e-01  4.1709077615868223e-01  3.9689334327926562e-01  5.0472089989986568e-01  5.8358580122183501e-01  6.2547106530998264e-01  6.4149692912739709e-01  6.4140605415136598e-01  6.3209898094828121e-01  6.1830481799778558e-01  6.0307701889797194e-01  5.8817471287212941e-01  5.7449490826977256e-01  5.6242218609113648e-01  5.5206299048423768e-01  5.4338382753590841e-01  5.3628934483260671e-01  5.3066550233404630e-01  5.2640297862677687e-01  5.2340940865837660e-01  5.2161542374166014e-01  5.2097736869107203e-01  5.2147831744459261e-01  5.2312821290891698e-01  5.2596339842282192e-01  5.3004533510915852e-01  5.3545778272905664e-01  5.4230102373752032e-01  5.5068064094544944e-01  5.6068658394305881e-01  5.7235508789515410e-01  5.8560003617673673e-01  6.0008953733123926e-01  6.1502856453475963e-01  6.2880561881834152e-01  6.3851368214109305e-01  6.3946283241993085e-01  6.2473622156493613e-01  5.8460521267062859e-01  5.0773628778141344e-01  4.0051467982872957e-01  4.1758951251468551e-01  4.1651998751180569e-01  3.8417087617759010e-01  4.6346860108932297e-01  5.2323536426092709e-01  5.5819444452845446e-01  5.7471580665254296e-01  5.7893111127550978e-01  5.7563314288114531e-01  5.6828720928304921e-01  5.5916031706763469e-01  5.4962505324638733e-01  5.4046129821173639e-01  5.3208280263551344e-01  5.2468722097007026e-01  5.1834780334550712e-01  5.1306945377957724e-01  5.0882311468240582e-01  5.0556685784843525e-01  5.0325861901724744e-01  5.0186366544605543e-01  5.0135874728927499e-01  5.0173412983331378e-01  5.0299415943767378e-01  5.0515658965500487e-01  5.0825051391698883e-01  5.1231235335148217e-01  5.1737886721509441e-01  5.2347550564914647e-01  5.3059745703423611e-01  5.3867909111710699e-01  5.4754430873952975e-01  5.5682406349290603e-01  5.6581724619106666e-01  5.7326361113335700e-01  5.7701710640443837e-01  5.7368541755716873e-01  5.5840185963128774e-01  5.2493498982745546e-01  4.6657105862023057e-01  3.8719072802579085e-01  4.1686650961612237e-01  4.1609153420890688e-01  3.7640682261920699e-01  4.3838699094500710e-01  4.8309129702046666e-01  5.0964268977822280e-01  5.2355594317476095e-01  5.2893992399574918e-01  5.2891065735482201e-01  5.2571208524141011e-01  5.2084339303754612e-01  5.1526724571416238e-01  5.0958350652155082e-01  5.0415791524181541e-01  4.9920615409098290e-01  4.9484764041779494e-01  4.9114115145312587e-01  4.8810883473096750e-01  4.8575248693198447e-01  4.8406441204132000e-01  4.8303444090385994e-01  4.8265421535350056e-01  4.8291947783608141e-01  4.8383079971516552e-01  4.8539290959862247e-01  4.8761252832717772e-01  4.9049436130755986e-01  4.9403462410783600e-01  4.9821116227229667e-01  5.0296881602958921e-01  5.0819799241464747e-01  5.1370293558154034e-01  5.1915291299811372e-01  5.2400346495210959e-01  5.2736808220128217e-01  5.2782462365375560e-01  5.2317498814866070e-01  5.1022900452274289e-01  4.8461075225507139e-01  4.4059276998777908e-01  3.7841900845142101e-01  4.1637655729161621e-01  4.1568524274166513e-01  3.7016911174011519e-01  4.2004366673893079e-01  4.5427494034609356e-01  4.7414354019091326e-01  4.8497497579382043e-01  4.9005610337049166e-01  4.9149965497973463e-01  4.9068936927242934e-01  4.8854240096175744e-01  4.8567133160041398e-01  4.8248874183347862e-01  4.7927443986666307e-01  4.7621618403397786e-01  4.7343669333176375e-01  4.7101292678402368e-01  4.6899044810983148e-01  4.6739418347769429e-01  4.6623626913303717e-01  4.6552153907380411e-01  4.6525110518196733e-01  4.6542438041109535e-01  4.6603977150175319e-01  4.6709413434404640e-01  4.6858095121180682e-01  4.7048706180826799e-01  4.7278766709022313e-01  4.7543923292658297e-01  4.7836983549223239e-01  4.8146631133911300e-01  4.8455697462044456e-01  4.8738689856708717e-01  4.8957872048228079e-01  4.9056516837648800e-01  4.8947262469640745e-01  4.8493298820583319e-01  4.7478959548626543e-01  4.5557349545853021e-01  4.2175436325360044e-01  3.7176033897712230e-01  4.1594782065139174e-01  4.1530729981219927e-01  3.6491017625954253e-01  4.0568924180128879e-01  4.3247376369788526e-01  4.4740149117061706e-01  4.5561357138437653e-01  4.5994177069922165e-01  4.6190130285488962e-01  4.623564908