<?xml version="1.0"?>
<VTKFile type="UnstructuredGrid"  version="0.1"  >
<UnstructuredGrid>
<Piece  NumberOfPoints="1681" NumberOfCells="3200">
<Points>
<DataArray  type="Float64"  NumberOfComponents="3"  format="ascii">0 0 0  0.025 0 0  0.05 0 0  0.075 0 0  0.1 0 0  0.125 0 0  0.15 0 0  0.175 0 0  0.2 0 0  0.225 0 0  0.25 0 0  0.275 0 0  0.3 0 0  0.325 0 0  0.35 0 0  0.375 0 0  0.4 0 0  0.425 0 0  0.45 0 0  0.475 0 0  0.5 0 0  0.525 0 0  0.55 0 0  0.575 0 0  0.6 0 0  0.625 0 0  0.65 0 0  0.675 0 0  0.7 0 0  0.725 0 0  0.75 0 0  0.775 0 0  0.8 0 0  0.825 0 0  0.85 0 0  0.875 0 0  0.9 0 0  0.925 0 0  0.95 0 0  0.975 0 0  1 0 0  0 0.025 0  0.025 0.025 0  0.05 0.025 0  0.075 0.025 0  0.1 0.025 0  0.125 0.025 0  0.15 0.025 0  0.175 0.025 0  0.2 0.025 0  0.225 0.025 0  0.25 0.025 0  0.275 0.025 0  0.3 0.025 0  0.325 0.025 0  0.35 0.025 0  0.375 0.025 0  0.4 0.025 0  0.425 0.025 0  0.45 0.025 0  0.475 0.025 0  0.5 0.025 0  0.525 0.025 0  0.55 0.025 0  0.575 0.025 0  0.6 0.025 0  0.625 0.025 0  0.65 0.025 0  0.675 0.025 0  0.7 0.025 0  0.725 0.025 0  0.75 0.025 0  0.775 0.025 0  0.8 0.025 0  0.825 0.025 0  0.85 0.025 0  0.875 0.025 0  0.9 0.025 0  0.925 0.025 0  0.95 0.025 0  0.975 0.025 0  1 0.025 0  0 0.05 0  0.025 0.05 0  0.05 0.05 0  0.075 0.05 0  0.1 0.05 0  0.125 0.05 0  0.15 0.05 0  0.175 0.05 0  0.2 0.05 0  0.225 0.05 0  0.25 0.05 0  0.275 0.05 0  0.3 0.05 0  0.325 0.05 0  0.35 0.05 0  0.375 0.05 0  0.4 0.05 0  0.425 0.05 0  0.45 0.05 0  0.475 0.05 0  0.5 0.05 0  0.525 0.05 0  0.55 0.05 0  0.575 0.05 0  0.6 0.05 0  0.625 0.05 0  0.65 0.05 0  0.675 0.05 0  0.7 0.05 0  0.725 0.05 0  0.75 0.05 0  0.775 0.05 0  0.8 0.05 0  0.825 0.05 0  0.85 0.05 0  0.875 0.05 0  0.9 0.05 0  0.925 0.05 0  0.95 0.05 0  0.975 0.05 0  1 0.05 0  0 0.075 0  0.025 0.075 0  0.05 0.075 0  0.075 0.075 0  0.1 0.075 0  0.125 0.075 0  0.15 0.075 0  0.175 0.075 0  0.2 0.075 0  0.225 0.075 0  0.25 0.075 0  0.275 0.075 0  0.3 0.075 0  0.325 0.075 0  0.35 0.075 0  0.375 0.075 0  0.4 0.075 0  0.425 0.075 0  0.45 0.075 0  0.475 0.075 0  0.5 0.075 0  0.525 0.075 0  0.55 0.075 0  0.575 0.075 0  0.6 0.075 0  0.625 0.075 0  0.65 0.075 0  0.675 0.075 0  0.7 0.075 0  0.725 0.075 0  0.75 0.075 0  0.775 0.075 0  0.8 0.075 0  0.825 0.075 0  0.85 0.075 0  0.875 0.075 0  0.9 0.075 0  0.925 0.075 0  0.95 0.075 0  0.975 0.075 0  1 0.075 0  0 0.1 0  0.025 0.1 0  0.05 0.1 0  0.075 0.1 0  0.1 0.1 0  0.125 0.1 0  0.15 0.1 0  0.175 0.1 0  0.2 0.1 0  0.225 0.1 0  0.25 0.1 0  0.275 0.1 0  0.3 0.1 0  0.325 0.1 0  0.35 0.1 0  0.375 0.1 0  0.4 0.1 0  0.425 0.1 0  0.45 0.1 0  0.475 0.1 0  0.5 0.1 0  0.525 0.1 0  0.55 0.1 0  0.575 0.1 0  0.6 0.1 0  0.625 0.1 0  0.65 0.1 0  0.675 0.1 0  0.7 0.1 0  0.725 0.1 0  0.75 0.1 0  0.775 0.1 0  0.8 0.1 0  0.825 0.1 0  0.85 0.1 0  0.875 0.1 0  0.9 0.1 0  0.925 0.1 0  0.95 0.1 0  0.975 0.1 0  1 0.1 0  0 0.125 0  0.025 0.125 0  0.05 0.125 0  0.075 0.125 0  0.1 0.125 0  0.125 0.125 0  0.15 0.125 0  0.175 0.125 0  0.2 0.125 0  0.225 0.125 0  0.25 0.125 0  0.275 0.125 0  0.3 0.125 0  0.325 0.125 0  0.35 0.125 0  0.375 0.125 0  0.4 0.125 0  0.425 0.125 0  0.45 0.125 0  0.475 0.125 0  0.5 0.125 0  0.525 0.125 0  0.55 0.125 0  0.575 0.125 0  0.6 0.125 0  0.625 0.125 0  0.65 0.125 0  0.675 0.125 0  0.7 0.125 0  0.725 0.125 0  0.75 0.125 0  0.775 0.125 0  0.8 0.125 0  0.825 0.125 0  0.85 0.125 0  0.875 0.125 0  0.9 0.125 0  0.925 0.125 0  0.95 0.125 0  0.975 0.125 0  1 0.125 0  0 0.15 0  0.025 0.15 0  0.05 0.15 0  0.075 0.15 0  0.1 0.15 0  0.125 0.15 0  0.15 0.15 0  0.175 0.15 0  0.2 0.15 0  0.225 0.15 0  0.25 0.15 0  0.275 0.15 0  0.3 0.15 0  0.325 0.15 0  0.35 0.15 0  0.375 0.15 0  0.4 0.15 0  0.425 0.15 0  0.45 0.15 0  0.475 0.15 0  0.5 0.15 0  0.525 0.15 0  0.55 0.15 0  0.575 0.15 0  0.6 0.15 0  0.625 0.15 0  0.65 0.15 0  0.675 0.15 0  0.7 0.15 0  0.725 0.15 0  0.75 0.15 0  0.775 0.15 0  0.8 0.15 0  0.825 0.15 0  0.85 0.15 0  0.875 0.15 0  0.9 0.15 0  0.925 0.15 0  0.95 0.15 0  0.975 0.15 0  1 0.15 0  0 0.175 0  0.025 0.175 0  0.05 0.175 0  0.075 0.175 0  0.1 0.175 0  0.125 0.175 0  0.15 0.175 0  0.175 0.175 0  0.2 0.175 0  0.225 0.175 0  0.25 0.175 0  0.275 0.175 0  0.3 0.175 0  0.325 0.175 0  0.35 0.175 0  0.375 0.175 0  0.4 0.175 0  0.425 0.175 0  0.45 0.175 0  0.475 0.175 0  0.5 0.175 0  0.525 0.175 0  0.55 0.175 0  0.575 0.175 0  0.6 0.175 0  0.625 0.175 0  0.65 0.175 0  0.675 0.175 0  0.7 0.175 0  0.725 0.175 0  0.75 0.175 0  0.775 0.175 0  0.8 0.175 0  0.825 0.175 0  0.85 0.175 0  0.875 0.175 0  0.9 0.175 0  0.925 0.175 0  0.95 0.175 0  0.975 0.175 0  1 0.175 0  0 0.2 0  0.025 0.2 0  0.05 0.2 0  0.075 0.2 0  0.1 0.2 0  0.125 0.2 0  0.15 0.2 0  0.175 0.2 0  0.2 0.2 0  0.225 0.2 0  0.25 0.2 0  0.275 0.2 0  0.3 0.2 0  0.325 0.2 0  0.35 0.2 0  0.375 0.2 0  0.4 0.2 0  0.425 0.2 0  0.45 0.2 0  0.475 0.2 0  0.5 0.2 0  0.525 0.2 0  0.55 0.2 0  0.575 0.2 0  0.6 0.2 0  0.625 0.2 0  0.65 0.2 0  0.675 0.2 0  0.7 0.2 0  0.725 0.2 0  0.75 0.2 0  0.775 0.2 0  0.8 0.2 0  0.825 0.2 0  0.85 0.2 0  0.875 0.2 0  0.9 0.2 0  0.925 0.2 0  0.95 0.2 0  0.975 0.2 0  1 0.2 0  0 0.225 0  0.025 0.225 0  0.05 0.225 0  0.075 0.225 0  0.1 0.225 0  0.125 0.225 0  0.15 0.225 0  0.175 0.225 0  0.2 0.225 0  0.225 0.225 0  0.25 0.225 0  0.275 0.225 0  0.3 0.225 0  0.325 0.225 0  0.35 0.225 0  0.375 0.225 0  0.4 0.225 0  0.425 0.225 0  0.45 0.225 0  0.475 0.225 0  0.5 0.225 0  0.525 0.225 0  0.55 0.225 0  0.575 0.225 0  0.6 0.225 0  0.625 0.225 0  0.65 0.225 0  0.675 0.225 0  0.7 0.225 0  0.725 0.225 0  0.75 0.225 0  0.775 0.225 0  0.8 0.225 0  0.825 0.225 0  0.85 0.225 0  0.875 0.225 0  0.9 0.225 0  0.925 0.225 0  0.95 0.225 0  0.975 0.225 0  1 0.225 0  0 0.25 0  0.025 0.25 0  0.05 0.25 0  0.075 0.25 0  0.1 0.25 0  0.125 0.25 0  0.15 0.25 0  0.175 0.25 0  0.2 0.25 0  0.225 0.25 0  0.25 0.25 0  0.275 0.25 0  0.3 0.25 0  0.325 0.25 0  0.35 0.25 0  0.375 0.25 0  0.4 0.25 0  0.425 0.25 0  0.45 0.25 0  0.475 0.25 0  0.5 0.25 0  0.525 0.25 0  0.55 0.25 0  0.575 0.25 0  0.6 0.25 0  0.625 0.25 0  0.65 0.25 0  0.675 0.25 0  0.7 0.25 0  0.725 0.25 0  0.75 0.25 0  0.775 0.25 0  0.8 0.25 0  0.825 0.25 0  0.85 0.25 0  0.875 0.25 0  0.9 0.25 0  0.925 0.25 0  0.95 0.25 0  0.975 0.25 0  1 0.25 0  0 0.275 0  0.025 0.275 0  0.05 0.275 0  0.075 0.275 0  0.1 0.275 0  0.125 0.275 0  0.15 0.275 0  0.175 0.275 0  0.2 0.275 0  0.225 0.275 0  0.25 0.275 0  0.275 0.275 0  0.3 0.275 0  0.325 0.275 0  0.35 0.275 0  0.375 0.275 0  0.4 0.275 0  0.425 0.275 0  0.45 0.275 0  0.475 0.275 0  0.5 0.275 0  0.525 0.275 0  0.55 0.275 0  0.575 0.275 0  0.6 0.275 0  0.625 0.275 0  0.65 0.275 0  0.675 0.275 0  0.7 0.275 0  0.725 0.275 0  0.75 0.275 0  0.775 0.275 0  0.8 0.275 0  0.825 0.275 0  0.85 0.275 0  0.875 0.275 0  0.9 0.275 0  0.925 0.275 0  0.95 0.275 0  0.975 0.275 0  1 0.275 0  0 0.3 0  0.025 0.3 0  0.05 0.3 0  0.075 0.3 0  0.1 0.3 0  0.125 0.3 0  0.15 0.3 0  0.175 0.3 0  0.2 0.3 0  0.225 0.3 0  0.25 0.3 0  0.275 0.3 0  0.3 0.3 0  0.325 0.3 0  0.35 0.3 0  0.375 0.3 0  0.4 0.3 0  0.425 0.3 0  0.45 0.3 0  0.475 0.3 0  0.5 0.3 0  0.525 0.3 0  0.55 0.3 0  0.575 0.3 0  0.6 0.3 0  0.625 0.3 0  0.65 0.3 0  0.675 0.3 0  0.7 0.3 0  0.725 0.3 0  0.75 0.3 0  0.775 0.3 0  0.8 0.3 0  0.825 0.3 0  0.85 0.3 0  0.875 0.3 0  0.9 0.3 0  0.925 0.3 0  0.95 0.3 0  0.975 0.3 0  1 0.3 0  0 0.325 0  0.025 0.325 0  0.05 0.325 0  0.075 0.325 0  0.1 0.325 0  0.125 0.325 0  0.15 0.325 0  0.175 0.325 0  0.2 0.325 0  0.225 0.325 0  0.25 0.325 0  0.275 0.325 0  0.3 0.325 0  0.325 0.325 0  0.35 0.325 0  0.375 0.325 0  0.4 0.325 0  0.425 0.325 0  0.45 0.325 0  0.475 0.325 0  0.5 0.325 0  0.525 0.325 0  0.55 0.325 0  0.575 0.325 0  0.6 0.325 0  0.625 0.325 0  0.65 0.325 0  0.675 0.325 0  0.7 0.325 0  0.725 0.325 0  0.75 0.325 0  0.775 0.325 0  0.8 0.325 0  0.825 0.325 0  0.85 0.325 0  0.875 0.325 0  0.9 0.325 0  0.925 0.325 0  0.95 0.325 0  0.975 0.325 0  1 0.325 0  0 0.35 0  0.025 0.35 0  0.05 0.35 0  0.075 0.35 0  0.1 0.35 0  0.125 0.35 0  0.15 0.35 0  0.175 0.35 0  0.2 0.35 0  0.225 0.35 0  0.25 0.35 0  0.275 0.35 0  0.3 0.35 0  0.325 0.35 0  0.35 0.35 0  0.375 0.35 0  0.4 0.35 0  0.425 0.35 0  0.45 0.35 0  0.475 0.35 0  0.5 0.35 0  0.525 0.35 0  0.55 0.35 0  0.575 0.35 0  0.6 0.35 0  0.625 0.35 0  0.65 0.35 0  0.675 0.35 0  0.7 0.35 0  0.725 0.35 0  0.75 0.35 0  0.775 0.35 0  0.8 0.35 0  0.825 0.35 0  0.85 0.35 0  0.875 0.35 0  0.9 0.35 0  0.925 0.35 0  0.95 0.35 0  0.975 0.35 0  1 0.35 0  0 0.375 0  0.025 0.375 0  0.05 0.375 0  0.075 0.375 0  0.1 0.375 0  0.125 0.375 0  0.15 0.375 0  0.175 0.375 0  0.2 0.375 0  0.225 0.375 0  0.25 0.375 0  0.275 0.375 0  0.3 0.375 0  0.325 0.375 0  0.35 0.375 0  0.375 0.375 0  0.4 0.375 0  0.425 0.375 0  0.45 0.375 0  0.475 0.375 0  0.5 0.375 0  0.525 0.375 0  0.55 0.375 0  0.575 0.375 0  0.6 0.375 0  0.625 0.375 0  0.65 0.375 0  0.675 0.375 0  0.7 0.375 0  0.725 0.375 0  0.75 0.375 0  0.775 0.375 0  0.8 0.375 0  0.825 0.375 0  0.85 0.375 0  0.875 0.375 0  0.9 0.375 0  0.925 0.375 0  0.95 0.375 0  0.975 0.375 0  1 0.375 0  0 0.4 0  0.025 0.4 0  0.05 0.4 0  0.075 0.4 0  0.1 0.4 0  0.125 0.4 0  0.15 0.4 0  0.175 0.4 0  0.2 0.4 0  0.225 0.4 0  0.25 0.4 0  0.275 0.4 0  0.3 0.4 0  0.325 0.4 0  0.35 0.4 0  0.375 0.4 0  0.4 0.4 0  0.425 0.4 0  0.45 0.4 0  0.475 0.4 0  0.5 0.4 0  0.525 0.4 0  0.55 0.4 0  0.575 0.4 0  0.6 0.4 0  0.625 0.4 0  0.65 0.4 0  0.675 0.4 0  0.7 0.4 0  0.725 0.4 0  0.75 0.4 0  0.775 0.4 0  0.8 0.4 0  0.825 0.4 0  0.85 0.4 0  0.875 0.4 0  0.9 0.4 0  0.925 0.4 0  0.95 0.4 0  0.975 0.4 0  1 0.4 0  0 0.425 0  0.025 0.425 0  0.05 0.425 0  0.075 0.425 0  0.1 0.425 0  0.125 0.425 0  0.15 0.425 0  0.175 0.425 0  0.2 0.425 0  0.225 0.425 0  0.25 0.425 0  0.275 0.425 0  0.3 0.425 0  0.325 0.425 0  0.35 0.425 0  0.375 0.425 0  0.4 0.425 0  0.425 0.425 0  0.45 0.425 0  0.475 0.425 0  0.5 0.425 0  0.525 0.425 0  0.55 0.425 0  0.575 0.425 0  0.6 0.425 0  0.625 0.425 0  0.65 0.425 0  0.675 0.425 0  0.7 0.425 0  0.725 0.425 0  0.75 0.425 0  0.775 0.425 0  0.8 0.425 0  0.825 0.425 0  0.85 0.425 0  0.875 0.425 0  0.9 0.425 0  0.925 0.425 0  0.95 0.425 0  0.975 0.425 0  1 0.425 0  0 0.45 0  0.02
[...]
<PointData  Scalars="ControlVisualisation"> 
<DataArray  type="Float64"  Name="ControlVisualisation"  format="ascii">3.7679036489102335e-01  3.2845144295722922e-01  3.2842443001049720e-01  3.2848746510609828e-01  3.2877026432584711e-01  3.2933860443197222e-01  3.3014819586310545e-01  3.3108434099179734e-01  3.3202878772729449e-01  3.3289844743951696e-01  3.3365393202882160e-01  3.3429207710588210e-01  3.3483195251849590e-01  3.3529993784757395e-01  3.3571782678404088e-01  3.3609611252023069e-01  3.3643263024894698e-01  3.3671533453745300e-01  3.3692739959249168e-01  3.3705285800790574e-01  3.3708134452706950e-01  3.3701096256391855e-01  3.3684873498242190e-01  3.3660852341513225e-01  3.3630674039106850e-01  3.3595667981654087e-01  3.3556285109140477e-01  3.3511721417771106e-01  3.3459941472319138e-01  3.3398263705255965e-01  3.3324521000112489e-01  3.3238554759343741e-01  3.3143613958322515e-01  3.3047088050986767e-01  3.2959872563065740e-01  3.2893823661253835e-01  3.2855830768877498e-01  3.2842871154403663e-01  3.2843612708639386e-01  3.2846646546494396e-01  4.3345438973547801e-01  3.2845306327423873e-01  2.2422058144768761e-01  2.2454296695201928e-01  2.2578141071327815e-01  2.2859971862805153e-01  2.3327350858469190e-01  2.3953088685981633e-01  2.4672213447332214e-01  2.5409422602359089e-01  2.6101459298335167e-01  2.6709550620696304e-01  2.7221769742819774e-01  2.7647166481895474e-01  2.8005524788974945e-01  2.8317113492110624e-01  2.8595455182840351e-01  2.8844220424683042e-01  2.9057898224720857e-01  2.9225125078269443e-01  2.9333275650869484e-01  2.9372915323775489e-01  2.9340906098805847e-01  2.9241341697389489e-01  2.9084041018335893e-01  2.8880955727872221e-01  2.8641415588485619e-01  2.8367543646610743e-01  2.8051379771994295e-01  2.7675220384151666e-01  2.7216314629344546e-01  2.6656083973287986e-01  2.5992137850635666e-01  2.5248870803914641e-01  2.4480204233516867e-01  2.3760920411605696e-01  2.3167825695805322e-01  2.2752773004080443e-01  2.2522716560169448e-01  2.2432747887268076e-01  2.2417786169709691e-01  3.2846667288287307e-01  3.2845502416896399e-01  2.2456715721503565e-01  2.2671180584782222e-01  2.3266987290445915e-01  2.4498867072414421e-01  2.6477637454143887e-01  2.9104936502636108e-01  3.2126570944790495e-01  3.5217157069355126e-01  3.8083055095474716e-01  4.0554322282374866e-01  4.2606404612857396e-01  4.4312271940995679e-01  4.5774521354497877e-01  4.7075602712332087e-01  4.8255796246112914e-01  4.9312950909676773e-01  5.0214730549558040e-01  5.0915420792086807e-01  5.1371575355692023e-01  5.1553374718703304e-01  5.1450935911634743e-01  5.1076013081229499e-01  5.0459376237090348e-01  4.9643469607882695e-01  4.8669939192523703e-01  4.7563035536051562e-01  4.6312452140285415e-01  4.4861875202059903e-01  4.3111858057132368e-01  4.0946840214617952e-01  3.8292232977802804e-01  3.5190236496777227e-01  3.1853882550687007e-01  2.8650148963080724e-01  2.5981975323393358e-01  2.4117297374765065e-01  2.3067869583613987e-01  2.2598554322209202e-01  2.2435759888157392e-01  3.2844644277792068e-01  3.2867005338093563e-01  2.2618200805212255e-01  2.3635610140818247e-01  2.6686690945821112e-01  3.2996484422226002e-01  4.3180812248193035e-01  5.5605216308284999e-01  6.6624468065778342e-01  7.4115685416669885e-01  7.8448595729462445e-01  8.0777421706867436e-01  8.2009672873394823e-01  8.2678746346626286e-01  8.3066974361346202e-01  8.3318121453250482e-01  8.3503111027805099e-01  8.3653815992052272e-01  8.3780726722716470e-01  8.3883398849242963e-01  8.3957323209581980e-01  8.3998400444349064e-01  8.4005450305209262e-01  8.3980987955343633e-01  8.3930331894639132e-01  8.3858917903014163e-01  8.3767579537367454e-01  8.3645466005032632e-01  8.3459611045277537e-01  8.3137573899044137e-01  8.2533596695538358e-01  8.1360052214884715e-01  7.9063863193271988e-01  7.4677295823939671e-01  6.6924048967565741e-01  5.5345496101160807e-01  4.2246078733990228e-01  3.1713051844599688e-01  2.5635259934874682e-01  2.3194717878237675e-01  2.2546395719110052e-01  3.2852193055392004e-01  3.2938165313759943e-01  2.3471281684028392e-01  2.9788461931100618e-01  5.0135371315056432e-01  8.4281533414874166e-01  9.9613538194897822e-01  9.9470287630343990e-01  9.7590329790757147e-01  9.6349496989163597e-01  9.5557342614733820e-01  9.4991235466061386e-01  9.4549952384760250e-01  9.4192056782598887e-01  9.3901997341142718e-01  9.3674116010203723e-01  9.3504124032812930e-01  9.3385420018566545e-01  9.3308919783205102e-01  9.3264702887960738e-01  9.3244002447337959e-01  9.3240747198401164e-01  9.3252436812901074e-01  9.3280380730637591e-01  9.3329337815848690e-01  9.3406523780575623e-01  9.3519977593796966e-01  9.3676561031470440e-01  9.3880456810852719e-01  9.4133624648322334e-01  9.4439609266244129e-01  9.4811437611096949e-01  9.5285955373812192e-01  9.5956371859393363e-01  9.7037692822345312e-01  9.8732877095909066e-01  9.8592304502482087e-01  8.2146362500608072e-01  4.7316500746796741e-01  2.7795837548512148e-01  2.2960283412024068e-01  3.2889159008879010e-01  3.3359332113656692e-01  3.0914489441050241e-01  7.8788759456772051e-01  9.7162119751957943e-01  9.6426354472551401e-01  9.6573383856680550e-01  9.6703666724576076e-01  9.6727430601431974e-01  9.6693622378015409e-01  9.6634542433856185e-01  9.6567359046961410e-01  9.6501394334413626e-01  9.6442074108578368e-01  9.6392983835342316e-01  9.6356296251700468e-01  9.6332411360748371e-01  9.6319844863054616e-01  9.6315720012315931e-01  9.6316614532617173e-01  9.6319398533610601e-01  9.6321855176745530e-01  9.6323036596104827e-01  9.6323379077320270e-01  9.6324600963984697e-01  9.6329379030150530e-01  9.6340788719883985e-01  9.6361542946574175e-01  9.6393184656758912e-01  9.6435477871546393e-01  9.6486043868895854e-01  9.6539702290280149e-01  9.6586698415843886e-01  9.6610164598911286e-01  9.6584528011332982e-01  9.6475248767338539e-01  9.6242632622887136e-01  9.5971197619149673e-01  9.6313217524366312e-01  7.4430015532617899e-01  2.6682486161535363e-01  3.3047470343527863e-01  4.7118461316772076e-01  9.8013458540210541e-01  9.4971291078642361e-01  9.6701620537750665e-01  9.7158830062500712e-01  9.7287802073056173e-01  9.7367016471790679e-01  9.7444814324884366e-01  9.7520526534427943e-01  9.7585502044863037e-01  9.7636015449101321e-01  9.7674003481402338e-01  9.7703570519460659e-01  9.7728365938353190e-01  9.7750670430764719e-01  9.7771402593955448e-01  9.7790443830257801e-01  9.7807036493963395e-01  9.7820159617486191e-01  9.7828836554400311e-01  9.7832354669891586e-01  9.7830392746462880e-01  9.7823059418213887e-01  9.7810849145598122e-01  9.7794523246616649e-01  9.7774923405867586e-01  9.7752725923988071e-01  9.7728149082217874e-01  9.7700636249577277e-01  9.7668586682626413e-01  9.7629433042985081e-01  9.7580903488452930e-01  9.7524375369910998e-01  9.7468119990429869e-01  9.7421715733454139e-01  9.7371021546935743e-01  9.7221508847722138e-01  9.6608018411496166e-01  9.4515049363921444e-01  9.6488772109601284e-01  3.5302169644270420e-01  9.6168034582055906e-01  9.8640312508552763e-01  9.8726834069618430e-01  9.8764916516882972e-01  9.8733460856274446e-01  9.8653488503896847e-01  9.8559207848932140e-01  9.8475837719164261e-01  9.8419753212421224e-01  9.8395275920595004e-01  9.8396189740839479e-01  9.8412969279578988e-01  9.8437756461577741e-01  9.8465462152254624e-01  9.8493136687870209e-01  9.8519069610891663e-01  9.8542106984859379e-01  9.8561282697724317e-01  9.8575716318994389e-01  9.8584672889442315e-01  9.8587677943790830e-01  9.8584610094309744e-01  9.8575728593605982e-01  9.8561622308828434e-01  9.8543092410899613e-01  9.8521011911232548e-01  9.8496241851118904e-01  9.8469716815381692e-01  9.8442830753113897e-01  9.8418255875190330e-01  9.8401271808892510e-01  9.8401253543560430e-01  9.8431384371704411e-01  9.8502144396208102e-01  9.8606569645517161e-01  9.8709564675035022e-01  9.8766891149528602e-01  9.8751351500047724e-01  9.8739962915298929e-01  9.8423977807313046e-01  9.3230934516928954e-01  9.9153777020415579e-01  9.9554026156007147e-01  9.9399974455820606e-01  9.9194872513130372e-01  9.9007376217079512e-01  9.8859929191786633e-01  9.8794593046597035e-01  9.8809402136368785e-01  9.8859360828449216e-01  9.8905340185978718e-01  9.8931303354249689e-01  9.8936971530192419e-01  9.8929624114646886e-01  9.8918334355718607e-01  9.8910133272879475e-01  9.8908427601266757e-01  9.8913211285345615e-01  9.8922139353222494e-01  9.8931815206074103e-01  9.8938977179535248e-01  9.8941414401899985e-01  9.8938515460832199e-01  9.8931413063779539e-01  9.8922712394250378e-01  9.8915801154197791e-01  9.8913787068238201e-01  9.8918195611929816e-01  9.8927672527179455e-01  9.8937182562414971e-01  9.8938671015059065e-01  9.8924312758067112e-01  9.8892144089345480e-01  9.8851225812682775e-01  9.8822321213534758e-01  9.8832125064020027e-01  9.8903353037221553e-01  9.9046914040996370e-01  9.9247557881067239e-01  9.9490128706362846e-01  9.9563195232293222e-01  9.8596989621509579e-01  9.9720537039393464e-01  9.9808133444338998e-01  9.9709323907736935e-01  9.9542052006229842e-01  9.9347863358911481e-01  9.9120745542082977e-01  9.8921299679851937e-01  9.8851613722989484e-01  9.8929139731091509e-01  9.9068882580049600e-01  9.9181831926791242e-01  9.9230306636317134e-01  9.9221330394398422e-01  9.9180866959261882e-01  9.9134474879570744e-01  9.9098894099052148e-01  9.9080714177187357e-01  9.9078275448464226e-01  9.9084946750148850e-01  9.9092814692580178e-01  9.9095899024613543e-01  9.9092219015812233e-01  9.9084418398919361e-01  9.9078894494448333e-01  9.9083508360841865e-01  9.9104233937618180e-01  9.9141492141888288e-01  9.9187069892701030e-01  9.9222680301196953e-01  9.9222484506215158e-01  9.9163813295751779e-01  9.9047963924871418e-01  9.8920559340505476e-01  9.8864617557867096e-01  9.8944911959007609e-01  9.9141011253183275e-01  9.9368500873991827e-01  9.9566060792235034e-01  9.9736713321039816e-01  9.9817417636268591e-01  9.9570052683193788e-01  9.9777254533604431e-01  9.9857366217045962e-01  9.9773620420736342e-01  9.9629689756647677e-01  9.9455990340107947e-01  9.9235977195273439e-01  9.8998343504256803e-01  9.8843831729438003e-01  9.8873369279907108e-01  9.9038828302736770e-01  9.9209335956845379e-01  9.9298768102911161e-01  9.9299492305407888e-01  9.9246787296874517e-01  9.9181446027444020e-01  9.9132536296535567e-01  9.9112954365193928e-01  9.9120573527302591e-01  9.9143025729936729e-01  9.9164646445433868e-01  9.9173155857297268e-01  9.9164113264321052e-01  9.9142366064161247e-01  9.9120386039867692e-01  9.9113652871443003e-01  9.9133936224677166e-01  9.9182485949611954e-01  9.9245504074226609e-01  9.9293345384676523e-01  9.9285795684210532e-01  9.9190935004047676e-01  9.9022412703323603e-01  9.8868019758970527e-01  9.8848453733557606e-01  9.9002328744218027e-01  9.9237006860009347e-01  9.9457156559222415e-01  9.9631249872177685e-01  9.9773148695960001e-01  9.9856273352031166e-01  9.9778330954323347e-01  9.9580382789802302e-01  9.9820886207934412e-01  9.9732964044117933e-01  9.9569347003492314e-01  9.9386346168182582e-01  9.9157691118853386e-01  9.8911981655451298e-01  9.8735704969972782e-01  9.8738399407471833e-01  9.8894924785721239e-01  9.9072052298882041e-01  9.9168430416406217e-01  9.9171271357350577e-01  9.9121817773850196e-01  9.9070008259979370e-01  9.9050776400187013e-01  9.9076148304805156e-01  9.9136493216156352e-01  9.9208332164345980e-01  9.9265148547051718e-01  9.9286996974882813e-01  9.9266475629537043e-01  9.9210644308818141e-01  9.9139063913444214e-01  9.9077875396709225e-01  9.9050337043470482e-01  9.9066160429844652e-01  9.9113768851027417e-01  9.9159086673795027e-01  9.9153530898968723e-01  9.9057504420240394e-01  9.8884225997791986e-01  9.8731677273462592e-01  9.8727732207561569e-01  9.8898861032523622e-01  9.9142018182995795e-01  9.9371267774144412e-01  9.9552311949894268e-01  9.9710051747166417e-01  9.9809894613654304e-01  9.9723595905618478e-01  9.8608342667689619e-01  9.9569211507633293e-01  9.9486060909731766e-01  9.9278785896924004e-01  9.9082143440651171e-01  9.8845460032873977e-01  9.8605933098253462e-01  9.8452801681600988e-01  9.8464278434075536e-01  9.8602500023568362e-01  9.8751413122890763e-01  9.8832510506895421e-01  9.8846122004189108e-01  9.8837389480272231e-01  9.8853526028016314e-01  9.8920309126391981e-01  9.9036219668062830e-01  9.9178206422387494e-01  9.9313207870218290e-01  9.9409784805997981e-01  9.9446253163698894e-01  9.9414715867549464e-01  9.9322117132387533e-01  9.9189111485868076e-01  9.9046212194742189e-01  9.8926112356150875e-01  9.8852502663862207e-01  9.8828667183365504e-01  9.8831388700568867e-01  9.8815940883199360e-01  9.8737758915715712e-01  9.8592764079028672e-01  9.8452422238449111e-01  9.8430538497378872e-01  9.8573034394295034e-01  9.8809661190347020e-01  9.9048107781830541e-01  9.9236445337068857e-01  9.9412970922441579e-01  9.9565969749509153e-01  9.9168454138275786e-01  9.2639359443411673e-01  9.8157730469030890e-01  9.8444985837441179e-01  9.8464139282385177e-01  9.8364888441586706e-01  9.8169004483057409e-01  9.7970532523448572e-01  9.7869832106795918e-01  9.7907916391303140e-01  9.8033743875201806e-01  9.8164812619554953e-01  9.8260493392516002e-01  9.8333240971380953e-01  9.8416572213551623e-01  9.8534398611052676e-01  9.8688971308828299e-01  9.8863961773417863e-01  9.9034111834055172e-01  9.9174635068010175e-01  9.9266915712047965e-01  9.9300221194178284e-01  9.9271176445490250e-01  9.9183083803721483e-01  9.9046099926580755e-01  9.8877646273793540e-01  9.8701161373858270e-01  9.8541276325499894e-01  9.8415221984781875e-01  9.8323396979975686e-01  9.8245366024774183e-01  9.8149302147329398e-01  9.8019173714681662e-01  9.7887067981348985e-01  9.7830837560854012e-01  9.7910923187467713e-01  9.8105055899157878e-01  9.8318659803588138e-01  9.8436084681410052e-01  9.8396487191638826e-01  9.8279168237460335e-01  9.6231805992185016e-01  3.5554953613958495e-01  8.0281404855492944e-01  9.5369423896694305e-01  9.6629693771040248e-01  9.6749458172432057e-01  9.6674770943230259e-01  9.6605590904936978e-01  9.6641378124562494e-01  9.6785374898423238e-01  9.6985353990922396e-01  9.7192326774735216e-01  9.7387486185752559e-01  9.7574462403881745e-01  9.7759868020811780e-01  9.7942176063935016e-01  9.8112295466528754e-01  9.8259300423331497e-01  9.8375217515280255e-01  9.8456689967622546e-01  9.8504004469163631e-01  9.8518901223529010e-01  9.8502563305398827e-01  9.8454712956033463e-01  9.8374138186560833e-01  9.8260394756742453e-01  9.8115894319367636e-01  9.7947138826389502e-01  9.7763726732323908e-01  9.7574454154979839e-01  9.7382049200512266e-01  9.7181535277968667e-01  9.6968471918276800e-01  9.6756268997488004e-01  9.6586879742461662e-01  9.6514943238356787e-01  9.6564650747759095e-01  9.6682494028494004e-01  9.6708689014166704e-01  9.5832944029972322e-01  8.6343941103191535e-01  4.8547780785668360e-01  3.2910135652174072e-01  2.8131896896337871e-01  6.5230036281491188e-01  8.6200065494334477e-01  9.0908042738689876e-01  9.2464063183061662e-01  9.3324028142919091e-01  9.3994695490316704e-01  9.4582072762384406e-01  9.5111518384695592e-01  9.5596790454413794e-01  9.6046633702212214e-01  9.6464311051335749e-01  9.6847926262399564e-01  9.7192385879001153e-01  9.7492286280817442e-01  9.7743799817120558e-01  9.7944718316474944e-01  9.8093434242912014e-01  9.8188088113502714e-01  9.8226498553822239e-01  9.8206702074539010e-01  9.8127566495845053e-01  9.7989098165349142e-01  9.7792479995252235e-01  9.7540154832869641e-01  9.7236098608103894e-01  9.6885868725082425e-01  9.6495644412298043e-01  9.6070018110886390e-01  9.5609624531486948e-01  9.5110251537447110e-01  9.4563129288691317e-01  9.3953279919119703e-01  9.3252782352382746e-01  9.2381828863962168e-01  9.0977523632205792e-01  8.7187155911360681e-01  7.0297474611793709e-01  3.2685872105356106e-01  3.3367237121000176e-01  3.2811460543499249e-01  2.3552954824460584e-01  2.6001657191262206e-01  4.5665857221617334e-01  6.7984122411223491e-01  7.8766224156746334e-01  8.4086459415724957e-01  8.7182720077795839e-01  8.9233643354969128e-01  9.0760217954201072e-01  9.2019178813770819e-01  9.3126599112817088e-01  9.4120527221820538e-01  9.5000638202025001e-01  9.5754597581404433e-01  9.6374053425633754e-01  9.6860645057910144e-01  9.7224297309296515e-01  9.7478154263392180e-01  9.7633833611596954e-01  9.7698470188718045e-01  9.7673389409527600e-01  9.7553835673368972e-01  9.7329516723270704e-01  9.6986251661242651e-01  9.6509293454623157e-01  9.5888396042008273e-01  9.5122945419374116e-01  9.4223160738601330e-01  9.3202997249056352e-01  9.2063640568199978e-01  9.0769759725913457e-01  8.9216945613063869e-01  8.7176225953692432e-01  8.4178587136872951e-01  7.9197154960676963e-01  6.9529559289173559e-01  4.9205025375852074e-01  2.7840987239363046e-01  2.4139728378363187e-01  3.2898837286671340e-01  3.2775560029257422e-01  2.2743862774895965e-01  2.1636061541627535e-01  2.1249298835259131e-01  2.8281250932823837e-01  4.0396022146817495e-01  5.1861094041330602e-01  6.0419787855249951e-01  6.6274048957877096e-01  7.0176996370760125e-01  7.2781567668053271e-01  7.4527592344322580e-01  7.5687968098931646e-01  7.6432887612195854e-01  7.6875880326129131e-01  7.7100576639567042e-01  7.7173968796213877e-01  7.7151748198514114e-01  7.7079572572827126e-01  7.6992524049639754e-01  7.6913968062011762e-01  7.6854481374009009e-01  7.6811228547469290e-01  7.6767910990109989e-01  7.6695142084724077e-01  7.6550873972505584e-01  7.6280313651822163e-01  7.5814412810090159e-01  7.5065154898576569e-01  7.3914426070560479e-01  7.2191973734740267e-01  6.9638576392811646e-01  6.5857099288328902e-01  6.0279845209167382e-01  5.2260782570749520e-01  4.1589366555769225e-01  2.9950922798554880e-01  2.2364774106333538e-01  2.2022263272230405e-01  2.2937084467558097e-01  3.2796370305872569e-01  3.2785166352629180e-01  2.2568367884475868e-01  2.1867004540559401e-01  2.0109533957937201e-01  1.9666509752151912e-01  2.1244291163286716e-01  2.4200334882937657e-01  2.7611110099596625e-01  3.0765783823298759e-01  3.3297631065420830e-01  3.5145964759598153e-01  3.6424676803996681e-01  3.7299813141654797e-01  3.7915619145098756e-01  3.8368498570662152e-01  3.8710903418006593e-01  3.8966618025492683e-01  3.9145405410228462e-01  3.9252268852934025e-01  3.9291450115816362e-01  3.9267169265450885e-01  3.9183112550887267e-01  3.9041938657835029e-01  3.8845207229435874e-01  3.8593317066217969e-01  3.8284306830289422e-01  3.7909847802413932e-01  3.7446887204199386e-01  3.6845018939264107e-01  3.6013623847191201e-01  3.4818924774666948e-01  3.3106830035986445e-01  3.0767426603629783e-01  2.7842404836126466e-01  2.4639585764256824e-01  2.1779668059433524e-01  2.0105158789615690e-01  2.0309644223498072e-01  2.1926657210363412e-01  2.2636674646287594e-01  3.2777765067441389e-01  3.2815162268590475e-01  2.2554534065939458e-01  2.2166591230834193e-01  2.1062292736835897e-01  2.0147668246607150e-01  1.9789828198109452e-01  1.9915287938627760e-01  2.0329672922725708e-01  2.0844672222406324e-01  2.1331803737650271e-01  2.1735972960949893e-01  2.2057973825039079e-01  2.2324840235211513e-01  2.2564469843070517e-01  2.2792710619402548e-01  2.3011473595268114e-01  2.3212859906448211e-01  2.3384713281715971e-01  2.3515049051895823e-01  2.3594662752124645e-01  2.3618250357529635e-01  2.3584674185177135e-01  2.3496880681326418e-01  2.3361667380011672e-01  2.3189156238403485e-01  2.2991557304041671e-01  2.2780712496863634e-01  2.2564168225338804e-01  2.2340352652098402e-01  2.2094917461804206e-01  2.1802039270758497e-01  2.1435131584653716e-01  2.0988805524635029e-01  2.0506605843900871e-01  2.0100103571662314e-01  1.9943532072855474e-01  2.0234695349843507e-01  2.1083471332935957e-01  2.2189192005310943e-01  2.2587610211861064e-01  3.2800414459554322e-01  3.2842397131645706e-01  2.2591603410807456e-01  2.2376284911582645e-01  2.1746478465149083e-01  2.1143286419614224e-01  2.0725065582446178e-01  2.0477554476668430e-01  2.0347049015581464e-01  2.028312424