<?xml version="1.0"?>
<VTKFile type="UnstructuredGrid"  version="0.1"  >
<UnstructuredGrid>
<Piece  NumberOfPoints="1681" NumberOfCells="3200">
<Points>
<DataArray  type="Float64"  NumberOfComponents="3"  format="ascii">0 0 0  0.025 0 0  0.05 0 0  0.075 0 0  0.1 0 0  0.125 0 0  0.15 0 0  0.175 0 0  0.2 0 0  0.225 0 0  0.25 0 0  0.275 0 0  0.3 0 0  0.325 0 0  0.35 0 0  0.375 0 0  0.4 0 0  0.425 0 0  0.45 0 0  0.475 0 0  0.5 0 0  0.525 0 0  0.55 0 0  0.575 0 0  0.6 0 0  0.625 0 0  0.65 0 0  0.675 0 0  0.7 0 0  0.725 0 0  0.75 0 0  0.775 0 0  0.8 0 0  0.825 0 0  0.85 0 0  0.875 0 0  0.9 0 0  0.925 0 0  0.95 0 0  0.975 0 0  1 0 0  0 0.025 0  0.025 0.025 0  0.05 0.025 0  0.075 0.025 0  0.1 0.025 0  0.125 0.025 0  0.15 0.025 0  0.175 0.025 0  0.2 0.025 0  0.225 0.025 0  0.25 0.025 0  0.275 0.025 0  0.3 0.025 0  0.325 0.025 0  0.35 0.025 0  0.375 0.025 0  0.4 0.025 0  0.425 0.025 0  0.45 0.025 0  0.475 0.025 0  0.5 0.025 0  0.525 0.025 0  0.55 0.025 0  0.575 0.025 0  0.6 0.025 0  0.625 0.025 0  0.65 0.025 0  0.675 0.025 0  0.7 0.025 0  0.725 0.025 0  0.75 0.025 0  0.775 0.025 0  0.8 0.025 0  0.825 0.025 0  0.85 0.025 0  0.875 0.025 0  0.9 0.025 0  0.925 0.025 0  0.95 0.025 0  0.975 0.025 0  1 0.025 0  0 0.05 0  0.025 0.05 0  0.05 0.05 0  0.075 0.05 0  0.1 0.05 0  0.125 0.05 0  0.15 0.05 0  0.175 0.05 0  0.2 0.05 0  0.225 0.05 0  0.25 0.05 0  0.275 0.05 0  0.3 0.05 0  0.325 0.05 0  0.35 0.05 0  0.375 0.05 0  0.4 0.05 0  0.425 0.05 0  0.45 0.05 0  0.475 0.05 0  0.5 0.05 0  0.525 0.05 0  0.55 0.05 0  0.575 0.05 0  0.6 0.05 0  0.625 0.05 0  0.65 0.05 0  0.675 0.05 0  0.7 0.05 0  0.725 0.05 0  0.75 0.05 0  0.775 0.05 0  0.8 0.05 0  0.825 0.05 0  0.85 0.05 0  0.875 0.05 0  0.9 0.05 0  0.925 0.05 0  0.95 0.05 0  0.975 0.05 0  1 0.05 0  0 0.075 0  0.025 0.075 0  0.05 0.075 0  0.075 0.075 0  0.1 0.075 0  0.125 0.075 0  0.15 0.075 0  0.175 0.075 0  0.2 0.075 0  0.225 0.075 0  0.25 0.075 0  0.275 0.075 0  0.3 0.075 0  0.325 0.075 0  0.35 0.075 0  0.375 0.075 0  0.4 0.075 0  0.425 0.075 0  0.45 0.075 0  0.475 0.075 0  0.5 0.075 0  0.525 0.075 0  0.55 0.075 0  0.575 0.075 0  0.6 0.075 0  0.625 0.075 0  0.65 0.075 0  0.675 0.075 0  0.7 0.075 0  0.725 0.075 0  0.75 0.075 0  0.775 0.075 0  0.8 0.075 0  0.825 0.075 0  0.85 0.075 0  0.875 0.075 0  0.9 0.075 0  0.925 0.075 0  0.95 0.075 0  0.975 0.075 0  1 0.075 0  0 0.1 0  0.025 0.1 0  0.05 0.1 0  0.075 0.1 0  0.1 0.1 0  0.125 0.1 0  0.15 0.1 0  0.175 0.1 0  0.2 0.1 0  0.225 0.1 0  0.25 0.1 0  0.275 0.1 0  0.3 0.1 0  0.325 0.1 0  0.35 0.1 0  0.375 0.1 0  0.4 0.1 0  0.425 0.1 0  0.45 0.1 0  0.475 0.1 0  0.5 0.1 0  0.525 0.1 0  0.55 0.1 0  0.575 0.1 0  0.6 0.1 0  0.625 0.1 0  0.65 0.1 0  0.675 0.1 0  0.7 0.1 0  0.725 0.1 0  0.75 0.1 0  0.775 0.1 0  0.8 0.1 0  0.825 0.1 0  0.85 0.1 0  0.875 0.1 0  0.9 0.1 0  0.925 0.1 0  0.95 0.1 0  0.975 0.1 0  1 0.1 0  0 0.125 0  0.025 0.125 0  0.05 0.125 0  0.075 0.125 0  0.1 0.125 0  0.125 0.125 0  0.15 0.125 0  0.175 0.125 0  0.2 0.125 0  0.225 0.125 0  0.25 0.125 0  0.275 0.125 0  0.3 0.125 0  0.325 0.125 0  0.35 0.125 0  0.375 0.125 0  0.4 0.125 0  0.425 0.125 0  0.45 0.125 0  0.475 0.125 0  0.5 0.125 0  0.525 0.125 0  0.55 0.125 0  0.575 0.125 0  0.6 0.125 0  0.625 0.125 0  0.65 0.125 0  0.675 0.125 0  0.7 0.125 0  0.725 0.125 0  0.75 0.125 0  0.775 0.125 0  0.8 0.125 0  0.825 0.125 0  0.85 0.125 0  0.875 0.125 0  0.9 0.125 0  0.925 0.125 0  0.95 0.125 0  0.975 0.125 0  1 0.125 0  0 0.15 0  0.025 0.15 0  0.05 0.15 0  0.075 0.15 0  0.1 0.15 0  0.125 0.15 0  0.15 0.15 0  0.175 0.15 0  0.2 0.15 0  0.225 0.15 0  0.25 0.15 0  0.275 0.15 0  0.3 0.15 0  0.325 0.15 0  0.35 0.15 0  0.375 0.15 0  0.4 0.15 0  0.425 0.15 0  0.45 0.15 0  0.475 0.15 0  0.5 0.15 0  0.525 0.15 0  0.55 0.15 0  0.575 0.15 0  0.6 0.15 0  0.625 0.15 0  0.65 0.15 0  0.675 0.15 0  0.7 0.15 0  0.725 0.15 0  0.75 0.15 0  0.775 0.15 0  0.8 0.15 0  0.825 0.15 0  0.85 0.15 0  0.875 0.15 0  0.9 0.15 0  0.925 0.15 0  0.95 0.15 0  0.975 0.15 0  1 0.15 0  0 0.175 0  0.025 0.175 0  0.05 0.175 0  0.075 0.175 0  0.1 0.175 0  0.125 0.175 0  0.15 0.175 0  0.175 0.175 0  0.2 0.175 0  0.225 0.175 0  0.25 0.175 0  0.275 0.175 0  0.3 0.175 0  0.325 0.175 0  0.35 0.175 0  0.375 0.175 0  0.4 0.175 0  0.425 0.175 0  0.45 0.175 0  0.475 0.175 0  0.5 0.175 0  0.525 0.175 0  0.55 0.175 0  0.575 0.175 0  0.6 0.175 0  0.625 0.175 0  0.65 0.175 0  0.675 0.175 0  0.7 0.175 0  0.725 0.175 0  0.75 0.175 0  0.775 0.175 0  0.8 0.175 0  0.825 0.175 0  0.85 0.175 0  0.875 0.175 0  0.9 0.175 0  0.925 0.175 0  0.95 0.175 0  0.975 0.175 0  1 0.175 0  0 0.2 0  0.025 0.2 0  0.05 0.2 0  0.075 0.2 0  0.1 0.2 0  0.125 0.2 0  0.15 0.2 0  0.175 0.2 0  0.2 0.2 0  0.225 0.2 0  0.25 0.2 0  0.275 0.2 0  0.3 0.2 0  0.325 0.2 0  0.35 0.2 0  0.375 0.2 0  0.4 0.2 0  0.425 0.2 0  0.45 0.2 0  0.475 0.2 0  0.5 0.2 0  0.525 0.2 0  0.55 0.2 0  0.575 0.2 0  0.6 0.2 0  0.625 0.2 0  0.65 0.2 0  0.675 0.2 0  0.7 0.2 0  0.725 0.2 0  0.75 0.2 0  0.775 0.2 0  0.8 0.2 0  0.825 0.2 0  0.85 0.2 0  0.875 0.2 0  0.9 0.2 0  0.925 0.2 0  0.95 0.2 0  0.975 0.2 0  1 0.2 0  0 0.225 0  0.025 0.225 0  0.05 0.225 0  0.075 0.225 0  0.1 0.225 0  0.125 0.225 0  0.15 0.225 0  0.175 0.225 0  0.2 0.225 0  0.225 0.225 0  0.25 0.225 0  0.275 0.225 0  0.3 0.225 0  0.325 0.225 0  0.35 0.225 0  0.375 0.225 0  0.4 0.225 0  0.425 0.225 0  0.45 0.225 0  0.475 0.225 0  0.5 0.225 0  0.525 0.225 0  0.55 0.225 0  0.575 0.225 0  0.6 0.225 0  0.625 0.225 0  0.65 0.225 0  0.675 0.225 0  0.7 0.225 0  0.725 0.225 0  0.75 0.225 0  0.775 0.225 0  0.8 0.225 0  0.825 0.225 0  0.85 0.225 0  0.875 0.225 0  0.9 0.225 0  0.925 0.225 0  0.95 0.225 0  0.975 0.225 0  1 0.225 0  0 0.25 0  0.025 0.25 0  0.05 0.25 0  0.075 0.25 0  0.1 0.25 0  0.125 0.25 0  0.15 0.25 0  0.175 0.25 0  0.2 0.25 0  0.225 0.25 0  0.25 0.25 0  0.275 0.25 0  0.3 0.25 0  0.325 0.25 0  0.35 0.25 0  0.375 0.25 0  0.4 0.25 0  0.425 0.25 0  0.45 0.25 0  0.475 0.25 0  0.5 0.25 0  0.525 0.25 0  0.55 0.25 0  0.575 0.25 0  0.6 0.25 0  0.625 0.25 0  0.65 0.25 0  0.675 0.25 0  0.7 0.25 0  0.725 0.25 0  0.75 0.25 0  0.775 0.25 0  0.8 0.25 0  0.825 0.25 0  0.85 0.25 0  0.875 0.25 0  0.9 0.25 0  0.925 0.25 0  0.95 0.25 0  0.975 0.25 0  1 0.25 0  0 0.275 0  0.025 0.275 0  0.05 0.275 0  0.075 0.275 0  0.1 0.275 0  0.125 0.275 0  0.15 0.275 0  0.175 0.275 0  0.2 0.275 0  0.225 0.275 0  0.25 0.275 0  0.275 0.275 0  0.3 0.275 0  0.325 0.275 0  0.35 0.275 0  0.375 0.275 0  0.4 0.275 0  0.425 0.275 0  0.45 0.275 0  0.475 0.275 0  0.5 0.275 0  0.525 0.275 0  0.55 0.275 0  0.575 0.275 0  0.6 0.275 0  0.625 0.275 0  0.65 0.275 0  0.675 0.275 0  0.7 0.275 0  0.725 0.275 0  0.75 0.275 0  0.775 0.275 0  0.8 0.275 0  0.825 0.275 0  0.85 0.275 0  0.875 0.275 0  0.9 0.275 0  0.925 0.275 0  0.95 0.275 0  0.975 0.275 0  1 0.275 0  0 0.3 0  0.025 0.3 0  0.05 0.3 0  0.075 0.3 0  0.1 0.3 0  0.125 0.3 0  0.15 0.3 0  0.175 0.3 0  0.2 0.3 0  0.225 0.3 0  0.25 0.3 0  0.275 0.3 0  0.3 0.3 0  0.325 0.3 0  0.35 0.3 0  0.375 0.3 0  0.4 0.3 0  0.425 0.3 0  0.45 0.3 0  0.475 0.3 0  0.5 0.3 0  0.525 0.3 0  0.55 0.3 0  0.575 0.3 0  0.6 0.3 0  0.625 0.3 0  0.65 0.3 0  0.675 0.3 0  0.7 0.3 0  0.725 0.3 0  0.75 0.3 0  0.775 0.3 0  0.8 0.3 0  0.825 0.3 0  0.85 0.3 0  0.875 0.3 0  0.9 0.3 0  0.925 0.3 0  0.95 0.3 0  0.975 0.3 0  1 0.3 0  0 0.325 0  0.025 0.325 0  0.05 0.325 0  0.075 0.325 0  0.1 0.325 0  0.125 0.325 0  0.15 0.325 0  0.175 0.325 0  0.2 0.325 0  0.225 0.325 0  0.25 0.325 0  0.275 0.325 0  0.3 0.325 0  0.325 0.325 0  0.35 0.325 0  0.375 0.325 0  0.4 0.325 0  0.425 0.325 0  0.45 0.325 0  0.475 0.325 0  0.5 0.325 0  0.525 0.325 0  0.55 0.325 0  0.575 0.325 0  0.6 0.325 0  0.625 0.325 0  0.65 0.325 0  0.675 0.325 0  0.7 0.325 0  0.725 0.325 0  0.75 0.325 0  0.775 0.325 0  0.8 0.325 0  0.825 0.325 0  0.85 0.325 0  0.875 0.325 0  0.9 0.325 0  0.925 0.325 0  0.95 0.325 0  0.975 0.325 0  1 0.325 0  0 0.35 0  0.025 0.35 0  0.05 0.35 0  0.075 0.35 0  0.1 0.35 0  0.125 0.35 0  0.15 0.35 0  0.175 0.35 0  0.2 0.35 0  0.225 0.35 0  0.25 0.35 0  0.275 0.35 0  0.3 0.35 0  0.325 0.35 0  0.35 0.35 0  0.375 0.35 0  0.4 0.35 0  0.425 0.35 0  0.45 0.35 0  0.475 0.35 0  0.5 0.35 0  0.525 0.35 0  0.55 0.35 0  0.575 0.35 0  0.6 0.35 0  0.625 0.35 0  0.65 0.35 0  0.675 0.35 0  0.7 0.35 0  0.725 0.35 0  0.75 0.35 0  0.775 0.35 0  0.8 0.35 0  0.825 0.35 0  0.85 0.35 0  0.875 0.35 0  0.9 0.35 0  0.925 0.35 0  0.95 0.35 0  0.975 0.35 0  1 0.35 0  0 0.375 0  0.025 0.375 0  0.05 0.375 0  0.075 0.375 0  0.1 0.375 0  0.125 0.375 0  0.15 0.375 0  0.175 0.375 0  0.2 0.375 0  0.225 0.375 0  0.25 0.375 0  0.275 0.375 0  0.3 0.375 0  0.325 0.375 0  0.35 0.375 0  0.375 0.375 0  0.4 0.375 0  0.425 0.375 0  0.45 0.375 0  0.475 0.375 0  0.5 0.375 0  0.525 0.375 0  0.55 0.375 0  0.575 0.375 0  0.6 0.375 0  0.625 0.375 0  0.65 0.375 0  0.675 0.375 0  0.7 0.375 0  0.725 0.375 0  0.75 0.375 0  0.775 0.375 0  0.8 0.375 0  0.825 0.375 0  0.85 0.375 0  0.875 0.375 0  0.9 0.375 0  0.925 0.375 0  0.95 0.375 0  0.975 0.375 0  1 0.375 0  0 0.4 0  0.025 0.4 0  0.05 0.4 0  0.075 0.4 0  0.1 0.4 0  0.125 0.4 0  0.15 0.4 0  0.175 0.4 0  0.2 0.4 0  0.225 0.4 0  0.25 0.4 0  0.275 0.4 0  0.3 0.4 0  0.325 0.4 0  0.35 0.4 0  0.375 0.4 0  0.4 0.4 0  0.425 0.4 0  0.45 0.4 0  0.475 0.4 0  0.5 0.4 0  0.525 0.4 0  0.55 0.4 0  0.575 0.4 0  0.6 0.4 0  0.625 0.4 0  0.65 0.4 0  0.675 0.4 0  0.7 0.4 0  0.725 0.4 0  0.75 0.4 0  0.775 0.4 0  0.8 0.4 0  0.825 0.4 0  0.85 0.4 0  0.875 0.4 0  0.9 0.4 0  0.925 0.4 0  0.95 0.4 0  0.975 0.4 0  1 0.4 0  0 0.425 0  0.025 0.425 0  0.05 0.425 0  0.075 0.425 0  0.1 0.425 0  0.125 0.425 0  0.15 0.425 0  0.175 0.425 0  0.2 0.425 0  0.225 0.425 0  0.25 0.425 0  0.275 0.425 0  0.3 0.425 0  0.325 0.425 0  0.35 0.425 0  0.375 0.425 0  0.4 0.425 0  0.425 0.425 0  0.45 0.425 0  0.475 0.425 0  0.5 0.425 0  0.525 0.425 0  0.55 0.425 0  0.575 0.425 0  0.6 0.425 0  0.625 0.425 0  0.65 0.425 0  0.675 0.425 0  0.7 0.425 0  0.725 0.425 0  0.75 0.425 0  0.775 0.425 0  0.8 0.425 0  0.825 0.425 0  0.85 0.425 0  0.875 0.425 0  0.9 0.425 0  0.925 0.425 0  0.95 0.425 0  0.975 0.425 0  1 0.425 0  0 0.45 0  0.02
[...]
<PointData  Scalars="ControlVisualisation"> 
<DataArray  type="Float64"  Name="ControlVisualisation"  format="ascii">3.2355698072655503e-01  2.7205982545318547e-01  2.7206344782668046e-01  2.7223335910541335e-01  2.7265531381521846e-01  2.7331681879863479e-01  2.7413176578276582e-01  2.7499588437248446e-01  2.7583081663518760e-01  2.7659484374874777e-01  2.7727294538638664e-01  2.7786376674500957e-01  2.7837121128412995e-01  2.7880069524356599e-01  2.7915790397989476e-01  2.7944839692071932e-01  2.7967734387427512e-01  2.7984924009930756e-01  2.7996763630716925e-01  2.8003492595446200e-01  2.8005219899670347e-01  2.8001915566777069e-01  2.7993408065668546e-01  2.7979389519051068e-01  2.7959431928855699e-01  2.7933017691780865e-01  2.7899585057477577e-01  2.7858583703898060e-01  2.7809529868918542e-01  2.7752055258864111e-01  2.7685979925346843e-01  2.7611506666713714e-01  2.7529770237782974e-01  2.7443850121555596e-01  2.7359892357519178e-01  2.7287345343218333e-01  2.7235750719544100e-01  2.7209580832803731e-01  2.7204336092971276e-01  2.7207684119692421e-01  3.9315407732181079e-01  2.7205549375063920e-01  1.8089240185227612e-01  1.8131916165344311e-01  1.8261519149160488e-01  1.8511490341242087e-01  1.8876975229058751e-01  1.9324346408678594e-01  1.9811120972366494e-01  2.0300164976268337e-01  2.0764641579209828e-01  2.1187053569469322e-01  2.1556979931960299e-01  2.1869478133058967e-01  2.2124066606437379e-01  2.2323832302323673e-01  2.2474510629270875e-01  2.2583545271970826e-01  2.2659101287969061e-01  2.2708992775394635e-01  2.2739570816511251e-01  2.2754723100502799e-01  2.2755180282052329e-01  2.2738286125799620e-01  2.2698296106736238e-01  2.2627160539831520e-01  2.2515659490419174e-01  2.2354720352075091e-01  2.2136776522222845e-01  2.1857074399278176e-01  2.1514833028396085e-01  2.1114088918681168e-01  2.0664093476598813e-01  2.0179596952724188e-01  1.9681446353021148e-01  1.9198491061299008e-01  1.8768214034900002e-01  1.8429859602853549e-01  1.8211308886253294e-01  1.8108102353849675e-01  1.8082894678094494e-01  2.7207644545571319e-01  2.7201484800266001e-01  1.8123459625796162e-01  1.8317847405704707e-01  1.8741612977192842e-01  1.9487217678756583e-01  2.0580622281150082e-01  2.1987332889345274e-01  2.3645780926684012e-01  2.5480327350494142e-01  2.7401899155748449e-01  2.9314943804472654e-01  3.1131929703853950e-01  3.2786660229973269e-01  3.4240694623926327e-01  3.5481876112790067e-01  3.6516422332453369e-01  3.7358044720598071e-01  3.8018649705174201e-01  3.8503829320107374e-01  3.8813351670356699e-01  3.8944432798400691e-01  3.8894923658968400e-01  3.8664338932251618e-01  3.8252065226195209e-01  3.7653636223121228e-01  3.6857396451938967e-01  3.5844626342502323e-01  3.4595354008438300e-01  3.3099345494120963e-01  3.1368627063845078e-01  2.9446746241649246e-01  2.7411488319650446e-01  2.5369354590337495e-01  2.3440751955572822e-01  2.1740047939021262e-01  2.0350524814929444e-01  1.9317292373892064e-01  1.8642693930403137e-01  1.8266047911941455e-01  1.8101062065678544e-01  2.7202954015852521e-01  2.7207209205874844e-01  1.8245315386416877e-01  1.8880337229587876e-01  2.0324329659883048e-01  2.3011526721747255e-01  2.7248670063347968e-01  3.3025164023050363e-01  3.9805650445482532e-01  4.6657106466411152e-01  5.2748880468871817e-01  5.7671540953117717e-01  6.1395120900612721e-01  6.4095233063465940e-01  6.6012015508460076e-01  6.7370563150825657e-01  6.8346704091698474e-01  6.9060452242095394e-01  6.9584155753800025e-01  6.9956127733325424e-01  7.0193935185751999e-01  7.0304485913308157e-01  7.0290024432413556e-01  7.0150005055572140e-01  6.9878896545793534e-01  6.9459794640000805e-01  6.8853801749654031e-01  6.7985986320575920e-01  6.6730695476253121e-01  6.4901926575898150e-01  6.2257890668195692e-01  5.8533252718184303e-01  5.3519615464219428e-01  4.7216778253782132e-01  4.0033896720467910e-01  3.2863225606690505e-01  2.6758057069697977e-01  2.2422023918087278e-01  1.9887894060718284e-01  1.8682650510121224e-01  1.8181540402557406e-01  2.7200982766295095e-01  2.7248636287893008e-01  1.8702313534325143e-01  2.1641426600886296e-01  2.9105264976832290e-01  4.3630302553891742e-01  6.2462523928894131e-01  7.7535376016210522e-01  8.5747779162946158e-01  8.9206045863585826e-01  9.0298131791075464e-01  9.0363019708617687e-01  9.0022653072044134e-01  8.9556494602742820e-01  8.9093370171950137e-01  8.8692297534615760e-01  8.8375726639326357e-01  8.8145362278727446e-01  8.7991821152332661e-01  8.7901488665737015e-01  8.7861401743962486e-01  8.7862437149020789e-01  8.7901036094881446e-01  8.7979651571783724e-01  8.8105983716543523e-01  8.8290919642860977e-01  8.8545000030514331e-01  8.8873277613912260e-01  8.9268601493566746e-01  8.9703242085925505e-01  9.0116824287237474e-01  9.0390901340461527e-01  9.0279667556699206e-01  8.9223287584980504e-01  8.5932241685148147e-01  7.7893708598126621e-01  6.2598979924616793e-01  4.3182033775518125e-01  2.8142081535548674e-01  2.0740301208611586e-01  1.8460292570236073e-01  2.7216340041249359e-01  2.7545082245928798e-01  2.1953575169956135e-01  4.3565634156373267e-01  8.2809557529193001e-01  9.5871078652743102e-01  9.7199011222874931e-01  9.7102428108010286e-01  9.6967972732941510e-01  9.6844399695443872e-01  9.6685554853156663e-01  9.6468364330250933e-01  9.6197989538424833e-01  9.5898585749892484e-01  9.5600253159573279e-01  9.5328551321125821e-01  9.5099548264038702e-01  9.4919714927517873e-01  9.4788468725315167e-01  9.4701432249086848e-01  9.4653300028688026e-01  9.4639886129879969e-01  9.4659287692026772e-01  9.4712212827836617e-01  9.4801498966053499e-01  9.4930790456651959e-01  9.5102347178443492e-01  9.5314128662827247e-01  9.5556759335246155e-01  9.5811757834294875e-01  9.6053158822252660e-01  9.6254286002531930e-01  9.6398541022037332e-01  9.6488770021581005e-01  9.6549574730946164e-01  9.6619957698540682e-01  9.6631194346287841e-01  9.5066539542798467e-01  8.0426110868719802e-01  4.0679021820846550e-01  2.0186150891025464e-01  2.7323917016931787e-01  3.4626333693713074e-01  7.1297583964278188e-01  9.2382109021730185e-01  9.4757047345521173e-01  9.5858620723669752e-01  9.6376344661672375e-01  9.6716393858006600e-01  9.6965678665715593e-01  9.7151668166034322e-01  9.7288012474815233e-01  9.7377897928577073e-01  9.7421860147319805e-01  9.7425907330577044e-01  9.7402427030704541e-01  9.7365780330962259e-01  9.7327730073442043e-01  9.7295373368379279e-01  9.7271447220309870e-01  9.7255814667785001e-01  9.7247105576604131e-01  9.7243986799040072e-01  9.7245909427561161e-01  9.7253337282785168e-01  9.7267469907435766e-01  9.7289442885593103e-01  9.7319029431660597e-01  9.7353079410144727e-01  9.7384343016480535e-01  9.7401743226534465e-01  9.7392993817483209e-01  9.7348865958406983e-01  9.7265479672695054e-01  9.7139998935269900e-01  9.6960787305182417e-01  9.6700210212500859e-01  9.6303293278921265e-01  9.5630958430783131e-01  9.4252799480075222e-01  9.1592667090643443e-01  5.8891068243407818e-01  2.8645032747764115e-01  9.3716913774583832e-01  9.7904250508126034e-01  9.8796853652253602e-01  9.8539954947151343e-01  9.8273264961038942e-01  9.8080041741376234e-01  9.7962549946226862e-01  9.7925140304891245e-01  9.7949578838365836e-01  9.8005780135081766e-01  9.8067883163772573e-01  9.8120513848527802e-01  9.8158733376017382e-01  9.8185066502025953e-01  9.8205000487769056e-01  9.8223055551106808e-01  9.8241016667632430e-01  9.8258201775383669e-01  9.8272654444428265e-01  9.8282305310105200e-01  9.8285720319403957e-01  9.8282454430256427e-01  9.8273136512655601e-01  9.8259332994516946e-01  9.8243108383813349e-01  9.8226151271999385e-01  9.8208518745431439e-01  9.8187560758652392e-01  9.8158160909704262e-01  9.8115291281578609e-01  9.8058444583694171e-01  9.7995895346211248e-01  9.7947199862296475e-01  9.7942977867269254e-01  9.8015393485194402e-01  9.8172649479031859e-01  9.8388810008194738e-01  9.8628330828215094e-01  9.8958032404344787e-01  9.8016723133991479e-01  9.0060250057248969e-01  9.8827039922611160e-01  9.9283805560959715e-01  9.9195677283239481e-01  9.9100016191522589e-01  9.8982272439378938e-01  9.8858253467645740e-01  9.8743220357603645e-01  9.8650621731750154e-01  9.8595633518733383e-01  9.8577471082196122e-01  9.8581156804143766e-01  9.8590929316564679e-01  9.8599315841352486e-01  9.8607695085303693e-01  9.8620758287441690e-01  9.8640785150094357e-01  9.8665855787744916e-01  9.8691509262438237e-01  9.8713158968577630e-01  9.8727495853964398e-01  9.8732745770263974e-01  9.8728432175430569e-01  9.8715238457995902e-01  9.8695152824989696e-01  9.8671600980514662e-01  9.8648899940237922e-01  9.8630482128337094e-01  9.8616453117869851e-01  9.8602818326394714e-01  9.8584953864345592e-01  9.8564487426283376e-01  9.8554317763439581e-01  9.8576670795202115e-01  9.8652002743818479e-01  9.8778409267435263e-01  9.8918610781151706e-01  9.9035812857069228e-01  9.9122853249198839e-01  9.9241787864798126e-01  9.9306117529391247e-01  9.8303259351261829e-01  9.9446315895286830e-01  9.9719699189394817e-01  9.9564785736813444e-01  9.9391685234028537e-01  9.9207413653893539e-01  9.9021035230369447e-01  9.8921218139461597e-01  9.8896748307478022e-01  9.8886266772107401e-01  9.8877895395895021e-01  9.8875149673154250e-01  9.8869539190625488e-01  9.8854224951584413e-01  9.8835796030688328e-01  9.8827604621652365e-01  9.8837266527218992e-01  9.8862140710284008e-01  9.8893348260971048e-01  9.8921659051792254e-01  9.8940710965914214e-01  9.8947346186889440e-01  9.8940807901298922e-01  9.8922303563954617e-01  9.8895413605156646e-01  9.8866701948879965e-01  9.8844939569120949e-01  9.8837416090287289e-01  9.8844292894869756e-01  9.8856307516991526e-01  9.8861671495016967e-01  9.8858561694823077e-01  9.8858269925147058e-01  9.8871989365365920e-01  9.8900498900264877e-01  9.8951542054439268e-01  9.9059146556672983e-01  9.9232214908743355e-01  9.9413255160799130e-01  9.9605826730909719e-01  9.9739113715213179e-01  9.9261749927219145e-01  9.9564781706469840e-01  9.9813700814077722e-01  9.9671761393239344e-01  9.9496274962155029e-01  9.9312448847320356e-01  9.9079504544433972e-01  9.8909808787863385e-01  9.8886658097416535e-01  9.8922468885883685e-01  9.8945100812109454e-01  9.8958138424087494e-01  9.8962865176644355e-01  9.8949103641699132e-01  9.8922875652678421e-01  9.8904915602471455e-01  9.8910239618730611e-01  9.8937982623319420e-01  9.8976467762136189e-01  9.9012553175012330e-01  9.9037021340563625e-01  9.9045308484283157e-01  9.9036317185320022e-01  9.9011708724421987e-01  9.8976480601369421e-01  9.8939938466424693e-01  9.8914655392036033e-01  9.8910885427061013e-01  9.8927672062018235e-01  9.8949272125510224e-01  9.8956738026857605e-01  9.8947151389049337e-01  9.8932117707234946e-01  9.8912218158059206e-01  9.8888666929011171e-01  9.8924448705188583e-01  9.9089820700813114e-01  9.9314574699010782e-01  9.9497442459846275e-01  9.9672216178063922e-01  9.9811602345029748e-01  9.9563760646206312e-01  9.9271508350086435e-01  9.9745523946152748e-01  9.9597611863658153e-01  9.9406450737330954e-01  9.9213162828271151e-01  9.8964487487410602e-01  9.8759417839439023e-01  9.8710104688149447e-01  9.8760248961466168e-01  9.8815700731970135e-01  9.8860589028168189e-01  9.8894279389075834e-01  9.8905529334338371e-01  9.8898201513840067e-01  9.8892131858830856e-01  9.8902247284119249e-01  9.8928083856675075e-01  9.8959575967448532e-01  9.8986646637104880e-01  9.9003725511306950e-01  9.9009128084651477e-01  9.9002803643495163e-01  9.8985211698048414e-01  9.8958249243351792e-01  9.8927368196103005e-01  9.8902224718362064e-01  9.8892420553952232e-01  9.8898252605145598e-01  9.8904956016058132e-01  9.8892726672008446e-01  9.8857252014543573e-01  9.8809857000184587e-01  9.8753509886074820e-01  9.8704682118141496e-01  9.8750668138863973e-01  9.8948674339556864e-01  9.9195739957463280e-01  9.9387232711423112e-01  9.9561869602320585e-01  9.9723759121636713e-01  9.9450399643465570e-01  9.8327693626230983e-01  9.9307550174097559e-01  9.9207462895742615e-01  9.9029473954741665e-01  9.8823808173945593e-01  9.8562989902367848e-01  9.8350761485913529e-01  9.8286902500338202e-01  9.8346035707162838e-01  9.8450927531408439e-01  9.8565091367911639e-01  9.8669408842510042e-01  9.8746293570049648e-01  9.8793047640280385e-01  9.8820196972342778e-01  9.8837188674098864e-01  9.8846332268365766e-01  9.8847192021068941e-01  9.8841737386699735e-01  9.8834829621143405e-01  9.8831408876122639e-01  9.8833564536563134e-01  9.8839367993553517e-01  9.8843944034135767e-01  9.8842329248889527e-01  9.8832427626072217e-01  9.8815034131465129e-01  9.8789058183382128e-01  9.8746160261666815e-01  9.8674561322102916e-01  9.8572999532513372e-01  9.8456096723526854e-01  9.8343053132352776e-01  9.8268864144077672e-01  9.8311704694758584e-01  9.8513100904230722e-01  9.8782307551439485e-01  9.9001859165441486e-01  9.9151936722560385e-01  9.9290458223538414e-01  9.8832118043895645e-01  8.8984310576456715e-01  9.8155487421184973e-01  9.8536404200028516e-01  9.8099259224966251e-01  9.7816535849317821e-01  9.7538639451866294e-01  9.7353914625155358e-01  9.7346609333650502e-01  9.7500642903021106e-01  9.7745458468805591e-01  9.8021343926606941e-01  9.8282937024542849e-01  9.8498159557295473e-01  9.8655294078052247e-01  9.8760078772316029e-01  9.8825042844127320e-01  9.8862319662888321e-01  9.8881991593326213e-01  9.8892017972886614e-01  9.8897752795160943e-01  9.8901667635241819e-01  9.8903773958045804e-01  9.8902206309930341e-01  9.8893383001471158e-01  9.8871944272132994e-01  9.8831006101751373e-01  9.8762556334393692e-01  9.8657298125073811e-01  9.8504927875448423e-01  9.8298429784135621e-01  9.8043265056873830e-01  9.7763725335020601e-01  9.7500553492242503e-01  9.7311863655065700e-01  9.7273778223575358e-01  9.7428481800490907e-01  9.7722671212058276e-01  9.8082976327240690e-01  9.8471820654027509e-01  9.8311420165385943e-01  9.3634028946420800e-01  2.9171524739669108e-01  6.4753775263579638e-01  8.9957413305185285e-01  9.3782685144338329e-01  9.4451176724579400e-01  9.4707455267732144e-01  9.4973913373199603e-01  9.5367017743032445e-01  9.5885989831597707e-01  9.6484852192124015e-01  9.7102367744366058e-01  9.7678240823216611e-01  9.8171770195549501e-01  9.8572324353985141e-01  9.8893489323952843e-01  9.9157678892044332e-01  9.9382666529721020e-01  9.9575314770548273e-01  9.9731768781194574e-01  9.9841625766264164e-01  9.9893685695247936e-01  9.9881044222894633e-01  9.9803673786132652e-01  9.9667608873176772e-01  9.9481165697895158e-01  9.9249750036750528e-01  9.8971379291774886e-01  9.8635146823365361e-01  9.8224689991745862e-01  9.7727574628564862e-01  9.7147920969199020e-01  9.6515049294562705e-01  9.5881573109078899e-01  9.5311099549115941e-01  9.4857147782160067e-01  9.4533149552882834e-01  9.4271243087785628e-01  9.3765423137259507e-01  9.0714951303794855e-01  7.4065085551960286e-01  3.5953408037148815e-01  2.7444253225177906e-01  2.2424053097547891e-01  5.5638207979709653e-01  7.7690046486148168e-01  8.4657319404066111e-01  8.7830597744778938e-01  8.9730470956442976e-01  9.1170854923073130e-01  9.2488659895341963e-01  9.3785685134560892e-01  9.5023635613773150e-01  9.6118333723474847e-01  9.7008645220062550e-01  9.7682844002289548e-01  9.8169826152233663e-01  9.8515601993637236e-01  9.8763248891555311e-01  9.8943471211411693e-01  9.9073905040158505e-01  9.9162463449408045e-01  9.9211117164690199e-01  9.9218435449917564e-01  9.9180505541931896e-01  9.9090354094503885e-01  9.8936096745886837e-01  9.8698264178381045e-01  9.8347542299962332e-01  9.7845532206851094e-01  9.7152039303885518e-01  9.6240542961838371e-01  9.5117262982265571e-01  9.3831673235340696e-01  9.2464059747209382e-01  9.1077755133893479e-01  8.9623743677590362e-01  8.7807741297088382e-01  8.4909110054890335e-01  7.8817212791666558e-01  5.9049901359196710e-01  2.4865430004740013e-01  2.7765807341921567e-01  2.7359267256059594e-01  1.9656413018069974e-01  2.4510580460546474e-01  4.2474026165709572e-01  5.9523547648800990e-01  6.9380646372627197e-01  7.5067106387684257e-01  7.8830740777835195e-01  8.1706912404951004e-01  8.4031642854512967e-01  8.5828451442717779e-01  8.7052001688355984e-01  8.7705080635404553e-01  8.7863390146180076e-01  8.7651449922839131e-01  8.7208031194771218e-01  8.6661489833711824e-01  8.6118406972524386e-01  8.5660890561342695e-01  8.5347296059878530e-01  8.5213369087792645e-01  8.5272802780897639e-01  8.5517131330242990e-01  8.5915095872695235e-01  8.6411615997684499e-01  8.6926644986403512e-01  8.7354838191323425e-01  8.7568403460006494e-01  8.7427254021907785e-01  8.6800426563323152e-01  8.5597035741551231e-01  8.3792492823927389e-01  8.1421441049882126e-01  7.8497521794410141e-01  7.4801886044912835e-01  6.9466681969342892e-01  6.0373060430698844e-01  4.4200343294535088e-01  2.5655509935561394e-01  1.9977101652646390e-01  2.7428546270383208e-01  2.7325581981380825e-01  1.9094569710824166e-01  1.9932972697159218e-01  2.2648666322315214e-01  2.8977177181446134e-01  3.6348020551895399e-01  4.2900481983615468e-01  4.8126679250502602e-01  5.2097694208105527e-01  5.4959680279757384e-01  5.6844629461526186e-01  5.7887185994441037e-01  5.8239867242380128e-01  5.8070427790019008e-01  5.7548366971195597e-01  5.6830676899890731e-01  5.6052072022697452e-01  5.5320665720959539e-01  5.4717648891526727e-01  5.4299043003512004e-01  5.4098024092226860e-01  5.4126834261178847e-01  5.4377680189550326e-01  5.4822351760516463e-01  5.5410655696493560e-01  5.6068145947511860e-01  5.6694051224704145e-01  5.7160781465843868e-01  5.7316809188328233e-01  5.6994553679041060e-01  5.6023418411641734e-01  5.4245153405957980e-01  5.1525062760084162e-01  4.7749972286681031e-01  4.2812460368735672e-01  3.6649690285455239e-01  2.9591180875051304e-01  2.3238231617425903e-01  2.0231029050582794e-01  1.9232227442349781e-01  2.7345459743671691e-01  2.7325380514527614e-01  1.8954324370243303e-01  1.9523974245305509e-01  1.9695807359476125e-01  2.0536097836723721e-01  2.2107518260764997e-01  2.4051241944852758e-01  2.6019815704066296e-01  2.7770479616780958e-01  2.9166739605043129e-01  3.0167104966108721e-01  3.0792813784660866e-01  3.1098815039978789e-01  3.1154396967017373e-01  3.1032046755493803e-01  3.0800774482977722e-01  3.0521655147726001e-01  3.0245060224192466e-01  3.0009455954801101e-01  2.9841464355338398e-01  2.9756655642739660e-01  2.9760483380389158e-01  2.9848890442050507e-01  3.0008354000220455e-01  3.0215427887181184e-01  3.0436101586738906e-01  3.0625462631673733e-01  3.0728188770874121e-01  3.0680323150511379e-01  3.0412742890694566e-01  2.9857098619315892e-01  2.8956173888641462e-01  2.7681860224306493e-01  2.6062022475192481e-01  2.4209291932742458e-01  2.2337518509526616e-01  2.0760059910095585e-01  1.9834871583480940e-01  1.9598548537032162e-01  1.9014064399373046e-01  2.7328405499717873e-01  2.7329819454081461e-01  1.8892179481250770e-01  1.9452609306847346e-01  1.9463831749285637e-01  1.9462495900793586e-01  1.9610830053989831e-01  1.9890135582554186e-01  2.0236893295812669e-01  2.0583306244739544e-01  2.0879254814543252e-01  2.1099609392175278e-01  2.1239477691317651e-01  2.1306366692597198e-01  2.1313763334236252e-01  2.1277514245195137e-01  2.1213853612597691e-01  2.1138078977027761e-01  2.1063519207869175e-01  2.1000809326059047e-01  2.0957529454685689e-01  2.0938158044602467e-01  2.0944200671066845e-01  2.0974346746695902e-01  2.1024569333987628e-01  2.1088175476664492e-01  2.1155887771657184e-01  2.1216057871554522e-01  2.1255076912426293e-01  2.1258005516187345e-01  2.1209508011724293e-01  2.1095471327444298e-01  2.0906177850359348e-01  2.0642016181767328e-01  2.0321252187885894e-01  1.9985808406432265e-01  1.9698398378817406e-01  1.9527016260668617e-01  1.9505384971377818e-01  1.9495927682126388e-01  1.8932078425618634e-01  2.7331988311718358e-01  2.7328452851055113e-01  1.8840468614949343e-01  1.9395916324021489e-01  1.9468295507835423e-01  1.9426883626210537e-01  1.9389986994441996e-01  1.9372933543820206e-01  1.9366977406020047e-01  1.936094987