<?xml version="1.0"?>
<VTKFile type="UnstructuredGrid"  version="0.1"  >
<UnstructuredGrid>
<Piece  NumberOfPoints="1681" NumberOfCells="3200">
<Points>
<DataArray  type="Float64"  NumberOfComponents="3"  format="ascii">0 0 0  0.025 0 0  0.05 0 0  0.075 0 0  0.1 0 0  0.125 0 0  0.15 0 0  0.175 0 0  0.2 0 0  0.225 0 0  0.25 0 0  0.275 0 0  0.3 0 0  0.325 0 0  0.35 0 0  0.375 0 0  0.4 0 0  0.425 0 0  0.45 0 0  0.475 0 0  0.5 0 0  0.525 0 0  0.55 0 0  0.575 0 0  0.6 0 0  0.625 0 0  0.65 0 0  0.675 0 0  0.7 0 0  0.725 0 0  0.75 0 0  0.775 0 0  0.8 0 0  0.825 0 0  0.85 0 0  0.875 0 0  0.9 0 0  0.925 0 0  0.95 0 0  0.975 0 0  1 0 0  0 0.025 0  0.025 0.025 0  0.05 0.025 0  0.075 0.025 0  0.1 0.025 0  0.125 0.025 0  0.15 0.025 0  0.175 0.025 0  0.2 0.025 0  0.225 0.025 0  0.25 0.025 0  0.275 0.025 0  0.3 0.025 0  0.325 0.025 0  0.35 0.025 0  0.375 0.025 0  0.4 0.025 0  0.425 0.025 0  0.45 0.025 0  0.475 0.025 0  0.5 0.025 0  0.525 0.025 0  0.55 0.025 0  0.575 0.025 0  0.6 0.025 0  0.625 0.025 0  0.65 0.025 0  0.675 0.025 0  0.7 0.025 0  0.725 0.025 0  0.75 0.025 0  0.775 0.025 0  0.8 0.025 0  0.825 0.025 0  0.85 0.025 0  0.875 0.025 0  0.9 0.025 0  0.925 0.025 0  0.95 0.025 0  0.975 0.025 0  1 0.025 0  0 0.05 0  0.025 0.05 0  0.05 0.05 0  0.075 0.05 0  0.1 0.05 0  0.125 0.05 0  0.15 0.05 0  0.175 0.05 0  0.2 0.05 0  0.225 0.05 0  0.25 0.05 0  0.275 0.05 0  0.3 0.05 0  0.325 0.05 0  0.35 0.05 0  0.375 0.05 0  0.4 0.05 0  0.425 0.05 0  0.45 0.05 0  0.475 0.05 0  0.5 0.05 0  0.525 0.05 0  0.55 0.05 0  0.575 0.05 0  0.6 0.05 0  0.625 0.05 0  0.65 0.05 0  0.675 0.05 0  0.7 0.05 0  0.725 0.05 0  0.75 0.05 0  0.775 0.05 0  0.8 0.05 0  0.825 0.05 0  0.85 0.05 0  0.875 0.05 0  0.9 0.05 0  0.925 0.05 0  0.95 0.05 0  0.975 0.05 0  1 0.05 0  0 0.075 0  0.025 0.075 0  0.05 0.075 0  0.075 0.075 0  0.1 0.075 0  0.125 0.075 0  0.15 0.075 0  0.175 0.075 0  0.2 0.075 0  0.225 0.075 0  0.25 0.075 0  0.275 0.075 0  0.3 0.075 0  0.325 0.075 0  0.35 0.075 0  0.375 0.075 0  0.4 0.075 0  0.425 0.075 0  0.45 0.075 0  0.475 0.075 0  0.5 0.075 0  0.525 0.075 0  0.55 0.075 0  0.575 0.075 0  0.6 0.075 0  0.625 0.075 0  0.65 0.075 0  0.675 0.075 0  0.7 0.075 0  0.725 0.075 0  0.75 0.075 0  0.775 0.075 0  0.8 0.075 0  0.825 0.075 0  0.85 0.075 0  0.875 0.075 0  0.9 0.075 0  0.925 0.075 0  0.95 0.075 0  0.975 0.075 0  1 0.075 0  0 0.1 0  0.025 0.1 0  0.05 0.1 0  0.075 0.1 0  0.1 0.1 0  0.125 0.1 0  0.15 0.1 0  0.175 0.1 0  0.2 0.1 0  0.225 0.1 0  0.25 0.1 0  0.275 0.1 0  0.3 0.1 0  0.325 0.1 0  0.35 0.1 0  0.375 0.1 0  0.4 0.1 0  0.425 0.1 0  0.45 0.1 0  0.475 0.1 0  0.5 0.1 0  0.525 0.1 0  0.55 0.1 0  0.575 0.1 0  0.6 0.1 0  0.625 0.1 0  0.65 0.1 0  0.675 0.1 0  0.7 0.1 0  0.725 0.1 0  0.75 0.1 0  0.775 0.1 0  0.8 0.1 0  0.825 0.1 0  0.85 0.1 0  0.875 0.1 0  0.9 0.1 0  0.925 0.1 0  0.95 0.1 0  0.975 0.1 0  1 0.1 0  0 0.125 0  0.025 0.125 0  0.05 0.125 0  0.075 0.125 0  0.1 0.125 0  0.125 0.125 0  0.15 0.125 0  0.175 0.125 0  0.2 0.125 0  0.225 0.125 0  0.25 0.125 0  0.275 0.125 0  0.3 0.125 0  0.325 0.125 0  0.35 0.125 0  0.375 0.125 0  0.4 0.125 0  0.425 0.125 0  0.45 0.125 0  0.475 0.125 0  0.5 0.125 0  0.525 0.125 0  0.55 0.125 0  0.575 0.125 0  0.6 0.125 0  0.625 0.125 0  0.65 0.125 0  0.675 0.125 0  0.7 0.125 0  0.725 0.125 0  0.75 0.125 0  0.775 0.125 0  0.8 0.125 0  0.825 0.125 0  0.85 0.125 0  0.875 0.125 0  0.9 0.125 0  0.925 0.125 0  0.95 0.125 0  0.975 0.125 0  1 0.125 0  0 0.15 0  0.025 0.15 0  0.05 0.15 0  0.075 0.15 0  0.1 0.15 0  0.125 0.15 0  0.15 0.15 0  0.175 0.15 0  0.2 0.15 0  0.225 0.15 0  0.25 0.15 0  0.275 0.15 0  0.3 0.15 0  0.325 0.15 0  0.35 0.15 0  0.375 0.15 0  0.4 0.15 0  0.425 0.15 0  0.45 0.15 0  0.475 0.15 0  0.5 0.15 0  0.525 0.15 0  0.55 0.15 0  0.575 0.15 0  0.6 0.15 0  0.625 0.15 0  0.65 0.15 0  0.675 0.15 0  0.7 0.15 0  0.725 0.15 0  0.75 0.15 0  0.775 0.15 0  0.8 0.15 0  0.825 0.15 0  0.85 0.15 0  0.875 0.15 0  0.9 0.15 0  0.925 0.15 0  0.95 0.15 0  0.975 0.15 0  1 0.15 0  0 0.175 0  0.025 0.175 0  0.05 0.175 0  0.075 0.175 0  0.1 0.175 0  0.125 0.175 0  0.15 0.175 0  0.175 0.175 0  0.2 0.175 0  0.225 0.175 0  0.25 0.175 0  0.275 0.175 0  0.3 0.175 0  0.325 0.175 0  0.35 0.175 0  0.375 0.175 0  0.4 0.175 0  0.425 0.175 0  0.45 0.175 0  0.475 0.175 0  0.5 0.175 0  0.525 0.175 0  0.55 0.175 0  0.575 0.175 0  0.6 0.175 0  0.625 0.175 0  0.65 0.175 0  0.675 0.175 0  0.7 0.175 0  0.725 0.175 0  0.75 0.175 0  0.775 0.175 0  0.8 0.175 0  0.825 0.175 0  0.85 0.175 0  0.875 0.175 0  0.9 0.175 0  0.925 0.175 0  0.95 0.175 0  0.975 0.175 0  1 0.175 0  0 0.2 0  0.025 0.2 0  0.05 0.2 0  0.075 0.2 0  0.1 0.2 0  0.125 0.2 0  0.15 0.2 0  0.175 0.2 0  0.2 0.2 0  0.225 0.2 0  0.25 0.2 0  0.275 0.2 0  0.3 0.2 0  0.325 0.2 0  0.35 0.2 0  0.375 0.2 0  0.4 0.2 0  0.425 0.2 0  0.45 0.2 0  0.475 0.2 0  0.5 0.2 0  0.525 0.2 0  0.55 0.2 0  0.575 0.2 0  0.6 0.2 0  0.625 0.2 0  0.65 0.2 0  0.675 0.2 0  0.7 0.2 0  0.725 0.2 0  0.75 0.2 0  0.775 0.2 0  0.8 0.2 0  0.825 0.2 0  0.85 0.2 0  0.875 0.2 0  0.9 0.2 0  0.925 0.2 0  0.95 0.2 0  0.975 0.2 0  1 0.2 0  0 0.225 0  0.025 0.225 0  0.05 0.225 0  0.075 0.225 0  0.1 0.225 0  0.125 0.225 0  0.15 0.225 0  0.175 0.225 0  0.2 0.225 0  0.225 0.225 0  0.25 0.225 0  0.275 0.225 0  0.3 0.225 0  0.325 0.225 0  0.35 0.225 0  0.375 0.225 0  0.4 0.225 0  0.425 0.225 0  0.45 0.225 0  0.475 0.225 0  0.5 0.225 0  0.525 0.225 0  0.55 0.225 0  0.575 0.225 0  0.6 0.225 0  0.625 0.225 0  0.65 0.225 0  0.675 0.225 0  0.7 0.225 0  0.725 0.225 0  0.75 0.225 0  0.775 0.225 0  0.8 0.225 0  0.825 0.225 0  0.85 0.225 0  0.875 0.225 0  0.9 0.225 0  0.925 0.225 0  0.95 0.225 0  0.975 0.225 0  1 0.225 0  0 0.25 0  0.025 0.25 0  0.05 0.25 0  0.075 0.25 0  0.1 0.25 0  0.125 0.25 0  0.15 0.25 0  0.175 0.25 0  0.2 0.25 0  0.225 0.25 0  0.25 0.25 0  0.275 0.25 0  0.3 0.25 0  0.325 0.25 0  0.35 0.25 0  0.375 0.25 0  0.4 0.25 0  0.425 0.25 0  0.45 0.25 0  0.475 0.25 0  0.5 0.25 0  0.525 0.25 0  0.55 0.25 0  0.575 0.25 0  0.6 0.25 0  0.625 0.25 0  0.65 0.25 0  0.675 0.25 0  0.7 0.25 0  0.725 0.25 0  0.75 0.25 0  0.775 0.25 0  0.8 0.25 0  0.825 0.25 0  0.85 0.25 0  0.875 0.25 0  0.9 0.25 0  0.925 0.25 0  0.95 0.25 0  0.975 0.25 0  1 0.25 0  0 0.275 0  0.025 0.275 0  0.05 0.275 0  0.075 0.275 0  0.1 0.275 0  0.125 0.275 0  0.15 0.275 0  0.175 0.275 0  0.2 0.275 0  0.225 0.275 0  0.25 0.275 0  0.275 0.275 0  0.3 0.275 0  0.325 0.275 0  0.35 0.275 0  0.375 0.275 0  0.4 0.275 0  0.425 0.275 0  0.45 0.275 0  0.475 0.275 0  0.5 0.275 0  0.525 0.275 0  0.55 0.275 0  0.575 0.275 0  0.6 0.275 0  0.625 0.275 0  0.65 0.275 0  0.675 0.275 0  0.7 0.275 0  0.725 0.275 0  0.75 0.275 0  0.775 0.275 0  0.8 0.275 0  0.825 0.275 0  0.85 0.275 0  0.875 0.275 0  0.9 0.275 0  0.925 0.275 0  0.95 0.275 0  0.975 0.275 0  1 0.275 0  0 0.3 0  0.025 0.3 0  0.05 0.3 0  0.075 0.3 0  0.1 0.3 0  0.125 0.3 0  0.15 0.3 0  0.175 0.3 0  0.2 0.3 0  0.225 0.3 0  0.25 0.3 0  0.275 0.3 0  0.3 0.3 0  0.325 0.3 0  0.35 0.3 0  0.375 0.3 0  0.4 0.3 0  0.425 0.3 0  0.45 0.3 0  0.475 0.3 0  0.5 0.3 0  0.525 0.3 0  0.55 0.3 0  0.575 0.3 0  0.6 0.3 0  0.625 0.3 0  0.65 0.3 0  0.675 0.3 0  0.7 0.3 0  0.725 0.3 0  0.75 0.3 0  0.775 0.3 0  0.8 0.3 0  0.825 0.3 0  0.85 0.3 0  0.875 0.3 0  0.9 0.3 0  0.925 0.3 0  0.95 0.3 0  0.975 0.3 0  1 0.3 0  0 0.325 0  0.025 0.325 0  0.05 0.325 0  0.075 0.325 0  0.1 0.325 0  0.125 0.325 0  0.15 0.325 0  0.175 0.325 0  0.2 0.325 0  0.225 0.325 0  0.25 0.325 0  0.275 0.325 0  0.3 0.325 0  0.325 0.325 0  0.35 0.325 0  0.375 0.325 0  0.4 0.325 0  0.425 0.325 0  0.45 0.325 0  0.475 0.325 0  0.5 0.325 0  0.525 0.325 0  0.55 0.325 0  0.575 0.325 0  0.6 0.325 0  0.625 0.325 0  0.65 0.325 0  0.675 0.325 0  0.7 0.325 0  0.725 0.325 0  0.75 0.325 0  0.775 0.325 0  0.8 0.325 0  0.825 0.325 0  0.85 0.325 0  0.875 0.325 0  0.9 0.325 0  0.925 0.325 0  0.95 0.325 0  0.975 0.325 0  1 0.325 0  0 0.35 0  0.025 0.35 0  0.05 0.35 0  0.075 0.35 0  0.1 0.35 0  0.125 0.35 0  0.15 0.35 0  0.175 0.35 0  0.2 0.35 0  0.225 0.35 0  0.25 0.35 0  0.275 0.35 0  0.3 0.35 0  0.325 0.35 0  0.35 0.35 0  0.375 0.35 0  0.4 0.35 0  0.425 0.35 0  0.45 0.35 0  0.475 0.35 0  0.5 0.35 0  0.525 0.35 0  0.55 0.35 0  0.575 0.35 0  0.6 0.35 0  0.625 0.35 0  0.65 0.35 0  0.675 0.35 0  0.7 0.35 0  0.725 0.35 0  0.75 0.35 0  0.775 0.35 0  0.8 0.35 0  0.825 0.35 0  0.85 0.35 0  0.875 0.35 0  0.9 0.35 0  0.925 0.35 0  0.95 0.35 0  0.975 0.35 0  1 0.35 0  0 0.375 0  0.025 0.375 0  0.05 0.375 0  0.075 0.375 0  0.1 0.375 0  0.125 0.375 0  0.15 0.375 0  0.175 0.375 0  0.2 0.375 0  0.225 0.375 0  0.25 0.375 0  0.275 0.375 0  0.3 0.375 0  0.325 0.375 0  0.35 0.375 0  0.375 0.375 0  0.4 0.375 0  0.425 0.375 0  0.45 0.375 0  0.475 0.375 0  0.5 0.375 0  0.525 0.375 0  0.55 0.375 0  0.575 0.375 0  0.6 0.375 0  0.625 0.375 0  0.65 0.375 0  0.675 0.375 0  0.7 0.375 0  0.725 0.375 0  0.75 0.375 0  0.775 0.375 0  0.8 0.375 0  0.825 0.375 0  0.85 0.375 0  0.875 0.375 0  0.9 0.375 0  0.925 0.375 0  0.95 0.375 0  0.975 0.375 0  1 0.375 0  0 0.4 0  0.025 0.4 0  0.05 0.4 0  0.075 0.4 0  0.1 0.4 0  0.125 0.4 0  0.15 0.4 0  0.175 0.4 0  0.2 0.4 0  0.225 0.4 0  0.25 0.4 0  0.275 0.4 0  0.3 0.4 0  0.325 0.4 0  0.35 0.4 0  0.375 0.4 0  0.4 0.4 0  0.425 0.4 0  0.45 0.4 0  0.475 0.4 0  0.5 0.4 0  0.525 0.4 0  0.55 0.4 0  0.575 0.4 0  0.6 0.4 0  0.625 0.4 0  0.65 0.4 0  0.675 0.4 0  0.7 0.4 0  0.725 0.4 0  0.75 0.4 0  0.775 0.4 0  0.8 0.4 0  0.825 0.4 0  0.85 0.4 0  0.875 0.4 0  0.9 0.4 0  0.925 0.4 0  0.95 0.4 0  0.975 0.4 0  1 0.4 0  0 0.425 0  0.025 0.425 0  0.05 0.425 0  0.075 0.425 0  0.1 0.425 0  0.125 0.425 0  0.15 0.425 0  0.175 0.425 0  0.2 0.425 0  0.225 0.425 0  0.25 0.425 0  0.275 0.425 0  0.3 0.425 0  0.325 0.425 0  0.35 0.425 0  0.375 0.425 0  0.4 0.425 0  0.425 0.425 0  0.45 0.425 0  0.475 0.425 0  0.5 0.425 0  0.525 0.425 0  0.55 0.425 0  0.575 0.425 0  0.6 0.425 0  0.625 0.425 0  0.65 0.425 0  0.675 0.425 0  0.7 0.425 0  0.725 0.425 0  0.75 0.425 0  0.775 0.425 0  0.8 0.425 0  0.825 0.425 0  0.85 0.425 0  0.875 0.425 0  0.9 0.425 0  0.925 0.425 0  0.95 0.425 0  0.975 0.425 0  1 0.425 0  0 0.45 0  0.02
[...]
<PointData  Scalars="ControlVisualisation"> 
<DataArray  type="Float64"  Name="ControlVisualisation"  format="ascii">1.7640934898528909e-01  1.2887619174642556e-01  1.2888036798181557e-01  1.2888910800430536e-01  1.2890226550525477e-01  1.2891941427145734e-01  1.2894004532729142e-01  1.2896357504936334e-01  1.2898934734986123e-01  1.2901664750083575e-01  1.2904472368105743e-01  1.2907280966625923e-01  1.2910014722624863e-01  1.2912600718511189e-01  1.2914970847169444e-01  1.2917063475008597e-01  1.2918824841927873e-01  1.2920210195181803e-01  1.2921184667555108e-01  1.2921723918088138e-01  1.2921814555774030e-01  1.2921454363719312e-01  1.2920652334515750e-01  1.2919428518616105e-01  1.2917813678196488e-01  1.2915848731170318e-01  1.2913583965510356e-01  1.2911078004198645e-01  1.2908396506849193e-01  1.2905610605507117e-01  1.2902795089047334e-01  1.2900026369352244e-01  1.2897380290514035e-01  1.2894929854726794e-01  1.2892743041644047e-01  1.2890880922683157e-01  1.2889397136083405e-01  1.2888336978566720e-01  1.2887732412961742e-01  1.2887534664858069e-01  2.7004056971861023e-01  1.2887619398097425e-01  7.3151855658985743e-02  7.3161999590283730e-02  7.3181319345512377e-02  7.3210279595159647e-02  7.3248117072745186e-02  7.3293687238173227e-02  7.3345662694887306e-02  7.3402561681255876e-02  7.3462790479505435e-02  7.3524692571482850e-02  7.3586598693850036e-02  7.3646874431347667e-02  7.3703962904128908e-02  7.3756421533543462e-02  7.3802952544027495e-02  7.3842427349536555e-02  7.3873905318957545e-02  7.3896647615094180e-02  7.3910126871691212e-02  7.3914033426942666e-02  7.3908278691130383e-02  7.3892996014408630e-02  7.3868539167496458e-02  7.3835478281833983e-02  7.3794592847048660e-02  7.3746861161998356e-02  7.3693445508990471e-02  7.3635672293125121e-02  7.3575006480601071e-02  7.3513019900052573e-02  7.3451353336451072e-02  7.3391672931404681e-02  7.3335621966181874e-02  7.3284770954304732e-02  7.3240568575392587e-02  7.3204300409471637e-02  7.3177023265012950e-02  7.3159349511759439e-02  7.3150229272260711e-02  1.2887534644456078e-01  1.2888042561888696e-01  7.3162139054051695e-02  7.3182932000029288e-02  7.3215086391675538e-02  7.3262102851737634e-02  7.3323447254062563e-02  7.3397371061023023e-02  7.3481657939003728e-02  7.3573817465010211e-02  7.3671199108053115e-02  7.3771082479846095e-02  7.3870762948032229e-02  7.3967628018831333e-02  7.4059221766464498e-02  7.4143296563471503e-02  7.4217852637301310e-02  7.4281166894242093e-02  7.4331812893296448e-02  7.4368673950842276e-02  7.4390951210130091e-02  7.4398168203926376e-02  7.4390173040570051e-02  7.4367138901756377e-02  7.4329563079660224e-02  7.4278264316987863e-02  7.4214377754472080e-02  7.4139346349904336e-02  7.4054907239584064e-02  7.3963071213406284e-02  7.3866093336540317e-02  7.3766432867128764e-02  7.3666701064251036e-02  7.3569596422076722e-02  7.3477827983231880e-02  7.3394029706123465e-02  7.3320664052314827e-02  7.3259908304494664e-02  7.3213385044846313e-02  7.3181356804847247e-02  7.3159433657200748e-02  1.2887733302612736e-01  1.2888950045054184e-01  7.3182227540120229e-02  7.3216284072249296e-02  7.3254602506850258e-02  7.3307096610604416e-02  7.3374796305755011e-02  7.3456228159237594e-02  7.3549039312813189e-02  7.3650488710537032e-02  7.3757641879415262e-02  7.3867490429386035e-02  7.3977052278164673e-02  7.4083456774853979e-02  7.4184015113050367e-02  7.4276275617053300e-02  7.4358064797574661e-02  7.4427516072472805e-02  7.4483088553370588e-02  7.4523578401274562e-02  7.4548125050330621e-02  7.4556214199968343e-02  7.4547678970208975e-02  7.4522700064934153e-02  7.4481805223448105e-02  7.4425867674658808e-02  7.4356102745644775e-02  7.4274061228060462e-02  7.4181617605249286e-02  7.4080950850417049e-02  7.3974515309732924e-02  7.3864999297570788e-02  7.3755269533370443e-02  7.3648300559202601e-02  7.3547089117686718e-02  7.3454553869617467e-02  7.3373407586792727e-02  7.3305950758432284e-02  7.3253487273436696e-02  7.3214502888350241e-02  7.3177688366527216e-02  1.2888350069778282e-01  1.2890374754768447e-01  7.3213602982358378e-02  7.3267162932349431e-02  7.3311313001102912e-02  7.3366256568981686e-02  7.3435753537859819e-02  7.3519025551008713e-02  7.3613841435176158e-02  7.3717436681327547e-02  7.3826813754730936e-02  7.3938894925333551e-02  7.4050632562916871e-02  7.4159098475593113e-02  7.4261556269365828e-02  7.4355517143799607e-02  7.4438780446307029e-02  7.4509461129341148e-02  7.4566006786524627e-02  7.4607207061103339e-02  7.4632198006626960e-02  7.4640463547758398e-02  7.4631835630176113e-02  7.4606494029281017e-02  7.4564966145689970e-02  7.4508126466887981e-02  7.4437194732120557e-02  7.4353731215066041e-02  7.4259626977958446e-02  7.4157086517731757e-02  7.4048600012256161e-02  7.3936902498669327e-02  7.3824917827134948e-02  7.3715686149878168e-02  7.3612273855725607e-02  7.3517662391642452e-02  7.3434586513231051e-02  7.3365207198373042e-02  7.3310074242753875e-02  7.3264716074323069e-02  7.3206950064973381e-02  1.2889466152028994e-01  1.2892346762356727e-01  7.3257066838704116e-02  7.3337584822102633e-02  7.3389010770022203e-02  7.3445954874430619e-02  7.3516098485552767e-02  7.3599675802432929e-02  7.3694688576131845e-02  7.3798415519175875e-02  7.3907858274764551e-02  7.4019933075772565e-02  7.4131590589135793e-02  7.4239907966123037e-02  7.4342161120005051e-02  7.4435879215568754e-02  7.4518883282599951e-02  7.4589311455668897e-02  7.4645633792897820e-02  7.4686659664674609e-02  7.4711540428246861e-02  7.4719769624628077e-02  7.4711182342495464e-02  7.4685954750483063e-02  7.4644604140546439e-02  7.4587989159709961e-02  7.4517309245217614e-02  7.4434101626944152e-02  7.4340233659172944e-02  7.4237887755113946e-02  7.4129535916309289e-02  7.4017900895756120e-02  7.3905901446003439e-02  7.3796579806367862e-02  7.3693008856123732e-02  7.3598170216761252e-02  7.3514751963847075e-02  7.3444662361499546e-02  7.3387362154551786e-02  7.3334221793032173e-02  7.3248059514718827e-02  1.2891107047415282e-01  1.2894912329103700e-01  7.3313560344786838e-02  7.3429218642948255e-02  7.3490013653181599e-02  7.3549259468462316e-02  7.3619808416509239e-02  7.3703246937192296e-02  7.3797896597013191e-02  7.3901106785030271e-02  7.4009897884226641e-02  7.4121200824864411e-02  7.4231987871535066e-02  7.4339366454961392e-02  7.4440649995322128e-02  7.4533409730985947e-02  7.4615510221047995e-02  7.4685131540639521e-02  7.4740781437960424e-02  7.4781300594356725e-02  7.4805863733500566e-02  7.4813978771819542e-02  7.4805485587450704e-02  7.4780555355991374e-02  7.4739690778269571e-02  7.4683726904293327e-02  7.4613831628648236e-02  7.4531504292855363e-02  7.4438570197610771e-02  7.4337168259355768e-02  7.4229728634085002e-02  7.4118937011811187e-02  7.4007682501776140e-02  7.3898986421478824e-02  7.3795907464929936e-02  7.3701407805833896e-02  7.3618099799909992e-02  7.3547550894734998e-02  7.3487785371427958e-02  7.3424749654487212e-02  7.3301933394734925e-02  1.2893309577969464e-01  1.2898134024570049e-01  7.3384336273987577e-02  7.3544060712444737e-02  7.3616657869565894e-02  7.3678753013297307e-02  7.3749704136241434e-02  7.3832820017819170e-02  7.3926832995105024e-02  7.4029185933067274e-02  7.4136928490982329e-02  7.4247017547681038e-02  7.4356461471539945e-02  7.4462415088444991e-02  7.4562247762621242e-02  7.4653591149726001e-02  7.4734370361168659e-02  7.4802822232259272e-02  7.4857504313537770e-02  7.4897297831550191e-02  7.4921407288688055e-02  7.4929358725428760e-02  7.4920998041825088e-02  7.4896490196648999e-02  7.4856319564322302e-02  7.4801291206308074e-02  7.4732532269416507e-02  7.4651492131862243e-02  7.4559939270220491e-02  7.4459952151005537e-02  7.4353900848752555e-02  7.4244415712696993e-02  7.4134339309075037e-02  7.4026657802307674e-02  7.3924404618972636e-02  7.3830512078534902e-02  7.3747493265572214e-02  7.3676481001148861e-02  7.3613683847429084e-02  7.3538267957932918e-02  7.3369753919800426e-02  1.2896126211785744e-01  1.2902090041710818e-01  7.3470960044536543e-02  7.3684569441041806e-02  7.3771707149744792e-02  7.3837328761781923e-02  7.3908747023365917e-02  7.3991399249674197e-02  7.4084530651014460e-02  7.4185703672749265e-02  7.4292008575070206e-02  7.4400440435542448e-02  7.4508059872155405e-02  7.4612088434967708e-02  7.4709972262210517e-02  7.4799423955420996e-02  7.4878447936276529e-02  7.4945353817767901e-02  7.4998761772445369e-02  7.5037603145324414e-02  7.5061118745347197e-02  7.5068856502739020e-02  7.5060669570769803e-02  7.5036715471315601e-02  7.4997456487864336e-02  7.4943661144341464e-02  7.4876406209855417e-02  7.4797078178542087e-02  7.4707372542725164e-02  7.4609288400599716e-02  7.4505115084195064e-02  7.4397406729266674e-02  7.4288940122781949e-02  7.4182650393514057e-02  7.4081533789352477e-02  7.3988481717329024e-02  7.3905881733876078e-02  7.3834327544714931e-02  7.3767794389977936e-02  7.3677188519207043e-02  7.3453004724349430e-02  1.2899625172312801e-01  1.2906874375793531e-01  7.3575325232173652e-02  7.3853732778793299e-02  7.3958489942918773e-02  7.4028420546568621e-02  7.4100390474577504e-02  7.4182413962674248e-02  7.4274362086172357e-02  7.4373947524887185e-02  7.4478317083280704e-02  7.4584522306856110e-02  7.4689699414540123e-02  7.4791163673745512e-02  7.4886466031092822e-02  7.4973426596892559e-02  7.5050152351798238e-02  7.5115044627616923e-02  7.5166800637923775e-02  7.5204412081596311e-02  7.5227162737085920e-02  7.5234626143036734e-02  7.5226663931504525e-02  7.5203425074942543e-02  7.5165346133023142e-02  7.5113152456267054e-02  7.5047860132794547e-02  7.4970778159815774e-02  7.4883509776175264e-02  7.4787951031214703e-02  7.4686283496458797e-02  7.4580956707216761e-02  7.4474654559441175e-02  7.4370238007277420e-02  7.4270648389123409e-02  7.4178720887024208e-02  7.4096687061341954e-02  7.4024486182300508e-02  7.3953397724420694e-02  7.3844431041291597e-02  7.3553483089104102e-02  1.2903889917507952e-01  1.2912597395659819e-01  7.3699678419875042e-02  7.4055133216995792e-02  7.4180990700573893e-02  7.4256122039133815e-02  7.4328727821829116e-02  7.4409895050572702e-02  7.4500243882633141e-02  7.4597673333679948e-02  7.4699410701035890e-02  7.4802593537002096e-02  7.4904470353413313e-02  7.5002490720305015e-02  7.5094350569802709e-02  7.5178013632241483e-02  7.5251719200190303e-02  7.5313982912203953e-02  7.5363594850749657e-02  7.5399617287630463e-02  7.5421382995237207e-02  7.5428494226760151e-02  7.5420822143022551e-02  7.5398506451306774e-02  7.5361955169209321e-02  7.5311844631604841e-02  7.5249120028368560e-02  7.5174996777090539e-02  7.5090962716022863e-02  7.4998780250776623e-02  7.4900486077107559e-02  7.4798384008668548e-02  7.4695023862219392e-02  7.4593155712199835e-02  7.4495637136963527e-02  7.4405224349885071e-02  7.4323957820325415e-02  7.4250997339782951e-02  7.4174413600143138e-02  7.4043488393676943e-02  7.3673320110183599e-02  1.2909019603445621e-01  1.2919385867838493e-01  7.3846648121425926e-02  7.4293043979179893e-02  7.4443971839720763e-02  7.4525318663521425e-02  7.4598627032219311e-02  7.4678604494811798e-02  7.4766751513563906e-02  7.4861196343724679e-02  7.4959284461890735e-02  7.5058288940139495e-02  7.5155630317246522e-02  7.5248955546391286e-02  7.5336164735272049e-02  7.5415415177586556e-02  7.5485116518689166e-02  7.5543924747871541e-02  7.5590738619762080e-02  7.5624699249016353e-02  7.5645191980386883e-02  7.5651849046641600e-02  7.5644551632546422e-02  7.5623430422603222e-02  7.5588864304004494e-02  7.5541477539985316e-02  7.5482136381801554e-02  7.5411946633291566e-02  7.5332253855899561e-02  7.5244647301564105e-02  7.5150966888919354e-02  7.5053309439242752e-02  7.4954025948757955e-02  7.4855695209427947e-02  7.4761042235634567e-02  7.4672708594694215e-02  7.4592503155287981e-02  7.4518674330556450e-02  7.4435515987215387e-02  7.4278513245466304e-02  7.3815003015091168e-02  1.2915129339450745e-01  1.2927381702417123e-01  7.4019270115486466e-02  7.4572567742808793e-02  7.4753163950477347e-02  7.4841894765954167e-02  7.4915937576956762e-02  7.4994224711326093e-02  7.5079272082738083e-02  7.5169490256762755e-02  7.5262405540692620e-02  7.5355511837207720e-02  7.5446501098708749e-02  7.5533317493034338e-02  7.5614153497679942e-02  7.5687428926493674e-02  7.5751771034433063e-02  7.5806003536235747e-02  7.5849145854223768e-02  7.5880420091393466e-02  7.5899261708088542e-02  7.5905329992946968e-02  7.5898515359872215e-02  7.5878941677487988e-02  7.5846962989599961e-02  7.5803155137622910e-02  7.5748304073415137e-02  7.5683394030145068e-02  7.5609599860473858e-02  7.5528288043637565e-02  7.5441029207109767e-02  7.5349620787324378e-02  7.5256111270282228e-02  7.5162806466875551e-02  7.5072213791983894e-02  7.4986800628555617e-02  7.4908095919177312e-02  7.4833303040193380e-02  7.4742311425569433e-02  7.4554440869280397e-02  7.3981392643342914e-02  1.2922349620902399e-01  1.2936738162310527e-01  7.4220991920060972e-02  7.4899831136528039e-02  7.5115577307116266e-02  7.5213092199203579e-02  7.5287856998509858e-02  7.5363699909178933e-02  7.5444287084840925e-02  7.5528383397677937e-02  7.5613805934664741e-02  7.5698419626338109e-02  7.5780355346679984e-02  7.5858013469542365e-02  7.5930009739376886e-02  7.5995119410924530e-02  7.6052241786733657e-02  7.6100390556694958e-02  7.6138705666163903e-02  7.6166478064932111e-02  7.6183178247891226e-02  7.6188481269641936e-02  7.6182283354055497e-02  7.6164707393907016e-02  7.6136096348982732e-02  7.6096995131225781e-02  7.6048123517711994e-02  7.5990345231117334e-02  7.5924641231033319e-02  7.5852097354670675e-02  7.5773915954608417e-02  7.5691456192297141e-02  7.5606296817673474e-02  7.5520297113699925e-02  7.5435595263577571e-02  7.5354378759952503e-02  7.5277833003824846e-02  7.5201986851934174e-02  7.5101628948517934e-02  7.4877157265560490e-02  7.4175719299668999e-02  1.2930823968059757e-01  1.2947611310408477e-01  7.4455620068395539e-02  7.5282247421030069e-02  7.5540020715890041e-02  7.5648150384559326e-02  7.5723607737429782e-02  7.5795885000827734e-02  7.5869935908357111e-02  7.5944993965370106e-02  7.6019369115802510e-02  7.6091565216308513e-02  7.6160434862644816e-02  7.6225085635274969e-02  7.6284745925728509e-02  7.6338663996475084e-02  7.6386062958151243e-02  7.6426148315921136e-02  7.6458151855721607e-02  7.6481392393994221e-02  7.6495336711828815e-02  7.6499649193016300e-02  7.6494223594201230e-02  7.6479193753606511e-02  7.6454921988893143e-02  7.6421965449341225e-02  7.6381023058233882e-02  7.6332869844059320e-02  7.6278291344472601e-02  7.6218036851740112e-02  7.6152813342204889e-02  7.6083337971696946e-02  7.6010452296887812e-02  7.5935272189523742e-02  7.5859292149451668e-02  7.5784222029135997e-02  7.5710802859429466e-02  7.5633763327825718e-02  7.5522000941397882e-02  7.5253718647052575e-02  7.4401522965659522e-02  1.2940703177574167e-01  1.2960142687196380e-01  7.4727136334114791e-02  7.5728854144470892e-02  7.6037975905340560e-02  7.6159466557192801e-02  7.6235706392209474e-02  7.6302798237287320e-02  7.6367156709978595e-02  7.6428701717594666e-02  7.6486619523856852e-02  7.6540530750536379e-02  7.6590479941386777e-02  7.6636665520251196e-02  7.6679185807403294e-02  7.6717890290159532e-02  7.6752347920305664e-02  7.6781906588791402e-02  7.6805804374353359e-02  7.6823295609668635e-02  7.6833765173517282e-02  7.6836815930623650e-02  7.6832322802844633e-02  7.6820451306433113e-02  7.6801639465675059e-02  7.6776542077345397e-02  7.6745938054206417e-02  7.6710607252977986e-02  7.6671193638299037e-02  7.6628085128655113e-02  7.6581352056828519e-02  7.6530788503739802e-02  7.6476084087151175e-02  7.6417110338382388e-02  7.6354221196717809e-02  7.6288265909737155e-02  7.6219341407379876e-02  7.6140724169520932e-02  7.6014470705388248e-02  7.5692619072725634e-02  7.4662469511683469e-02  1.2952133344463226e-01  1.2974426053250937e-01  7.5039245170499008e-02  7.6250725333041336e-02  7.6625084647808789e-02  7.6764710929461660e-02  7.6842350948462451e-02  7.6902042826899025e-02  7.6951998412664369e-02  7.6993297495625806e-02  7.7026738729809793e-02  7.7053894230967451e-02  7.7076748761143399e-02  7.7097135462431951e-02  7.7116325678933048e-02  7.7134858987376986e-02  7.7152584966428309e-02  7.7168841994464971e-02  7.7182693526299112e-02  7.7193160451926687e-02  7.7199413465847466e-02  7.7200911048873458e-02  7.7197481633925244e-02  7.7189352467040395e-02  7.7177125294027524e-02  7.7161694638420791e-02  7.7144102973879039e-02  7.7125333027386819e-02  7.7106053638977295e-02  7.7086361121966832e-02  7.7065587377300959e-02  7.7042265731132778e-02  7.7014335978742715e-02  7.6979616705322301e-02  7.6936439326821981e-02  7.6884036317586835e-02  7.6821400698855347e-02  7.6740059872301924e-02  7.6593964389600158e-02  7.6204091707594485e-02  7.4961914290966936e-02  1.2965232564830548e-01  1.2990445432787256e-01  7.5394408038068780e-02  7.6861455843966531e-02  7.7323687846239247e-02  7.7490658702548440e-02  7.7571861117323254e-02  7.7621428875853174e-02  7.7650246999124664e-02  7.7661639169880656e-02  7.7659404241233312e-02  7.7648442620286168e-02  7.7633757551676660e-02  7.7619467305301296e-02  7.7608256685799945e-02  7.7601289855794633e-02  7.7598454094207070e-02  7.7598769660834496e-02  7.7600828151658363e-02  7.7603173024293745e-02  7.7604585704196066e-02  7.7604275386761234e-02  7.7601986660395986e-02  7.7598038936045582e-02  7.7593301091545469e-02  7.7589090801040123e-02  7.7586978367514603e-02  7.7588477175025594e-02  7.7594623467250573e-02  7.7605489924147897e-02  7.7619736665889061e-02  7.7634358221032554e-02  7.7644813941385615e-02  7.7645682891230083e-02  7.7631785030225997e-02  7.7599275577680343e-02  7.7544955301764001e-02  7.7457783557050852e-02  7.7281645013166367e-02  7.6800418713890539e-02  7.5301984326782909e-02  1.2980047353241572e-01  1.3007961477212748e-01  7.5791982244680062e-02  7.7577798271002599e-02  7.8167126981914886e-02  7.8379898328676548e-02  7.8470560423584607e-02  7.8507336345027087e-02  7.8506165085659135e-02  7.8475046374996194e-02  7.8423231429327167e-02  7.8360943561223487e-02  7.8297438695765137e-02  7.8239594432382292e-02  7.8191423741884397e-02  7.8154327639693127e-02  7.8127756787489649e-02  7.8109988573433681e-02  7.8098826761816731e-02  7.8092134388163828e-02  7.8088188555787377e-02  7.8085889766452851e-02  7.8084871172942341e-02  7.8085542393348764e-02  7.8089077499775894e-02  7.8097326954204099e-02  7.8112608478115311e-02  7.8137322828427946e-02  7.8173358162462278e-02  7.8221301864178028e-02  7.8279571403853832e-02  7.8343693937377765e-02  7.8406090904546866e-02  7.8456707558057504e-02  7.8484660212105095e-02  7.8480405514431764e-02  7.8435954817094616e-02  7.8335301648677969e-02  7.8108861959866716e-02  7.7496257251978756e-02  7.5681837032169616e-02  1.2996473901153968e-01  1.3026307584264846e-01  7.6225013672885783e-02  7.8420628790397504e-02  7.9206502009331520e-02  7.9501268813177317e-02  7.9614725815775403e-02  7.9637157574107997e-02  7.9595586465896873e-02  7.9507712919287141e-02  7.9391997879779075e-02  7.9266133741183825e-02  7.9144285028884820e-02  7.9035758183366805e-02  7.8945161193527291e-02  7.8873433697663614e-02  7.8819148472523165e-02  7.8779698743465229e-02  7.8752194643875825e-02  7.8734040155251137e-02  7.8723246733482619e-02  7.8718574152163892e-02  7.8719586532786184e-02  7.8726683862105434e-02  7.8741126637035433e-02  7.8765023034901224e-02  7.8801203973584449e-02  7.8852882892485432e-02  7.8922997718195317e-02  7.9013179687315055e-02  7.9122397635619429e-02  7.9245521721372489e-02  7.9372270549193769e-02  7.9487148226263640e-02  7.9571166561644521e-02  7.9604851383277497e-02  7.9569885210985417e-02  7.9439403461878319e-02  7.9123674270341879e-02  7.8309391127087097e-02  7.6094548096096642e-02  1.3014111421739141e-01  1.3044056539785218e-01  7.6675483677276071e-02  7.9417645928280003e-02  8.0520556748906152e-02  8.0960152477150091e-02  8.1116976002121893e-02  8.1120645439806349e-02  8.1022780355431395e-02  8.085954159