<?xml version="1.0"?>
<VTKFile type="UnstructuredGrid"  version="0.1"  >
<UnstructuredGrid>
<Piece  NumberOfPoints="1681" NumberOfCells="3200">
<Points>
<DataArray  type="Float64"  NumberOfComponents="3"  format="ascii">0 0 0  0.025 0 0  0.05 0 0  0.075 0 0  0.1 0 0  0.125 0 0  0.15 0 0  0.175 0 0  0.2 0 0  0.225 0 0  0.25 0 0  0.275 0 0  0.3 0 0  0.325 0 0  0.35 0 0  0.375 0 0  0.4 0 0  0.425 0 0  0.45 0 0  0.475 0 0  0.5 0 0  0.525 0 0  0.55 0 0  0.575 0 0  0.6 0 0  0.625 0 0  0.65 0 0  0.675 0 0  0.7 0 0  0.725 0 0  0.75 0 0  0.775 0 0  0.8 0 0  0.825 0 0  0.85 0 0  0.875 0 0  0.9 0 0  0.925 0 0  0.95 0 0  0.975 0 0  1 0 0  0 0.025 0  0.025 0.025 0  0.05 0.025 0  0.075 0.025 0  0.1 0.025 0  0.125 0.025 0  0.15 0.025 0  0.175 0.025 0  0.2 0.025 0  0.225 0.025 0  0.25 0.025 0  0.275 0.025 0  0.3 0.025 0  0.325 0.025 0  0.35 0.025 0  0.375 0.025 0  0.4 0.025 0  0.425 0.025 0  0.45 0.025 0  0.475 0.025 0  0.5 0.025 0  0.525 0.025 0  0.55 0.025 0  0.575 0.025 0  0.6 0.025 0  0.625 0.025 0  0.65 0.025 0  0.675 0.025 0  0.7 0.025 0  0.725 0.025 0  0.75 0.025 0  0.775 0.025 0  0.8 0.025 0  0.825 0.025 0  0.85 0.025 0  0.875 0.025 0  0.9 0.025 0  0.925 0.025 0  0.95 0.025 0  0.975 0.025 0  1 0.025 0  0 0.05 0  0.025 0.05 0  0.05 0.05 0  0.075 0.05 0  0.1 0.05 0  0.125 0.05 0  0.15 0.05 0  0.175 0.05 0  0.2 0.05 0  0.225 0.05 0  0.25 0.05 0  0.275 0.05 0  0.3 0.05 0  0.325 0.05 0  0.35 0.05 0  0.375 0.05 0  0.4 0.05 0  0.425 0.05 0  0.45 0.05 0  0.475 0.05 0  0.5 0.05 0  0.525 0.05 0  0.55 0.05 0  0.575 0.05 0  0.6 0.05 0  0.625 0.05 0  0.65 0.05 0  0.675 0.05 0  0.7 0.05 0  0.725 0.05 0  0.75 0.05 0  0.775 0.05 0  0.8 0.05 0  0.825 0.05 0  0.85 0.05 0  0.875 0.05 0  0.9 0.05 0  0.925 0.05 0  0.95 0.05 0  0.975 0.05 0  1 0.05 0  0 0.075 0  0.025 0.075 0  0.05 0.075 0  0.075 0.075 0  0.1 0.075 0  0.125 0.075 0  0.15 0.075 0  0.175 0.075 0  0.2 0.075 0  0.225 0.075 0  0.25 0.075 0  0.275 0.075 0  0.3 0.075 0  0.325 0.075 0  0.35 0.075 0  0.375 0.075 0  0.4 0.075 0  0.425 0.075 0  0.45 0.075 0  0.475 0.075 0  0.5 0.075 0  0.525 0.075 0  0.55 0.075 0  0.575 0.075 0  0.6 0.075 0  0.625 0.075 0  0.65 0.075 0  0.675 0.075 0  0.7 0.075 0  0.725 0.075 0  0.75 0.075 0  0.775 0.075 0  0.8 0.075 0  0.825 0.075 0  0.85 0.075 0  0.875 0.075 0  0.9 0.075 0  0.925 0.075 0  0.95 0.075 0  0.975 0.075 0  1 0.075 0  0 0.1 0  0.025 0.1 0  0.05 0.1 0  0.075 0.1 0  0.1 0.1 0  0.125 0.1 0  0.15 0.1 0  0.175 0.1 0  0.2 0.1 0  0.225 0.1 0  0.25 0.1 0  0.275 0.1 0  0.3 0.1 0  0.325 0.1 0  0.35 0.1 0  0.375 0.1 0  0.4 0.1 0  0.425 0.1 0  0.45 0.1 0  0.475 0.1 0  0.5 0.1 0  0.525 0.1 0  0.55 0.1 0  0.575 0.1 0  0.6 0.1 0  0.625 0.1 0  0.65 0.1 0  0.675 0.1 0  0.7 0.1 0  0.725 0.1 0  0.75 0.1 0  0.775 0.1 0  0.8 0.1 0  0.825 0.1 0  0.85 0.1 0  0.875 0.1 0  0.9 0.1 0  0.925 0.1 0  0.95 0.1 0  0.975 0.1 0  1 0.1 0  0 0.125 0  0.025 0.125 0  0.05 0.125 0  0.075 0.125 0  0.1 0.125 0  0.125 0.125 0  0.15 0.125 0  0.175 0.125 0  0.2 0.125 0  0.225 0.125 0  0.25 0.125 0  0.275 0.125 0  0.3 0.125 0  0.325 0.125 0  0.35 0.125 0  0.375 0.125 0  0.4 0.125 0  0.425 0.125 0  0.45 0.125 0  0.475 0.125 0  0.5 0.125 0  0.525 0.125 0  0.55 0.125 0  0.575 0.125 0  0.6 0.125 0  0.625 0.125 0  0.65 0.125 0  0.675 0.125 0  0.7 0.125 0  0.725 0.125 0  0.75 0.125 0  0.775 0.125 0  0.8 0.125 0  0.825 0.125 0  0.85 0.125 0  0.875 0.125 0  0.9 0.125 0  0.925 0.125 0  0.95 0.125 0  0.975 0.125 0  1 0.125 0  0 0.15 0  0.025 0.15 0  0.05 0.15 0  0.075 0.15 0  0.1 0.15 0  0.125 0.15 0  0.15 0.15 0  0.175 0.15 0  0.2 0.15 0  0.225 0.15 0  0.25 0.15 0  0.275 0.15 0  0.3 0.15 0  0.325 0.15 0  0.35 0.15 0  0.375 0.15 0  0.4 0.15 0  0.425 0.15 0  0.45 0.15 0  0.475 0.15 0  0.5 0.15 0  0.525 0.15 0  0.55 0.15 0  0.575 0.15 0  0.6 0.15 0  0.625 0.15 0  0.65 0.15 0  0.675 0.15 0  0.7 0.15 0  0.725 0.15 0  0.75 0.15 0  0.775 0.15 0  0.8 0.15 0  0.825 0.15 0  0.85 0.15 0  0.875 0.15 0  0.9 0.15 0  0.925 0.15 0  0.95 0.15 0  0.975 0.15 0  1 0.15 0  0 0.175 0  0.025 0.175 0  0.05 0.175 0  0.075 0.175 0  0.1 0.175 0  0.125 0.175 0  0.15 0.175 0  0.175 0.175 0  0.2 0.175 0  0.225 0.175 0  0.25 0.175 0  0.275 0.175 0  0.3 0.175 0  0.325 0.175 0  0.35 0.175 0  0.375 0.175 0  0.4 0.175 0  0.425 0.175 0  0.45 0.175 0  0.475 0.175 0  0.5 0.175 0  0.525 0.175 0  0.55 0.175 0  0.575 0.175 0  0.6 0.175 0  0.625 0.175 0  0.65 0.175 0  0.675 0.175 0  0.7 0.175 0  0.725 0.175 0  0.75 0.175 0  0.775 0.175 0  0.8 0.175 0  0.825 0.175 0  0.85 0.175 0  0.875 0.175 0  0.9 0.175 0  0.925 0.175 0  0.95 0.175 0  0.975 0.175 0  1 0.175 0  0 0.2 0  0.025 0.2 0  0.05 0.2 0  0.075 0.2 0  0.1 0.2 0  0.125 0.2 0  0.15 0.2 0  0.175 0.2 0  0.2 0.2 0  0.225 0.2 0  0.25 0.2 0  0.275 0.2 0  0.3 0.2 0  0.325 0.2 0  0.35 0.2 0  0.375 0.2 0  0.4 0.2 0  0.425 0.2 0  0.45 0.2 0  0.475 0.2 0  0.5 0.2 0  0.525 0.2 0  0.55 0.2 0  0.575 0.2 0  0.6 0.2 0  0.625 0.2 0  0.65 0.2 0  0.675 0.2 0  0.7 0.2 0  0.725 0.2 0  0.75 0.2 0  0.775 0.2 0  0.8 0.2 0  0.825 0.2 0  0.85 0.2 0  0.875 0.2 0  0.9 0.2 0  0.925 0.2 0  0.95 0.2 0  0.975 0.2 0  1 0.2 0  0 0.225 0  0.025 0.225 0  0.05 0.225 0  0.075 0.225 0  0.1 0.225 0  0.125 0.225 0  0.15 0.225 0  0.175 0.225 0  0.2 0.225 0  0.225 0.225 0  0.25 0.225 0  0.275 0.225 0  0.3 0.225 0  0.325 0.225 0  0.35 0.225 0  0.375 0.225 0  0.4 0.225 0  0.425 0.225 0  0.45 0.225 0  0.475 0.225 0  0.5 0.225 0  0.525 0.225 0  0.55 0.225 0  0.575 0.225 0  0.6 0.225 0  0.625 0.225 0  0.65 0.225 0  0.675 0.225 0  0.7 0.225 0  0.725 0.225 0  0.75 0.225 0  0.775 0.225 0  0.8 0.225 0  0.825 0.225 0  0.85 0.225 0  0.875 0.225 0  0.9 0.225 0  0.925 0.225 0  0.95 0.225 0  0.975 0.225 0  1 0.225 0  0 0.25 0  0.025 0.25 0  0.05 0.25 0  0.075 0.25 0  0.1 0.25 0  0.125 0.25 0  0.15 0.25 0  0.175 0.25 0  0.2 0.25 0  0.225 0.25 0  0.25 0.25 0  0.275 0.25 0  0.3 0.25 0  0.325 0.25 0  0.35 0.25 0  0.375 0.25 0  0.4 0.25 0  0.425 0.25 0  0.45 0.25 0  0.475 0.25 0  0.5 0.25 0  0.525 0.25 0  0.55 0.25 0  0.575 0.25 0  0.6 0.25 0  0.625 0.25 0  0.65 0.25 0  0.675 0.25 0  0.7 0.25 0  0.725 0.25 0  0.75 0.25 0  0.775 0.25 0  0.8 0.25 0  0.825 0.25 0  0.85 0.25 0  0.875 0.25 0  0.9 0.25 0  0.925 0.25 0  0.95 0.25 0  0.975 0.25 0  1 0.25 0  0 0.275 0  0.025 0.275 0  0.05 0.275 0  0.075 0.275 0  0.1 0.275 0  0.125 0.275 0  0.15 0.275 0  0.175 0.275 0  0.2 0.275 0  0.225 0.275 0  0.25 0.275 0  0.275 0.275 0  0.3 0.275 0  0.325 0.275 0  0.35 0.275 0  0.375 0.275 0  0.4 0.275 0  0.425 0.275 0  0.45 0.275 0  0.475 0.275 0  0.5 0.275 0  0.525 0.275 0  0.55 0.275 0  0.575 0.275 0  0.6 0.275 0  0.625 0.275 0  0.65 0.275 0  0.675 0.275 0  0.7 0.275 0  0.725 0.275 0  0.75 0.275 0  0.775 0.275 0  0.8 0.275 0  0.825 0.275 0  0.85 0.275 0  0.875 0.275 0  0.9 0.275 0  0.925 0.275 0  0.95 0.275 0  0.975 0.275 0  1 0.275 0  0 0.3 0  0.025 0.3 0  0.05 0.3 0  0.075 0.3 0  0.1 0.3 0  0.125 0.3 0  0.15 0.3 0  0.175 0.3 0  0.2 0.3 0  0.225 0.3 0  0.25 0.3 0  0.275 0.3 0  0.3 0.3 0  0.325 0.3 0  0.35 0.3 0  0.375 0.3 0  0.4 0.3 0  0.425 0.3 0  0.45 0.3 0  0.475 0.3 0  0.5 0.3 0  0.525 0.3 0  0.55 0.3 0  0.575 0.3 0  0.6 0.3 0  0.625 0.3 0  0.65 0.3 0  0.675 0.3 0  0.7 0.3 0  0.725 0.3 0  0.75 0.3 0  0.775 0.3 0  0.8 0.3 0  0.825 0.3 0  0.85 0.3 0  0.875 0.3 0  0.9 0.3 0  0.925 0.3 0  0.95 0.3 0  0.975 0.3 0  1 0.3 0  0 0.325 0  0.025 0.325 0  0.05 0.325 0  0.075 0.325 0  0.1 0.325 0  0.125 0.325 0  0.15 0.325 0  0.175 0.325 0  0.2 0.325 0  0.225 0.325 0  0.25 0.325 0  0.275 0.325 0  0.3 0.325 0  0.325 0.325 0  0.35 0.325 0  0.375 0.325 0  0.4 0.325 0  0.425 0.325 0  0.45 0.325 0  0.475 0.325 0  0.5 0.325 0  0.525 0.325 0  0.55 0.325 0  0.575 0.325 0  0.6 0.325 0  0.625 0.325 0  0.65 0.325 0  0.675 0.325 0  0.7 0.325 0  0.725 0.325 0  0.75 0.325 0  0.775 0.325 0  0.8 0.325 0  0.825 0.325 0  0.85 0.325 0  0.875 0.325 0  0.9 0.325 0  0.925 0.325 0  0.95 0.325 0  0.975 0.325 0  1 0.325 0  0 0.35 0  0.025 0.35 0  0.05 0.35 0  0.075 0.35 0  0.1 0.35 0  0.125 0.35 0  0.15 0.35 0  0.175 0.35 0  0.2 0.35 0  0.225 0.35 0  0.25 0.35 0  0.275 0.35 0  0.3 0.35 0  0.325 0.35 0  0.35 0.35 0  0.375 0.35 0  0.4 0.35 0  0.425 0.35 0  0.45 0.35 0  0.475 0.35 0  0.5 0.35 0  0.525 0.35 0  0.55 0.35 0  0.575 0.35 0  0.6 0.35 0  0.625 0.35 0  0.65 0.35 0  0.675 0.35 0  0.7 0.35 0  0.725 0.35 0  0.75 0.35 0  0.775 0.35 0  0.8 0.35 0  0.825 0.35 0  0.85 0.35 0  0.875 0.35 0  0.9 0.35 0  0.925 0.35 0  0.95 0.35 0  0.975 0.35 0  1 0.35 0  0 0.375 0  0.025 0.375 0  0.05 0.375 0  0.075 0.375 0  0.1 0.375 0  0.125 0.375 0  0.15 0.375 0  0.175 0.375 0  0.2 0.375 0  0.225 0.375 0  0.25 0.375 0  0.275 0.375 0  0.3 0.375 0  0.325 0.375 0  0.35 0.375 0  0.375 0.375 0  0.4 0.375 0  0.425 0.375 0  0.45 0.375 0  0.475 0.375 0  0.5 0.375 0  0.525 0.375 0  0.55 0.375 0  0.575 0.375 0  0.6 0.375 0  0.625 0.375 0  0.65 0.375 0  0.675 0.375 0  0.7 0.375 0  0.725 0.375 0  0.75 0.375 0  0.775 0.375 0  0.8 0.375 0  0.825 0.375 0  0.85 0.375 0  0.875 0.375 0  0.9 0.375 0  0.925 0.375 0  0.95 0.375 0  0.975 0.375 0  1 0.375 0  0 0.4 0  0.025 0.4 0  0.05 0.4 0  0.075 0.4 0  0.1 0.4 0  0.125 0.4 0  0.15 0.4 0  0.175 0.4 0  0.2 0.4 0  0.225 0.4 0  0.25 0.4 0  0.275 0.4 0  0.3 0.4 0  0.325 0.4 0  0.35 0.4 0  0.375 0.4 0  0.4 0.4 0  0.425 0.4 0  0.45 0.4 0  0.475 0.4 0  0.5 0.4 0  0.525 0.4 0  0.55 0.4 0  0.575 0.4 0  0.6 0.4 0  0.625 0.4 0  0.65 0.4 0  0.675 0.4 0  0.7 0.4 0  0.725 0.4 0  0.75 0.4 0  0.775 0.4 0  0.8 0.4 0  0.825 0.4 0  0.85 0.4 0  0.875 0.4 0  0.9 0.4 0  0.925 0.4 0  0.95 0.4 0  0.975 0.4 0  1 0.4 0  0 0.425 0  0.025 0.425 0  0.05 0.425 0  0.075 0.425 0  0.1 0.425 0  0.125 0.425 0  0.15 0.425 0  0.175 0.425 0  0.2 0.425 0  0.225 0.425 0  0.25 0.425 0  0.275 0.425 0  0.3 0.425 0  0.325 0.425 0  0.35 0.425 0  0.375 0.425 0  0.4 0.425 0  0.425 0.425 0  0.45 0.425 0  0.475 0.425 0  0.5 0.425 0  0.525 0.425 0  0.55 0.425 0  0.575 0.425 0  0.6 0.425 0  0.625 0.425 0  0.65 0.425 0  0.675 0.425 0  0.7 0.425 0  0.725 0.425 0  0.75 0.425 0  0.775 0.425 0  0.8 0.425 0  0.825 0.425 0  0.85 0.425 0  0.875 0.425 0  0.9 0.425 0  0.925 0.425 0  0.95 0.425 0  0.975 0.425 0  1 0.425 0  0 0.45 0  0.02
[...]
<PointData  Scalars="ControlVisualisation"> 
<DataArray  type="Float64"  Name="ControlVisualisation"  format="ascii">3.2212709030040382e-01  3.0275384551396911e-01  3.0275628358595924e-01  3.0276403049273504e-01  3.0277723049359678e-01  3.0279529790878623e-01  3.0281757661289466e-01  3.0284335042192512e-01  3.0287182856703676e-01  3.0290215646619761e-01  3.0293344293023089e-01  3.0296478924048748e-01  3.0299531654743250e-01  3.0302419011625370e-01  3.0305063982694569e-01  3.0307397683162174e-01  3.0309360655052719e-01  3.0310903839239989e-01  3.0311989269832701e-01  3.0312590543495394e-01  3.0312693111283801e-01  3.0312294429431796e-01  3.0311403990211849e-01  3.0310043236174661e-01  3.0308245342956402e-01  3.0306054839207264e-01  3.0303527019110688e-01  3.0300727095292002e-01  3.0297729039401533e-01  3.0294614065566433e-01  3.0291468729424859e-01  3.0288382640221279e-01  3.0285445826260160e-01  3.0282745853858223e-01  3.0280364960408984e-01  3.0278377972393233e-01  3.0276852525535281e-01  3.0275850032160317e-01  3.0275402802572488e-01  3.0275376777766189e-01  3.4190018217368473e-01  3.0275383953447810e-01  2.4715754778089094e-01  2.4719659543049535e-01  2.4728186711228603e-01  2.4741899475445545e-01  2.4760450713380910e-01  2.4783218844073887e-01  2.4809490933575623e-01  2.4838478091439772e-01  2.4869331868376388e-01  2.4901169560606318e-01  2.4933101486313036e-01  2.4964257180087979e-01  2.4993808708568993e-01  2.5020990452016595e-01  2.5045115194146461e-01  2.5065586674468976e-01  2.5081908971441108e-01  2.5093693202648631e-01  2.5100662061385393e-01  2.5102652667679515e-01  2.5099618111046740e-01  2.5091627918881204e-01  2.5078867516134806e-01  2.5061636566485263e-01  2.5040345920503621e-01  2.5015512760113551e-01  2.4987753439127547e-01  2.4957773493864138e-01  2.4926354350161059e-01  2.4894336396166977e-01  2.4862598324729482e-01  2.4832033028607720e-01  2.4803520816111480e-01  2.4777901854474682e-01  2.4755951382380226e-01  2.4738358995293869e-01  2.4725688702845722e-01  2.4718157414312050e-01  2.4715057333885804e-01  3.0275376630716483e-01  3.0275626871981576e-01  2.4719702917124231e-01  2.4731181361999249e-01  2.4749885886300738e-01  2.4777865654773515e-01  2.4815206323761144e-01  2.4860915646444909e-01  2.4913627153515139e-01  2.4971776455821609e-01  2.5033677076616867e-01  2.5097575030499053e-01  2.5161702760305377e-01  2.5224330234079989e-01  2.5283810586039246e-01  2.5338619037884308e-01  2.5387384658903139e-01  2.5428915210192382e-01  2.5462215761608975e-01  2.5486502018435397e-01  2.5501209371825911e-01  2.5505998615306458e-01  2.5500759080930119e-01  2.5485609674607401e-01  2.5460897966057522e-01  2.5427197148470709e-01  2.5385300360272173e-01  2.5336211590872049e-01  2.5281132208774176e-01  2.5221442087806178e-01  2.5158674395075548e-01  2.5094483371413656e-01  2.5030604887095753e-01  2.4968810244607070e-01  2.4910854466020063e-01  2.4858421196799180e-01  2.4813062830857766e-01  2.4776114636210925e-01  2.4748460198141764e-01  2.4729790936343127e-01  2.4718172310528727e-01  3.0275400887859144e-01  3.0276419018146089e-01  2.4728543466758726e-01  2.4750540198188964e-01  2.4776084526203140e-01  2.4810272283545962e-01  2.4854844656976172e-01  2.4909158216665908e-01  2.4971729419160177e-01  2.5040734462990843e-01  2.5114180963168131e-01  2.5189992397771876e-01  2.5266076705672641e-01  2.5340387068321552e-01  2.5410975660871904e-01  2.5476039354268321e-01  2.5533956957461257e-01  2.5583318311642411e-01  2.5622946054346324e-01  2.5651911168793012e-01  2.5669543523619787e-01  2.5675438522566185e-01  2.5669460759492618e-01  2.5651745251304259e-01  2.5622696439143489e-01  2.5582984747240994e-01  2.5533540107133323e-01  2.5475541532429541e-01  2.5410401607224736e-01  2.5339744669656383e-01  2.5265377567408015e-01  2.5189252167362391e-01  2.5113419309902280e-01  2.5039974589579933e-01  2.4970996659393374e-01  2.4908477155385070e-01  2.4854227312987395e-01  2.4809687339339859e-01  2.4775339464755505e-01  2.4749045954925036e-01  2.4725905970768081e-01  3.0275848715818054e-01  3.0277827468994295e-01  2.4743377888734225e-01  2.4780835838815299e-01  2.4812986670316639e-01  2.4850197731259105e-01  2.4897092516985314e-01  2.4953839843751943e-01  2.5019102503738988e-01  2.5091026814363260e-01  2.5167543329015668e-01  2.5246488291335500e-01  2.5325683389594322e-01  2.5403000871527576e-01  2.5476419566543757e-01  2.5544071755478243e-01  2.5604280913317928e-01  2.5655590825876523e-01  2.5696787064297150e-01  2.5726912084432996e-01  2.5745275286533276e-01  2.5751459259416304e-01  2.5745323179651930e-01  2.5727003983191288e-01  2.5696915515354524e-01  2.5655745433855132e-01  2.5604449227199949e-01  2.5544240357034487e-01  2.5476575279444813e-01  2.5403131990365335e-01  2.5325780813177240e-01  2.5246546435318523e-01  2.5167560671246880e-01  2.5091005946132122e-01  2.5019048947946032e-01  2.4953758711760013e-01  2.4896974356159779e-01  2.4849971069034332e-01  2.4812351846736197e-01  2.4778883870822535e-01  2.4739433575354208e-01  3.0276886004006021e-01  3.0279881931355990e-01  2.4764751326725110e-01  2.4823921261185414e-01  2.4864352573515253e-01  2.4904125019692047e-01  2.4952061216498858e-01  2.5009520395627027e-01  2.5075434279584324e-01  2.5147988768390700e-01  2.5225101227714747e-01  2.5304587391292332e-01  2.5384252452206202e-01  2.5461959466451395e-01  2.5535685769377886e-01  2.5603568928919751e-01  2.5663942851254118e-01  2.5715364870363289e-01  2.5756635085876928e-01  2.5786809440305047e-01  2.5805208047779132e-01  2.5811420126867429e-01  2.5805306593774024e-01  2.5787000981459740e-01  2.5756908906208920e-01  2.5715705840594433e-01  2.5664332505854121e-01  2.5603986804203299e-01  2.5536110913184906e-01  2.5462372004771522e-01  2.5384635074946926e-01  2.5304926609137030e-01  2.5225388205825011e-01  2.5148219572881714e-01  2.5075608743844924e-01  2.5009637638303661e-01  2.4952101837641655e-01  2.4903984730762485e-01  2.4863616078705347e-01  2.4821337744062974e-01  2.4759355214119683e-01  3.0278547607523365e-01  3.0282640178901343e-01  2.4793283102424901e-01  2.4881281392625582e-01  2.4932465923505492e-01  2.4975219285241818e-01  2.5023984938428734e-01  2.5081722357284247e-01  2.5147733082070223e-01  2.5220269975714898e-01  2.5297253664806746e-01  2.5376496977944785e-01  2.5455809494036830e-01  2.5533068952452814e-01  2.5606277158969892e-01  2.5673603917746196e-01  2.5733420248671562e-01  2.5784322182942127e-01  2.5825146772490204e-01  2.5854982100642948e-01  2.5873173031138386e-01  2.5879324206193782e-01  2.5873301450294689e-01  2.5855232300865960e-01  2.5825505905307411e-01  2.5784772027063751e-01  2.5733938419386537e-01  2.5674165385536202e-01  2.5606855986156007e-01  2.5533640125588197e-01  2.5456350697396368e-01  2.5376990136554373e-01  2.5297686032311700e-01  2.5220634493840416e-01  2.5148027143165796e-01  2.5081941947033748e-01  2.5024101697965656e-01  2.4975094607498910e-01  2.4931557784641631e-01  2.4877965494082754e-01  2.4786275324635915e-01  3.0280874825153375e-01  3.0286189512104134e-01  2.4829852136570668e-01  2.4954728671380419e-01  2.5019620833492029e-01  2.5066078704486489e-01  2.5115739457447833e-01  2.5173624932168154e-01  2.5239518412757961e-01  2.5311763970620982e-01  2.5388292962923431e-01  2.5466922380684909e-01  2.5545476363653391e-01  2.5621860623855430e-01  2.5694117119562293e-01  2.5760464973607633e-01  2.5819329725990958e-01  2.5869362787956773e-01  2.5909453172265712e-01  2.5938733633278194e-01  2.5956583204245864e-01  2.5962627808442246e-01  2.5956740200858186e-01  2.5939040013771791e-01  2.5909894163300773e-01  2.5869917346774335e-01  2.5819971840856787e-01  2.5761165320325663e-01  2.5694844989847926e-01  2.5622586003800524e-01  2.5546171998226258e-01  2.5467565625159339e-01  2.5388867162245449e-01  2.5312258971521034e-01  2.5239929106807402e-01  2.5173943875464655e-01  2.5115927559723267e-01  2.5065957269599820e-01  2.5018505105759775e-01  2.4950578219822483e-01  2.4821023458127320e-01  3.0283937955309376e-01  3.0290646475302380e-01  2.4875624274495189e-01  2.5046601475543168e-01  2.5128634894354313e-01  2.5179693411238668e-01  2.5230387747778460e-01  2.5288331148774407e-01  2.5353922091466435e-01  2.5425627169929799e-01  2.5501397870002468e-01  2.5579063129502638e-01  2.5656472275511399e-01  2.5731572705183969e-01  2.5802462523611491e-01  2.5867427324782005e-01  2.5924964344813484e-01  2.5973796544078054e-01  2.6012879194155020e-01  2.6041401472179371e-01  2.6058785294540499e-01  2.6064683211956163e-01  2.6058976699214081e-01  2.6041775647859233e-01  2.6013419331317900e-01  2.5974478568055898e-01  2.5925758264597898e-01  2.5868298985622795e-01  2.5803375697313780e-01  2.5732491407978142e-01  2.5657363149082985e-01  2.5579897661390993e-01  2.5502154141144923e-01  2.5426290607484148e-01  2.5354483750759160e-01  2.5288778546191443e-01  2.5230668186617389e-01  2.5179580728943013e-01  2.5127281096885190e-01  2.5041493301594120e-01  2.4864703727961809e-01  3.0287836121490991e-01  3.0296160112561138e-01  2.4932091631415204e-01  2.5159889302803812e-01  2.5263079972469582e-01  2.5319797544743056e-01  2.5371680217115788e-01  2.5429549981708538e-01  2.5494581819951151e-01  2.5565406739130014e-01  2.5640011809906765e-01  2.5716250762283982e-01  2.5792013564400551e-01  2.5865307665676934e-01  2.5934307559360326e-01  2.5997386085937901e-01  2.6053132225351083e-01  2.6100358760171471e-01  2.6138102934518892e-01  2.6165622965061480e-01  2.6182392835225282e-01  2.6188097283214951e-01  2.6182628342849990e-01  2.6166084245825044e-01  2.6138770956482105e-01  2.6101206075310879e-01  2.6054124303058146e-01  2.5998483095132618e-01  2.5935466566044441e-01  2.5866485164316072e-01  2.5793168192572130e-01  2.5717345961521798e-01  2.5641018055493958e-01  2.5566302664415447e-01  2.5495352280733374e-01  2.5430174759766500e-01  2.5372088654082836e-01  2.5319706025423500e-01  2.5261451166682158e-01  2.5153667356188142e-01  2.4918735784075075e-01  3.0292698562896075e-01  3.0302918499009690e-01  2.5001137150633923e-01  2.5298370717368057e-01  2.5427470883107173e-01  2.5491097667615059e-01  2.5544317536754368e-01  2.5601893736357234e-01  2.5665976567454235e-01  2.5735418501649865e-01  2.5808267272215252e-01  2.5882422730281585e-01  2.5955839105484946e-01  2.6026609923583066e-01  2.6093013076607424e-01  2.6153535036128384e-01  2.6206880912577690e-01  2.6251974706741810e-01  2.6287953428539224e-01  2.6314158222174217e-01  2.6330125026981099e-01  2.6335576671235617e-01  2.6330417699337610e-01  2.6314732688153047e-01  2.6288788307434030e-01  2.6253038892587255e-01  2.6208134789941101e-01  2.6154932175700135e-01  2.6094502429751315e-01  2.6028138487100583e-01  2.5957354945727479e-01  2.5883878138476857e-01  2.5809621613679090e-01  2.5736639893579227e-01  2.5667039830490063e-01  2.5602766628002810e-01  2.5544905013491132e-01  2.5491045209522151e-01  2.5425518989933266e-01  2.5290836822911972e-01  2.4984914716797990e-01  3.0298689480510665e-01  3.0311157779928599e-01  2.5085124506925066e-01  2.5466799418987857e-01  2.5627499297698947e-01  2.5699525108680232e-01  2.5754204964141286e-01  2.5811125694382525e-01  2.5873663420828186e-01  2.5940971509917093e-01  2.6011198327291413e-01  2.6082324350327896e-01  2.6152404011884045e-01  2.6219653994356507e-01  2.6282491892940174e-01  2.6339551458155219e-01  2.6389683560280985e-01  2.6431948271853228e-01  2.6465602205738259e-01  2.6490084371361866e-01  2.6505003000956529e-01  2.6510125074433216e-01  2.6505369665061873e-01  2.6490805736006490e-01  2.6466654602686934e-01  2.6433296888272539e-01  2.6391283377722546e-01  2.6341348668472031e-01  2.6284425885869173e-01  2.6221659973357581e-01  2.6154416208312653e-01  2.6084279660762993e-01  2.6013039906550983e-01  2.5942651236110414e-01  2.5875139911038025e-01  2.5812347716725548e-01  2.5755043267793060e-01  2.5699535792124684e-01  2.5625159997510966e-01  2.5457701531730564e-01  2.5065495527667547e-01  3.0306015574731726e-01  3.0321174221916930e-01  2.5187019334610150e-01  2.5671155861360995e-01  2.5870345774325060e-01  2.5952564538149975e-01  2.6008772038870642e-01  2.6064455771322936e-01  2.6124540563453463e-01  2.6188594285118100e-01  2.6254929524862858e-01  2.6321662342656077e-01  2.6387001557253675e-01  2.6449339545181239e-01  2.6507282050295972e-01  2.6559652469728173e-01  2.6605482673593717e-01  2.6643996750628451e-01  2.6674592037487932e-01  2.6696820529605658e-01  2.6710372784092534e-01  2.6715065662253795e-01  2.6710834707947034e-01  2.6697731579038819e-01  2.6675926678402651e-01  2.6645716899362742e-01  2.6607538125404356e-01  2.6561981734311929e-01  2.6509813784837954e-01  2.6451994765087650e-01  2.6389696736258955e-01  2.6324313357312895e-01  2.6257456012797403e-01  2.6190923129243276e-01  2.6126604235921524e-01  2.6066172606627408e-01  2.6009963206569919e-01  2.5952670789212173e-01  2.5867531491699991e-01  2.5660171534129228e-01  2.5163307050217742e-01  3.0314936245280760e-01  3.0333340220038851e-01  2.5310551701608336e-01  2.5918988200386700e-01  2.6165105638342989e-01  2.6259701218038972e-01  2.6317401769516074e-01  2.6370928033003510e-01  2.6427180078099688e-01  2.6486307343338855e-01  2.6546888236954935e-01  2.6607261202775412e-01  2.6665870408131187e-01  2.6721357560901154e-01  2.6772580124036233e-01  2.6818603066004743e-01  2.6858679437090849e-01  2.6892226830852500e-01  2.6918803826686183e-01  2.6938088897914059e-01  2.6949863200624757e-01  2.6953997963691700e-01  2.6950446794331462e-01  2.6939243018660436e-01  2.6920502107844180e-01  2.6894429213472049e-01  2.6861331768978214e-01  2.6821636918021463e-01  2.6775913117171296e-01  2.6724894542726174e-01  2.6669505806028032e-01  2.6610882746949349e-01  2.6550381805731865e-01  2.6489561554267493e-01  2.6430085243605078e-01  2.6373353018626916e-01  2.6319093415971073e-01  2.6259947336934392e-01  2.6161694763510507e-01  2.5905700735312909e-01  2.5281904443244435e-01  3.0325777144285671e-01  3.0348125612393606e-01  2.5460435052462171e-01  2.6219878369689475e-01  2.6523377942832194e-01  2.6633040329052421e-01  2.6692018882201174e-01  2.6741940798085923e-01  2.6792260535685541e-01  2.6843961777141229e-01  2.6896052140451382e-01  2.6947228782087002e-01  2.6996290913365661e-01  2.7042230977976167e-01  2.7084239157729795e-01  2.7121682631632255e-01  2.7154077988792202e-01  2.7181063726370863e-01  2.7202375866863815e-01  2.7217827959484026e-01  2.7227295793594525e-01  2.7230706693324724e-01  2.7228033115570716e-01  2.7219290323877388e-01  2.7204538073665552e-01  2.7183886444302624e-01  2.7157506127093783e-01  2.7125643545892414e-01  2.7088641059454066e-01  2.7046962051064516e-01  2.7001219729519954e-01  2.6952206601709278e-01  2.6900917303718525e-01  2.6848544912099914e-01  2.6796384058546580e-01  2.6745392081913161e-01  2.6694429464351865e-01  2.6633488548121526e-01  2.6519197939826444e-01  2.6203741716601009e-01  2.5425774187153755e-01  3.0338948187084014e-01  3.0366126111722980e-01  2.5642663428841617e-01  2.6586086793750269e-01  2.6960092598024132e-01  2.7088178956301401e-01  2.7147908240614715e-01  2.7191952062271008e-01  2.7233131130519644e-01  2.7273656575605254e-01  2.7313229772512460e-01  2.7351119286072267e-01  2.7386653492610447e-01  2.7419311166210403e-01  2.7448713266092067e-01  2.7474593918798118e-01  2.7496771100442252e-01  2.7515122364096611e-01  2.7529566477182266e-01  2.7540050364721780e-01  2.7546540309536488e-01  2.7549016357251266e-01  2.7547469082432019e-01  2.7541898184704233e-01  2.7532312742602150e-01  2.7518733333099227e-01  2.7501196605290779e-01  2.7479763248507127e-01  2.7454530570500596e-01  2.7425650959135506e-01  2.7393357099156740e-01  2.7357993384926060e-01  2.7320047881444209e-01  2.7280162771684296e-01  2.7239039045149155e-01  2.7196913710505805e-01  2.7151370265509345e-01  2.7088920909440806e-01  2.6954893360921028e-01  2.6566372747122596e-01  2.5600611489001768e-01  3.0354967541697442e-01  3.0388101045952959e-01  2.5864917866167592e-01  2.7033457265452993e-01  2.7494693953836757e-01  2.7645457046165089e-01  2.7704870391498604e-01  2.7739442900588629e-01  2.7766543174870989e-01  2.7790239275377820e-01  2.7811356763116640e-01  2.7830063672380567e-01  2.7846464048723529e-01  2.7860695270624719e-01  2.7872916928187647e-01  2.7883286768313276e-01  2.7891943944255698e-01  2.7899001230375392e-01  2.7904543763624623e-01  2.7908631497383202e-01  2.7911303059897202e-01  2.7912579349717243e-01  2.7912465770216233e-01  2.7910952478895024e-01  2.7908012431930723e-01  2.7903597394490065e-01  2.7897632518894105e-01  2.7890010630184370e-01  2.7880588034723786e-01  2.7869184435272498e-01  2.7855590313809064e-01  2.7839584800213063e-01  2.7820962495480722e-01  2.7799548575141270e-01  2.7775098253513142e-01  2.7746669239815686e-01  2.7709907240350318e-01  2.7646636624326570e-01  2.7488105893270542e-01  2.7009174573158784e-01  2.5813698233470284e-01  3.0374493538113062e-01  3.0415022806207903e-01  2.6137126086774864e-01  2.7582708873762596e-01  2.8152873550577462e-01  2.8331791336707363e-01  2.8388877604349927e-01  2.8408236829997624e-01  2.8413582271933313e-01  2.8411873903168883e-01  2.8405761743051477e-01  2.8396808407358232e-01  2.8386226160537925e-01  2.8375009729843315e-01  2.8363952730491526e-01  2.8353659184042251e-01  2.8344566487240636e-01  2.8336975866105507e-01  2.8331084334429829e-01  2.8327013853368410e-01  2.8324835181206820e-01  2.8324585135726782e-01  2.8326276691090363e-01  2.8329901659834666e-01  2.8335425830533534e-01  2.8342776491566823e-01  2.8351822411828115e-01  2.8362346741961852e-01  2.8374014096867795e-01  2.8386334569185007e-01  2.8398629607426268e-01  2.8410006444931041e-01  2.8419346918828969e-01  2.8425293912958760e-01  2.8426113283462995e-01  2.8418924338722851e-01  2.8396339940041121e-01  2.8333656578444644e-01  2.8144346298306039e-01  2.7552476160529366e-01  2.6074419439217594e-01  3.0398366699606993e-01  3.0448139480323100e-01  2.6472231617470088e-01  2.8261321776386961e-01  2.8969180336429295e-01  2.9183430795669640e-01  2.9234479143888153e-01  2.9229295998049037e-01  2.9200809272817385e-01  2.9160610207017218e-01  2.9114300946963206e-01  2.9065555356395278e-01  2.9017103128112198e-01  2.8970980296152982e-01  2.8928646098267463e-01  2.8891090438523914e-01  2.8858942149145411e-01  2.8832569362566779e-01  2.8812165175287363e-01  2.8797815908248497e-01  2.8789551965030558e-01  2.8787382461560201e-01  2.8791314955064629e-01  2.8801361175480217e-01  2.8817528953370214e-01  2.8839799737572003e-01  2.8868090377227540e-01  2.8902197412053893e-01  2.8941722290785693e-01  2.8985977407262931e-01  2.9033875640510165e-01  2.9083811370746920e-01  2.9133544359685115e-01  2.9180073251335187e-01  2.9219376654905271e-01  2.9245399031021924e-01  2.9245832920966247e-01  2.9186464458099248e-01  2.8957886037848057e-01  2.8223158451910596e-01  2.6394975101964480e-01  3.0427664479619276e-01  3.0489040703606618e-01  2.6887258574818818e-01  2.9106383799504643e-01  2.9991094710113358e-01  3.0250210235571756e-01  3.0288321695670056e-01  3.0243106501364364e-01  3.0161532095270638e-01  3.0062777577462102e-01  2.9957160139164946e-01  2.9851419989750089e-01  2.9750213516993113e-01  2.9656680931340890e-01  2.9572812947950194e-01  2.9499758244414015e-01  2.9438083704589602e-01  2.9387983902900011e-01  2.9349441327512377e-01  2.9322343433442910e-01  2.9306564091649662e-01  2.9302016344082865e-01  2.9308681670203118e-01  2.9326618852299385e-01  2.9355953270913471e-01  2.9396845148153472e-01  2.9449432919895885e-01  2.9513745619367077e-01  2.9589576283684810e-01  2.9676307609977071e-01  2.9772682271919304e-01  2.9876517210822379e-01  2.9984363147833487e-01  3.0091100069582805e-01  3.0189339368726364e-01  3.0267835291992456e-01  3.0306073278477408e-01  3.0255332527438150e-01  2.9975830642064755e-01  2.9057417476134323e-01  2.6791354890805574e-01  3.0463764432937146e-01  3.0539726731180139e-01  2.7404860149290855e-01  3.0169054720783911e-01  3.1285703894432731e-01  3.1602290820689516e-01  3.1614260340261513e-01  3.1502634271463115e-01  3.1336897661435537e-01  3.114880171