<?xml version="1.0"?>
<VTKFile type="UnstructuredGrid"  version="0.1"  >
<UnstructuredGrid>
<Piece  NumberOfPoints="1681" NumberOfCells="3200">
<Points>
<DataArray  type="Float64"  NumberOfComponents="3"  format="ascii">0 0 0  0.025 0 0  0.05 0 0  0.075 0 0  0.1 0 0  0.125 0 0  0.15 0 0  0.175 0 0  0.2 0 0  0.225 0 0  0.25 0 0  0.275 0 0  0.3 0 0  0.325 0 0  0.35 0 0  0.375 0 0  0.4 0 0  0.425 0 0  0.45 0 0  0.475 0 0  0.5 0 0  0.525 0 0  0.55 0 0  0.575 0 0  0.6 0 0  0.625 0 0  0.65 0 0  0.675 0 0  0.7 0 0  0.725 0 0  0.75 0 0  0.775 0 0  0.8 0 0  0.825 0 0  0.85 0 0  0.875 0 0  0.9 0 0  0.925 0 0  0.95 0 0  0.975 0 0  1 0 0  0 0.025 0  0.025 0.025 0  0.05 0.025 0  0.075 0.025 0  0.1 0.025 0  0.125 0.025 0  0.15 0.025 0  0.175 0.025 0  0.2 0.025 0  0.225 0.025 0  0.25 0.025 0  0.275 0.025 0  0.3 0.025 0  0.325 0.025 0  0.35 0.025 0  0.375 0.025 0  0.4 0.025 0  0.425 0.025 0  0.45 0.025 0  0.475 0.025 0  0.5 0.025 0  0.525 0.025 0  0.55 0.025 0  0.575 0.025 0  0.6 0.025 0  0.625 0.025 0  0.65 0.025 0  0.675 0.025 0  0.7 0.025 0  0.725 0.025 0  0.75 0.025 0  0.775 0.025 0  0.8 0.025 0  0.825 0.025 0  0.85 0.025 0  0.875 0.025 0  0.9 0.025 0  0.925 0.025 0  0.95 0.025 0  0.975 0.025 0  1 0.025 0  0 0.05 0  0.025 0.05 0  0.05 0.05 0  0.075 0.05 0  0.1 0.05 0  0.125 0.05 0  0.15 0.05 0  0.175 0.05 0  0.2 0.05 0  0.225 0.05 0  0.25 0.05 0  0.275 0.05 0  0.3 0.05 0  0.325 0.05 0  0.35 0.05 0  0.375 0.05 0  0.4 0.05 0  0.425 0.05 0  0.45 0.05 0  0.475 0.05 0  0.5 0.05 0  0.525 0.05 0  0.55 0.05 0  0.575 0.05 0  0.6 0.05 0  0.625 0.05 0  0.65 0.05 0  0.675 0.05 0  0.7 0.05 0  0.725 0.05 0  0.75 0.05 0  0.775 0.05 0  0.8 0.05 0  0.825 0.05 0  0.85 0.05 0  0.875 0.05 0  0.9 0.05 0  0.925 0.05 0  0.95 0.05 0  0.975 0.05 0  1 0.05 0  0 0.075 0  0.025 0.075 0  0.05 0.075 0  0.075 0.075 0  0.1 0.075 0  0.125 0.075 0  0.15 0.075 0  0.175 0.075 0  0.2 0.075 0  0.225 0.075 0  0.25 0.075 0  0.275 0.075 0  0.3 0.075 0  0.325 0.075 0  0.35 0.075 0  0.375 0.075 0  0.4 0.075 0  0.425 0.075 0  0.45 0.075 0  0.475 0.075 0  0.5 0.075 0  0.525 0.075 0  0.55 0.075 0  0.575 0.075 0  0.6 0.075 0  0.625 0.075 0  0.65 0.075 0  0.675 0.075 0  0.7 0.075 0  0.725 0.075 0  0.75 0.075 0  0.775 0.075 0  0.8 0.075 0  0.825 0.075 0  0.85 0.075 0  0.875 0.075 0  0.9 0.075 0  0.925 0.075 0  0.95 0.075 0  0.975 0.075 0  1 0.075 0  0 0.1 0  0.025 0.1 0  0.05 0.1 0  0.075 0.1 0  0.1 0.1 0  0.125 0.1 0  0.15 0.1 0  0.175 0.1 0  0.2 0.1 0  0.225 0.1 0  0.25 0.1 0  0.275 0.1 0  0.3 0.1 0  0.325 0.1 0  0.35 0.1 0  0.375 0.1 0  0.4 0.1 0  0.425 0.1 0  0.45 0.1 0  0.475 0.1 0  0.5 0.1 0  0.525 0.1 0  0.55 0.1 0  0.575 0.1 0  0.6 0.1 0  0.625 0.1 0  0.65 0.1 0  0.675 0.1 0  0.7 0.1 0  0.725 0.1 0  0.75 0.1 0  0.775 0.1 0  0.8 0.1 0  0.825 0.1 0  0.85 0.1 0  0.875 0.1 0  0.9 0.1 0  0.925 0.1 0  0.95 0.1 0  0.975 0.1 0  1 0.1 0  0 0.125 0  0.025 0.125 0  0.05 0.125 0  0.075 0.125 0  0.1 0.125 0  0.125 0.125 0  0.15 0.125 0  0.175 0.125 0  0.2 0.125 0  0.225 0.125 0  0.25 0.125 0  0.275 0.125 0  0.3 0.125 0  0.325 0.125 0  0.35 0.125 0  0.375 0.125 0  0.4 0.125 0  0.425 0.125 0  0.45 0.125 0  0.475 0.125 0  0.5 0.125 0  0.525 0.125 0  0.55 0.125 0  0.575 0.125 0  0.6 0.125 0  0.625 0.125 0  0.65 0.125 0  0.675 0.125 0  0.7 0.125 0  0.725 0.125 0  0.75 0.125 0  0.775 0.125 0  0.8 0.125 0  0.825 0.125 0  0.85 0.125 0  0.875 0.125 0  0.9 0.125 0  0.925 0.125 0  0.95 0.125 0  0.975 0.125 0  1 0.125 0  0 0.15 0  0.025 0.15 0  0.05 0.15 0  0.075 0.15 0  0.1 0.15 0  0.125 0.15 0  0.15 0.15 0  0.175 0.15 0  0.2 0.15 0  0.225 0.15 0  0.25 0.15 0  0.275 0.15 0  0.3 0.15 0  0.325 0.15 0  0.35 0.15 0  0.375 0.15 0  0.4 0.15 0  0.425 0.15 0  0.45 0.15 0  0.475 0.15 0  0.5 0.15 0  0.525 0.15 0  0.55 0.15 0  0.575 0.15 0  0.6 0.15 0  0.625 0.15 0  0.65 0.15 0  0.675 0.15 0  0.7 0.15 0  0.725 0.15 0  0.75 0.15 0  0.775 0.15 0  0.8 0.15 0  0.825 0.15 0  0.85 0.15 0  0.875 0.15 0  0.9 0.15 0  0.925 0.15 0  0.95 0.15 0  0.975 0.15 0  1 0.15 0  0 0.175 0  0.025 0.175 0  0.05 0.175 0  0.075 0.175 0  0.1 0.175 0  0.125 0.175 0  0.15 0.175 0  0.175 0.175 0  0.2 0.175 0  0.225 0.175 0  0.25 0.175 0  0.275 0.175 0  0.3 0.175 0  0.325 0.175 0  0.35 0.175 0  0.375 0.175 0  0.4 0.175 0  0.425 0.175 0  0.45 0.175 0  0.475 0.175 0  0.5 0.175 0  0.525 0.175 0  0.55 0.175 0  0.575 0.175 0  0.6 0.175 0  0.625 0.175 0  0.65 0.175 0  0.675 0.175 0  0.7 0.175 0  0.725 0.175 0  0.75 0.175 0  0.775 0.175 0  0.8 0.175 0  0.825 0.175 0  0.85 0.175 0  0.875 0.175 0  0.9 0.175 0  0.925 0.175 0  0.95 0.175 0  0.975 0.175 0  1 0.175 0  0 0.2 0  0.025 0.2 0  0.05 0.2 0  0.075 0.2 0  0.1 0.2 0  0.125 0.2 0  0.15 0.2 0  0.175 0.2 0  0.2 0.2 0  0.225 0.2 0  0.25 0.2 0  0.275 0.2 0  0.3 0.2 0  0.325 0.2 0  0.35 0.2 0  0.375 0.2 0  0.4 0.2 0  0.425 0.2 0  0.45 0.2 0  0.475 0.2 0  0.5 0.2 0  0.525 0.2 0  0.55 0.2 0  0.575 0.2 0  0.6 0.2 0  0.625 0.2 0  0.65 0.2 0  0.675 0.2 0  0.7 0.2 0  0.725 0.2 0  0.75 0.2 0  0.775 0.2 0  0.8 0.2 0  0.825 0.2 0  0.85 0.2 0  0.875 0.2 0  0.9 0.2 0  0.925 0.2 0  0.95 0.2 0  0.975 0.2 0  1 0.2 0  0 0.225 0  0.025 0.225 0  0.05 0.225 0  0.075 0.225 0  0.1 0.225 0  0.125 0.225 0  0.15 0.225 0  0.175 0.225 0  0.2 0.225 0  0.225 0.225 0  0.25 0.225 0  0.275 0.225 0  0.3 0.225 0  0.325 0.225 0  0.35 0.225 0  0.375 0.225 0  0.4 0.225 0  0.425 0.225 0  0.45 0.225 0  0.475 0.225 0  0.5 0.225 0  0.525 0.225 0  0.55 0.225 0  0.575 0.225 0  0.6 0.225 0  0.625 0.225 0  0.65 0.225 0  0.675 0.225 0  0.7 0.225 0  0.725 0.225 0  0.75 0.225 0  0.775 0.225 0  0.8 0.225 0  0.825 0.225 0  0.85 0.225 0  0.875 0.225 0  0.9 0.225 0  0.925 0.225 0  0.95 0.225 0  0.975 0.225 0  1 0.225 0  0 0.25 0  0.025 0.25 0  0.05 0.25 0  0.075 0.25 0  0.1 0.25 0  0.125 0.25 0  0.15 0.25 0  0.175 0.25 0  0.2 0.25 0  0.225 0.25 0  0.25 0.25 0  0.275 0.25 0  0.3 0.25 0  0.325 0.25 0  0.35 0.25 0  0.375 0.25 0  0.4 0.25 0  0.425 0.25 0  0.45 0.25 0  0.475 0.25 0  0.5 0.25 0  0.525 0.25 0  0.55 0.25 0  0.575 0.25 0  0.6 0.25 0  0.625 0.25 0  0.65 0.25 0  0.675 0.25 0  0.7 0.25 0  0.725 0.25 0  0.75 0.25 0  0.775 0.25 0  0.8 0.25 0  0.825 0.25 0  0.85 0.25 0  0.875 0.25 0  0.9 0.25 0  0.925 0.25 0  0.95 0.25 0  0.975 0.25 0  1 0.25 0  0 0.275 0  0.025 0.275 0  0.05 0.275 0  0.075 0.275 0  0.1 0.275 0  0.125 0.275 0  0.15 0.275 0  0.175 0.275 0  0.2 0.275 0  0.225 0.275 0  0.25 0.275 0  0.275 0.275 0  0.3 0.275 0  0.325 0.275 0  0.35 0.275 0  0.375 0.275 0  0.4 0.275 0  0.425 0.275 0  0.45 0.275 0  0.475 0.275 0  0.5 0.275 0  0.525 0.275 0  0.55 0.275 0  0.575 0.275 0  0.6 0.275 0  0.625 0.275 0  0.65 0.275 0  0.675 0.275 0  0.7 0.275 0  0.725 0.275 0  0.75 0.275 0  0.775 0.275 0  0.8 0.275 0  0.825 0.275 0  0.85 0.275 0  0.875 0.275 0  0.9 0.275 0  0.925 0.275 0  0.95 0.275 0  0.975 0.275 0  1 0.275 0  0 0.3 0  0.025 0.3 0  0.05 0.3 0  0.075 0.3 0  0.1 0.3 0  0.125 0.3 0  0.15 0.3 0  0.175 0.3 0  0.2 0.3 0  0.225 0.3 0  0.25 0.3 0  0.275 0.3 0  0.3 0.3 0  0.325 0.3 0  0.35 0.3 0  0.375 0.3 0  0.4 0.3 0  0.425 0.3 0  0.45 0.3 0  0.475 0.3 0  0.5 0.3 0  0.525 0.3 0  0.55 0.3 0  0.575 0.3 0  0.6 0.3 0  0.625 0.3 0  0.65 0.3 0  0.675 0.3 0  0.7 0.3 0  0.725 0.3 0  0.75 0.3 0  0.775 0.3 0  0.8 0.3 0  0.825 0.3 0  0.85 0.3 0  0.875 0.3 0  0.9 0.3 0  0.925 0.3 0  0.95 0.3 0  0.975 0.3 0  1 0.3 0  0 0.325 0  0.025 0.325 0  0.05 0.325 0  0.075 0.325 0  0.1 0.325 0  0.125 0.325 0  0.15 0.325 0  0.175 0.325 0  0.2 0.325 0  0.225 0.325 0  0.25 0.325 0  0.275 0.325 0  0.3 0.325 0  0.325 0.325 0  0.35 0.325 0  0.375 0.325 0  0.4 0.325 0  0.425 0.325 0  0.45 0.325 0  0.475 0.325 0  0.5 0.325 0  0.525 0.325 0  0.55 0.325 0  0.575 0.325 0  0.6 0.325 0  0.625 0.325 0  0.65 0.325 0  0.675 0.325 0  0.7 0.325 0  0.725 0.325 0  0.75 0.325 0  0.775 0.325 0  0.8 0.325 0  0.825 0.325 0  0.85 0.325 0  0.875 0.325 0  0.9 0.325 0  0.925 0.325 0  0.95 0.325 0  0.975 0.325 0  1 0.325 0  0 0.35 0  0.025 0.35 0  0.05 0.35 0  0.075 0.35 0  0.1 0.35 0  0.125 0.35 0  0.15 0.35 0  0.175 0.35 0  0.2 0.35 0  0.225 0.35 0  0.25 0.35 0  0.275 0.35 0  0.3 0.35 0  0.325 0.35 0  0.35 0.35 0  0.375 0.35 0  0.4 0.35 0  0.425 0.35 0  0.45 0.35 0  0.475 0.35 0  0.5 0.35 0  0.525 0.35 0  0.55 0.35 0  0.575 0.35 0  0.6 0.35 0  0.625 0.35 0  0.65 0.35 0  0.675 0.35 0  0.7 0.35 0  0.725 0.35 0  0.75 0.35 0  0.775 0.35 0  0.8 0.35 0  0.825 0.35 0  0.85 0.35 0  0.875 0.35 0  0.9 0.35 0  0.925 0.35 0  0.95 0.35 0  0.975 0.35 0  1 0.35 0  0 0.375 0  0.025 0.375 0  0.05 0.375 0  0.075 0.375 0  0.1 0.375 0  0.125 0.375 0  0.15 0.375 0  0.175 0.375 0  0.2 0.375 0  0.225 0.375 0  0.25 0.375 0  0.275 0.375 0  0.3 0.375 0  0.325 0.375 0  0.35 0.375 0  0.375 0.375 0  0.4 0.375 0  0.425 0.375 0  0.45 0.375 0  0.475 0.375 0  0.5 0.375 0  0.525 0.375 0  0.55 0.375 0  0.575 0.375 0  0.6 0.375 0  0.625 0.375 0  0.65 0.375 0  0.675 0.375 0  0.7 0.375 0  0.725 0.375 0  0.75 0.375 0  0.775 0.375 0  0.8 0.375 0  0.825 0.375 0  0.85 0.375 0  0.875 0.375 0  0.9 0.375 0  0.925 0.375 0  0.95 0.375 0  0.975 0.375 0  1 0.375 0  0 0.4 0  0.025 0.4 0  0.05 0.4 0  0.075 0.4 0  0.1 0.4 0  0.125 0.4 0  0.15 0.4 0  0.175 0.4 0  0.2 0.4 0  0.225 0.4 0  0.25 0.4 0  0.275 0.4 0  0.3 0.4 0  0.325 0.4 0  0.35 0.4 0  0.375 0.4 0  0.4 0.4 0  0.425 0.4 0  0.45 0.4 0  0.475 0.4 0  0.5 0.4 0  0.525 0.4 0  0.55 0.4 0  0.575 0.4 0  0.6 0.4 0  0.625 0.4 0  0.65 0.4 0  0.675 0.4 0  0.7 0.4 0  0.725 0.4 0  0.75 0.4 0  0.775 0.4 0  0.8 0.4 0  0.825 0.4 0  0.85 0.4 0  0.875 0.4 0  0.9 0.4 0  0.925 0.4 0  0.95 0.4 0  0.975 0.4 0  1 0.4 0  0 0.425 0  0.025 0.425 0  0.05 0.425 0  0.075 0.425 0  0.1 0.425 0  0.125 0.425 0  0.15 0.425 0  0.175 0.425 0  0.2 0.425 0  0.225 0.425 0  0.25 0.425 0  0.275 0.425 0  0.3 0.425 0  0.325 0.425 0  0.35 0.425 0  0.375 0.425 0  0.4 0.425 0  0.425 0.425 0  0.45 0.425 0  0.475 0.425 0  0.5 0.425 0  0.525 0.425 0  0.55 0.425 0  0.575 0.425 0  0.6 0.425 0  0.625 0.425 0  0.65 0.425 0  0.675 0.425 0  0.7 0.425 0  0.725 0.425 0  0.75 0.425 0  0.775 0.425 0  0.8 0.425 0  0.825 0.425 0  0.85 0.425 0  0.875 0.425 0  0.9 0.425 0  0.925 0.425 0  0.95 0.425 0  0.975 0.425 0  1 0.425 0  0 0.45 0  0.02
[...]
<PointData  Scalars="ControlVisualisation"> 
<DataArray  type="Float64"  Name="ControlVisualisation"  format="ascii">3.6288861171455792e-06  2.4159954902788837e-06  2.4161224233493945e-06  2.4163376195399410e-06  2.4166393974584633e-06  2.4170264230435656e-06  2.4174966064833580e-06  2.4180471962489719e-06  2.4186747781067003e-06  2.4193749977897561e-06  2.4201427386219447e-06  2.4209718212676344e-06  2.4218552663933975e-06  2.4227848100291541e-06  2.4237511335310304e-06  2.4247437449646745e-06  2.4257506131561527e-06  2.4267580104466948e-06  2.4277502462835032e-06  2.4287094337256073e-06  2.4296147341892626e-06  2.4304413501598219e-06  2.4311602843083425e-06  2.4317370592351641e-06  2.4321302993846354e-06  2.4322922998985864e-06  2.4321626494436459e-06  2.4316902189185143e-06  2.4308199624184968e-06  2.4295312860034720e-06  2.4278460576109517e-06  2.4256711636281355e-06  2.4230449427494481e-06  2.4203043470096614e-06  2.4179678981919264e-06  2.4165071216793276e-06  2.4159777115022422e-06  2.4160006266024676e-06  2.4160539199576223e-06  2.4159769877020585e-06  7.2672667251484800e-06  2.4159955386060668e-06  1.2030510649707014e-06  1.2031743447773553e-06  1.2033941109187487e-06  1.2037117026743821e-06  1.2041256870664029e-06  1.2046339358479105e-06  1.2052336633272149e-06  1.2059213112761508e-06  1.2066924215669009e-06  1.2075415546369083e-06  1.2084622452509171e-06  1.2094469235861170e-06  1.2104868296893159e-06  1.2115718360197118e-06  1.2126905628900848e-06  1.2138299774494629e-06  1.2149751357794773e-06  1.2161088341120446e-06  1.2172114650644721e-06  1.2182602613973061e-06  1.2192284818949570e-06  1.2200847336925623e-06  1.2207915186825772e-06  1.2213024426123011e-06  1.2215663337254171e-06  1.2215175201087534e-06  1.2211090185492413e-06  1.2202451142472245e-06  1.2189227026733227e-06  1.2171841510245607e-06  1.2149610869938728e-06  1.2121746452108490e-06  1.2090649801882590e-06  1.2062339357652398e-06  1.2042469383694568e-06  1.2033119912770831e-06  1.2031499293403818e-06  1.2031975194365324e-06  1.2031159526585986e-06  2.4159893796118267e-06  2.4161229822494645e-06  1.2031747541430891e-06  1.2033281210523373e-06  1.2035778335057875e-06  1.2039393567200598e-06  1.2044116255346936e-06  1.2049923065354899e-06  1.2056783404019249e-06  1.2064656843396768e-06  1.2073493108298706e-06  1.2083231294837489e-06  1.2093798407850383e-06  1.2105108834759206e-06  1.2117063372472118e-06  1.2129548544354368e-06  1.2142436495943073e-06  1.2155581257351163e-06  1.2168816051094375e-06  1.2181950344335106e-06  1.2194767360206613e-06  1.2207015951309900e-06  1.2218409406654381e-06  1.2228597536758412e-06  1.2237182297515115e-06  1.2243667363912730e-06  1.2247597084624178e-06  1.2248228194620632e-06  1.2244859794475370e-06  1.2236026689731623e-06  1.2221613359394749e-06  1.2203187722858119e-06  1.2185863297898920e-06  1.2158654437272796e-06  1.2123002530130864e-06  1.2089214405462006e-06  1.2061576615688119e-06  1.2045978244800210e-06  1.2041113845720147e-06  1.2041889036291029e-06  1.2038882882344933e-06  2.4164251139015465e-06  2.4163403021522160e-06  1.2033964205549984e-06  1.2035799289013157e-06  1.2038327253185346e-06  1.2041969999329128e-06  1.2046729557929024e-06  1.2052584081329423e-06  1.2059503201464731e-06  1.2067447404752779e-06  1.2076366122698803e-06  1.2086198374805646e-06  1.2096871618417715e-06  1.2108300714245029e-06  1.2120387894730698e-06  1.2133021445520303e-06  1.2146077216868126e-06  1.2159413399121696e-06  1.2172869859502656e-06  1.2186267563118353e-06  1.2199404647274791e-06  1.2212038981775510e-06  1.2223898905157112e-06  1.2234695078297508e-06  1.2244183532899708e-06  1.2251887859003507e-06  1.2257065968098585e-06  1.2259542799881220e-06  1.2256956584564846e-06  1.2256349908919952e-06  1.2241789135442427e-06  1.2226771218732125e-06  1.2246784430266540e-06  1.2245768575686233e-06  1.2230279371763042e-06  1.2204409816088758e-06  1.2139356665519507e-06  1.2089601463253810e-06  1.2077374450372285e-06  1.2097360869258316e-06  1.2087560971286305e-06  2.4189797785779464e-06  2.4166477361422166e-06  1.2037193831101798e-06  1.2039475089133507e-06  1.2042031039431758e-06  1.2045683288091796e-06  1.2050455219421581e-06  1.2056327623907481e-06  1.2063270345287548e-06  1.2071244471552401e-06  1.2080200578601011e-06  1.2090077987630881e-06  1.2100804708000785e-06  1.2112296603789362e-06  1.2124459197385651e-06  1.2137184170104309e-06  1.2150352621351194e-06  1.2163832858261478e-06  1.2177476370738819e-06  1.2191122996389313e-06  1.2204567915223348e-06  1.2217618923994674e-06  1.2230036019957127e-06  1.2241733703298292e-06  1.2252217376903044e-06  1.2261286837872991e-06  1.2267139558000173e-06  1.2278819937544174e-06  1.2279430941011277e-06  1.2321636779534653e-06  1.2321857218206301e-06  1.2451490265926019e-06  1.3145249956489056e-06  1.3898131482436444e-06  1.4441648792723804e-06  1.5113240688469657e-06  1.5019401917783839e-06  1.4690439534447962e-06  1.3125248056785869e-06  1.2238933743991729e-06  1.2365285384954911e-06  2.4336269334678744e-06  2.4170466395297935e-06  1.2041450836455490e-06  1.2044330687440877e-06  1.2046925281724039e-06  1.2050591398580495e-06  1.2055381464680880e-06  1.2061278700162891e-06  1.2068254046422884e-06  1.2076269342740956e-06  1.2085274648072383e-06  1.2095210770131361e-06  1.2106006448568599e-06  1.2117578644386922e-06  1.2129835084250079e-06  1.2142673773391402e-06  1.2155982398591573e-06  1.2169642547463960e-06  1.2183513531058150e-06  1.2197459995512501e-06  1.2211298234205664e-06  1.2225029101129439e-06  1.2237988621271569e-06  1.2250510637188069e-06  1.2261415314588695e-06  1.2278218667552186e-06  1.2287352734332338e-06  1.2331732930120428e-06  1.2366492102218705e-06  1.3111004862057626e-06  1.4373905237633671e-06  1.6519057837274710e-06  2.7073692647877254e-06  6.9261982180921951e-03  1.5631570219951199e-01  2.5888965486936255e-01  3.0036235947192330e-01  2.5260328976533741e-01  4.9486977712486141e-02  2.3010662360715338e-06  1.4118768545749377e-06  2.7345537068005423e-06  2.4175383282552460e-06  1.2046751100706565e-06  1.2050386542631570e-06  1.2053033737329848e-06  1.2056721858367213e-06  1.2061540493674929e-06  1.2067475642218961e-06  1.2074498799998138e-06  1.2082572037876432e-06  1.2091646256119107e-06  1.2101661198579225e-06  1.2112546628332799e-06  1.2124221134597897e-06  1.2136595139072463e-06  1.2149571704601236e-06  1.2163049182743747e-06  1.2176909684101080e-06  1.2191058164065792e-06  1.2205397916505008e-06  1.2219793496524664e-06  1.2234203059518927e-06  1.2247412022872220e-06  1.2263003850234069e-06  1.2277904942854587e-06  1.2321185887882985e-06  1.2365660232785494e-06  1.3152319744479960e-06  1.4761600863262667e-06  1.9944655973361583e-06  1.2618485301036370e-04  2.8925185839626638e-01  6.2587305997700815e-01  9.9997044366305077e-01  9.9999673523415356e-01  9.9999812978238767e-01  9.9999853654656945e-01  9.9999857110859769e-01  9.9999806227824706e-01  9.9999180492285278e-01  9.6500767326945042e-02  2.9470907423139483e-06  2.4181240906027361e-06  1.2053111674138257e-06  1.2057664403041276e-06  1.2060381521679483e-06  1.2064104464899181e-06  1.2068967457139871e-06  1.2074959247619861e-06  1.2082051948087887e-06  1.2090206620362011e-06  1.2099373637474121e-06  1.2109492164253551e-06  1.2120492123287451e-06  1.2132293401340495e-06  1.2144809618867787e-06  1.2157941313201129e-06  1.2171605861506937e-06  1.2185695073697874e-06  1.2200271264303072e-06  1.2214863729984130e-06  1.2229839445575590e-06  1.2245196394438585e-06  1.2265176966463184e-06  1.2287353342906403e-06  1.2326835037931740e-06  1.2877360924633023e-06  1.4401365061408722e-06  1.9621567305569288e-06  1.6540083032112247e-02  3.8084509598345656e-01  9.1534770278796895e-01  9.9999732815061049e-01  9.9999878020161148e-01  9.9999920764181383e-01  9.9999943045887396e-01  9.9999956839351789e-01  9.9999965059810036e-01  9.9999970200668320e-01  9.9999972968927453e-01  9.9999972800780257e-01  9.9999968458037358e-01  9.9999824570396101e-01  2.4188048174364109e-06  1.2060546851935216e-06  1.2066184146175324e-06  1.2068993602805907e-06  1.2072771181879656e-06  1.2077702620462876e-06  1.2083779011878756e-06  1.2090971195619577e-06  1.2099239167602099e-06  1.2108530906567406e-06  1.2118783994019920e-06  1.2129926034943875e-06  1.2141879255939868e-06  1.2154554335105185e-06  1.2167874345176732e-06  1.2181762768057574e-06  1.2196083088582290e-06  1.2211060298516942e-06  1.2225809156795032e-06  1.2244322878863662e-06  1.2262740689309980e-06  1.2312990190940597e-06  1.2502183157222218e-06  1.3668707620093881e-06  1.7450223485486207e-06  9.3051421202454392e-06  3.1921909285546024e-01  9.2028320301638633e-01  9.9999773222848798e-01  9.9999894017619051e-01  9.9999934732282070e-01  9.9999955936000251e-01  9.9999967688571800e-01  9.9999975059351942e-01  9.9999980227212448e-01  9.9999984186566404e-01  9.9999987416576908e-01  9.9999990105113989e-01  9.9999992259410753e-01  9.9999993755720751e-01  9.9999984126931696e-01  2.4195804257356038e-06  1.2069062700916131e-06  1.2075959080626034e-06  1.2078891605674767e-06  1.2082754432763740e-06  1.2087791239062604e-06  1.2093993522560437e-06  1.2101329101956515e-06  1.2109753449609867e-06  1.2119211731083574e-06  1.2129636293858457e-06  1.2140948483630164e-06  1.2153083715416058e-06  1.2165949000439018e-06  1.2179546272440682e-06  1.2193488963397047e-06  1.2208095258267268e-06  1.2224088414588870e-06  1.2243803963543174e-06  1.2270651600703894e-06  1.2331173879448129e-06  1.3170495805615055e-06  1.5432998194796567e-06  2.8828788574335498e-06  1.7206543207721026e-01  7.5740708043036942e-01  9.9999709096966438e-01  9.9999884838077890e-01  9.9999933249838779e-01  9.9999956462758233e-01  9.9999968549279639e-01  9.9999975829206766e-01  9.9999980775475272e-01  9.9999984474472625e-01  9.9999987472839280e-01  9.9999990059745891e-01  9.9999992363396140e-01  9.9999994385235880e-01  9.9999996031155114e-01  9.9999997147077291e-01  9.9999993591922254e-01  2.4204493750749889e-06  1.2078651201820202e-06  1.2086989401440330e-06  1.2090089325408396e-06  1.2094084697352991e-06  1.2099283381525853e-06  1.2105672703824180e-06  1.2113214504274376e-06  1.2121854451965312e-06  1.2131531200117978e-06  1.2142172454828996e-06  1.2153707356712620e-06  1.2166050158606596e-06  1.2179080255680876e-06  1.2193043586562361e-06  1.2207233717711396e-06  1.2224481054613236e-06  1.2242411341151916e-06  1.2289482730736888e-06  1.2563734763981032e-06  1.3927334581983358e-06  1.9242760623628881e-06  2.8190635979655793e-02  5.0639962802105909e-01  9.9999340809803483e-01  9.9999855165254337e-01  9.9999923614025965e-01  9.9999951990001823e-01  9.9999966271609275e-01  9.9999974325200192e-01  9.9999979481536649e-01  9.9999983116282887e-01  9.9999985900747523e-01  9.9999988205274271e-01  9.9999990246157444e-01  9.9999992140767169e-01  9.9999993922591512e-01  9.9999995541096642e-01  9.9999996878705844e-01  9.9999997795593021e-01  9.9999995262448504e-01  2.4214073585995931e-06  1.2089278753235973e-06  1.2099250605168037e-06  1.2102583989541199e-06  1.2106787856886106e-06  1.2112235340590189e-06  1.2118904532869392e-06  1.2126739405645648e-06  1.2135672632307221e-06  1.2145649165589702e-06  1.2156578666457026e-06  1.2168395712715806e-06  1.2180790266756657e-06  1.2194217130269939e-06  1.2209493957145877e-06  1.2227639769565864e-06  1.2251801433359737e-06  1.2321531100501043e-06  1.3202829019787497e-06  1.5795485560716516e-06  3.5968651521858865e-06  2.3773562657822150e-01  8.9936401433111246e-01  9.9999786994090889e-01  9.9999904359165048e-01  9.9999943182914230e-01  9.9999961929661296e-01  9.9999971675240051e-01  9.9999977536596329e-01  9.9999981420853923e-01  9.9999984194737424e-01  9.9999986316724077e-01  9.9999988056994082e-01  9.9999989588626015e-01  9.9999991025244372e-01  9.9999992432959983e-01  9.9999993827632749e-01  9.9999995163279765e-01  9.9999996339612673e-01  9.9999997200233803e-01  9.9999994521798852e-01  2.4224454709240061e-06  1.2100868647650877e-06  1.2112679454517892e-06  1.2116347547719238e-06  1.2120881409553602e-06  1.2126711802573914e-06  1.2133796471023447e-06  1.2142059371319235e-06  1.2151413889753737e-06  1.2161757074912090e-06  1.2172977364703388e-06  1.2185276714801207e-06  1.2198106935564438e-06  1.2213477517757089e-06  1.2230571238875467e-06  1.2275179841421693e-06  1.2559346823576181e-06  1.3971826696913575e-06  1.9679999543510991e-06  4.4419953295363496e-02  5.6595967447335938e-01  9.9999538575201596e-01  9.9999868720833318e-01  9.9999929281149469e-01  9.9999955317744438e-01  9.9999967973330972e-01  9.9999975104824057e-01  9.9999979579543175e-01  9.9999982594833647e-01  9.9999984741104364e-01  9.9999986344316016e-01  9.9999987603572105e-01  9.9999988650985827e-01  9.9999989579948967e-01  9.9999990456484067e-01  9.9999991320448656e-01  9.9999992178138641e-01  9.9999992993527842e-01  9.9999993686288124e-01  9.9999994055503605e-01  9.9999989447634863e-01  2.4235473685903062e-06  1.2113272593017714e-06  1.2127149038362214e-06  1.2131314218297569e-06  1.2136370055045339e-06  1.2142792883208103e-06  1.2150519759279347e-06  1.2159418132050072e-06  1.2169314024712520e-06  1.2179956316229433e-06  1.2191942750126064e-06  1.2205990532969008e-06  1.2221687282230949e-06  1.2241157811768120e-06  1.2312635498002932e-06  1.3187185226606730e-06  1.5803338318523529e-06  3.7084553877750790e-06  2.5026722366970428e-01  9.3044535887392477e-01  9.9999798215101343e-01  9.9999908385357050e-01  9.9999945299207427e-01  9.9999962909024953e-01  9.9999972066384635e-01  9.9999977508306148e-01  9.9999981014675887e-01  9.9999983390713143e-01  9.9999985052386064e-01  9.9999986235695260e-01  9.9999987083867259e-01  9.9999987688182734e-01  9.9999988107141158e-01  9.9999988373269222e-01  9.9999988488989200e-01  9.9999988408197971e-01  9.9999987985372241e-01  9.9999986842763489e-01  9.9999983880429855e-01  9.9999976278106295e-01  9.9999947216561502e-01  2.4246851663463370e-06  1.2126231161588761e-06  1.2142429281262827e-06  1.2147356635203038e-06  1.2153258751270229e-06  1.2160619598021108e-06  1.2169273483497546e-06  1.2179007094893400e-06  1.2189847922547138e-06  1.2201332280708374e-06  1.2214939504274009e-06  1.2231325287260919e-06  1.2271564649106133e-06  1.2529773705896016e-06  1.3909037473222859e-06  1.9524994247671399e-06  4.2144729268061482e-02  5.6890310635062102e-01  9.9999554255002421e-01  9.9999870233449650e-01  9.9999930052759967e-01  9.9999955793101780e-01  9.9999968134803952e-01  9.9999975037879507e-01  9.9999979304188891e-01  9.9999982095874529e-01  9.9999983978052298e-01  9.9999985252000267e-01  9.9999986088666015e-01  9.9999986586595291e-01  9.9999986798845286e-01  9.9999986743286129e-01  9.9999986400947982e-01  9.9999985698341864e-01  9.9999984457686353e-01  9.9999982259724418e-01  9.9999978005168921e-01  9.9999968272062623e-01  9.9999939119044357e-01  9.9999188390885518e-01  5.9900097085302658e-06  2.4258111670566166e-06  1.2139298216591837e-06  1.2158134081031326e-06  1.2164299678282215e-06  1.2171596180765775e-06  1.2180329555731360e-06  1.2190234647744925e-06  1.2201805038465005e-06  1.2215401784789433e-06  1.2228663173037770e-06  1.2243820642333771e-06  1.2315470360226168e-06  1.3161381744405052e-06  1.5651478187497712e-06  3.4801846997315682e-06  2.3964604231743253e-01  9.2214239113005658e-01  9.9999796737060231e-01  9.9999908247234826e-01  9.9999945301419391e-01  9.9999962863573733e-01  9.9999971951044686e-01  9.9999977306332399e-01  9.9999980704744729e-01  9.9999982944889187e-01  9.9999984431822753e-01  9.9999985386145529e-01  9.9999985929960222e-01  9.9999986125670859e-01  9.9999985992063856e-01  9.9999985506254796e-01  9.9999984591149949e-01  9.9999983079055499e-01  9.9999980618461282e-01  9.9999976417646452e-01  9.9999968379492721e-01  9.9999950434852225e-01  9.9999894968696745e-01  9.3461723801285446e-01  2.5509685072286477e-06  2.5322151117966412e-06  2.4268460490050139e-06  1.2151737287766454e-06  1.2173653758335133e-06  1.2181834250526867e-06  1.2191348002276421e-06  1.2202425358115296e-06  1.2214582301828718e-06  1.2228766244132607e-06  1.2246522457817968e-06  1.2280376430516144e-06  1.2497636470880476e-06  1.3808801937651223e-06  1.9135832484813608e-06  3.2257771359801075e-02  5.4966306208036031e-01  9.9999527128129884e-01  9.9999868406648385e-01  9.9999929528600084e-01  9.9999955540353092e-01  9.9999967957074409e-01  9.9999974859382801e-01  9.9999979092256075e-01  9.9999981826173256e-01  9.9999983625161770e-01  9.9999984785050400e-01  9.9999985467167429e-01  9.9999985755471144e-01  9.9999985681815617e-01  9.9999985233587541e-01  9.9999984347579907e-01  9.9999982885055605e-01  9.9999980570686497e-01  9.9999976838677196e-01  9.9999970403243710e-01  9.9999957744438250e-01  9.9999929788407604e-01  9.9999834696744727e-01  7.7623547997326170e-01  6.9353534334173590e-06  1.3370452249777706e-06  2.4799872055272077e-06  2.4276647773941766e-06  1.2162344799142526e-06  1.2187908002006297e-06  1.2199512871051907e-06  1.2213549494540749e-06  1.2229749455652550e-06  1.2243638628395283e-06  1.2260240515104196e-06  1.2335116847434643e-06  1.3132570750863231e-06  1.5421105127897249e-06  3.1486101328682326e-06  2.1898618024042646e-01  8.9875460690073883e-01  9.9999791072797051e-01  9.9999906899849333e-01  9.9999944751927994e-01  9.9999962602620263e-01  9.9999971773498908e-01  9.9999977145536445e-01  9.9999980530455246e-01  9.9999982737229176e-01  9.9999984172066991e-01  9.9999985052428886e-01  9.9999985494208488e-01  9.9999985550191284e-01  9.9999985225000987e-01  9.9999984475227277e-01  9.9999983194536080e-01  9.9999981173917607e-01  9.9999978008125912e-01  9.9999972854684527e-01  9.9999963704849493e-01  9.9999944609396019e-01  9.9999901073823960e-01  9.9999705526436156e-01  5.5640473116625733e-01  6.4159650170138571e-06  1.4737911081795108e-06  1.2408846573361168e-06  2.4209822030826760e-06  2.4280604657818200e-06  1.2169142951635163e-06  1.2199508630133312e-06  1.2217416728546779e-06  1.2239065199220365e-06  1.2263506046725200e-06  1.2290529710512135e-06  1.2462848199476777e-06  1.3670866484061748e-06  1.8556647204293210e-06  1.6982527972110781e-02  5.1904802897170510e-01  9.9999474823282009e-01  9.9999865534183097e-01  9.9999928728746312e-01  9.9999955165574050e-01  9.9999967768051257e-01  9.9999974730562891e-01  9.9999978977963100e-01  9.9999981704375696e-01  9.9999983481642196e-01  9.9999984607150649e-01  9.9999985240596645e-01  9.9999985462009089e-01  9.9999985297072114e-01  9.9999984724220337e-01  9.9999983667556391e-01  9.9999981970970686e-01  9.9999979337693623e-01  9.9999975184241896e-01  9.9999968260483685e-01  9.9999955393997142e-01  9.9999928060702414e-01  9.9999855542385252e-01  9.9998882004539846e-01  3.1649317536296112e-01  3.3754893706596454e-06  1.4617508957701772e-06  1.2569600925651978e-06  1.2116106554404101e-06  2.4188430901361096e-06  2.4277138749391565e-06  1.2169616938812165e-06  1.2206893116347230e-06  1.2233548919766548e-06  1.2271003745898771e-06  1.2350727927095847e-06  1.2992664690152358e-06  1.4983329451556307e-06  2.7429754812852978e-06  1.8645502083177412e-01  8.6410615878237940e-01  9.9999783265986142e-01  9.9999905315766158e-01  9.9999944187210776e-01  9.9999962407472265e-01  9.9999971684031186e-01  9.9999977086493863e-01  9.9999980474714767e-01  9.9999982672008847e-01  9.9999984089134053e-01  9.9999984944407028e-01  9.9999985352649434e-01  9.9999985364189981e-01  9.9999984979802303e-01  9.9999984150677013e-01  9.9999982763332518e-01  9.9999980600017468e-01  9.9999977247820704e-01  9.9999971870847071e-01  9.9999962552037047e-01  9.9999943950502868e-01  9.9999903696483794e-01  9.9999768038290693e-01  7.9298166724218866e-01  1.1722462600813152e-01  2.1785799789383293e-06  1.3951501010772582e-06  1.2498259831785094e-06  1.2211477298806215e-06  1.2137467228536610e-06  2.4231481631245977e-06  2.4262802357225745e-06  1.2160478826074197e-06  1.2207049537628433e-06  1.2254393862473087e-06  1.2400995038977920e-06  1.3405058899746145e-06  1.7367747771324879e-06  2.1862615084124853e-05  4.641294846