<?xml version="1.0"?>
<VTKFile type="UnstructuredGrid"  version="0.1"  >
<UnstructuredGrid>
<Piece  NumberOfPoints="1681" NumberOfCells="3200">
<Points>
<DataArray  type="Float64"  NumberOfComponents="3"  format="ascii">0 0 0  0.025 0 0  0.05 0 0  0.075 0 0  0.1 0 0  0.125 0 0  0.15 0 0  0.175 0 0  0.2 0 0  0.225 0 0  0.25 0 0  0.275 0 0  0.3 0 0  0.325 0 0  0.35 0 0  0.375 0 0  0.4 0 0  0.425 0 0  0.45 0 0  0.475 0 0  0.5 0 0  0.525 0 0  0.55 0 0  0.575 0 0  0.6 0 0  0.625 0 0  0.65 0 0  0.675 0 0  0.7 0 0  0.725 0 0  0.75 0 0  0.775 0 0  0.8 0 0  0.825 0 0  0.85 0 0  0.875 0 0  0.9 0 0  0.925 0 0  0.95 0 0  0.975 0 0  1 0 0  0 0.025 0  0.025 0.025 0  0.05 0.025 0  0.075 0.025 0  0.1 0.025 0  0.125 0.025 0  0.15 0.025 0  0.175 0.025 0  0.2 0.025 0  0.225 0.025 0  0.25 0.025 0  0.275 0.025 0  0.3 0.025 0  0.325 0.025 0  0.35 0.025 0  0.375 0.025 0  0.4 0.025 0  0.425 0.025 0  0.45 0.025 0  0.475 0.025 0  0.5 0.025 0  0.525 0.025 0  0.55 0.025 0  0.575 0.025 0  0.6 0.025 0  0.625 0.025 0  0.65 0.025 0  0.675 0.025 0  0.7 0.025 0  0.725 0.025 0  0.75 0.025 0  0.775 0.025 0  0.8 0.025 0  0.825 0.025 0  0.85 0.025 0  0.875 0.025 0  0.9 0.025 0  0.925 0.025 0  0.95 0.025 0  0.975 0.025 0  1 0.025 0  0 0.05 0  0.025 0.05 0  0.05 0.05 0  0.075 0.05 0  0.1 0.05 0  0.125 0.05 0  0.15 0.05 0  0.175 0.05 0  0.2 0.05 0  0.225 0.05 0  0.25 0.05 0  0.275 0.05 0  0.3 0.05 0  0.325 0.05 0  0.35 0.05 0  0.375 0.05 0  0.4 0.05 0  0.425 0.05 0  0.45 0.05 0  0.475 0.05 0  0.5 0.05 0  0.525 0.05 0  0.55 0.05 0  0.575 0.05 0  0.6 0.05 0  0.625 0.05 0  0.65 0.05 0  0.675 0.05 0  0.7 0.05 0  0.725 0.05 0  0.75 0.05 0  0.775 0.05 0  0.8 0.05 0  0.825 0.05 0  0.85 0.05 0  0.875 0.05 0  0.9 0.05 0  0.925 0.05 0  0.95 0.05 0  0.975 0.05 0  1 0.05 0  0 0.075 0  0.025 0.075 0  0.05 0.075 0  0.075 0.075 0  0.1 0.075 0  0.125 0.075 0  0.15 0.075 0  0.175 0.075 0  0.2 0.075 0  0.225 0.075 0  0.25 0.075 0  0.275 0.075 0  0.3 0.075 0  0.325 0.075 0  0.35 0.075 0  0.375 0.075 0  0.4 0.075 0  0.425 0.075 0  0.45 0.075 0  0.475 0.075 0  0.5 0.075 0  0.525 0.075 0  0.55 0.075 0  0.575 0.075 0  0.6 0.075 0  0.625 0.075 0  0.65 0.075 0  0.675 0.075 0  0.7 0.075 0  0.725 0.075 0  0.75 0.075 0  0.775 0.075 0  0.8 0.075 0  0.825 0.075 0  0.85 0.075 0  0.875 0.075 0  0.9 0.075 0  0.925 0.075 0  0.95 0.075 0  0.975 0.075 0  1 0.075 0  0 0.1 0  0.025 0.1 0  0.05 0.1 0  0.075 0.1 0  0.1 0.1 0  0.125 0.1 0  0.15 0.1 0  0.175 0.1 0  0.2 0.1 0  0.225 0.1 0  0.25 0.1 0  0.275 0.1 0  0.3 0.1 0  0.325 0.1 0  0.35 0.1 0  0.375 0.1 0  0.4 0.1 0  0.425 0.1 0  0.45 0.1 0  0.475 0.1 0  0.5 0.1 0  0.525 0.1 0  0.55 0.1 0  0.575 0.1 0  0.6 0.1 0  0.625 0.1 0  0.65 0.1 0  0.675 0.1 0  0.7 0.1 0  0.725 0.1 0  0.75 0.1 0  0.775 0.1 0  0.8 0.1 0  0.825 0.1 0  0.85 0.1 0  0.875 0.1 0  0.9 0.1 0  0.925 0.1 0  0.95 0.1 0  0.975 0.1 0  1 0.1 0  0 0.125 0  0.025 0.125 0  0.05 0.125 0  0.075 0.125 0  0.1 0.125 0  0.125 0.125 0  0.15 0.125 0  0.175 0.125 0  0.2 0.125 0  0.225 0.125 0  0.25 0.125 0  0.275 0.125 0  0.3 0.125 0  0.325 0.125 0  0.35 0.125 0  0.375 0.125 0  0.4 0.125 0  0.425 0.125 0  0.45 0.125 0  0.475 0.125 0  0.5 0.125 0  0.525 0.125 0  0.55 0.125 0  0.575 0.125 0  0.6 0.125 0  0.625 0.125 0  0.65 0.125 0  0.675 0.125 0  0.7 0.125 0  0.725 0.125 0  0.75 0.125 0  0.775 0.125 0  0.8 0.125 0  0.825 0.125 0  0.85 0.125 0  0.875 0.125 0  0.9 0.125 0  0.925 0.125 0  0.95 0.125 0  0.975 0.125 0  1 0.125 0  0 0.15 0  0.025 0.15 0  0.05 0.15 0  0.075 0.15 0  0.1 0.15 0  0.125 0.15 0  0.15 0.15 0  0.175 0.15 0  0.2 0.15 0  0.225 0.15 0  0.25 0.15 0  0.275 0.15 0  0.3 0.15 0  0.325 0.15 0  0.35 0.15 0  0.375 0.15 0  0.4 0.15 0  0.425 0.15 0  0.45 0.15 0  0.475 0.15 0  0.5 0.15 0  0.525 0.15 0  0.55 0.15 0  0.575 0.15 0  0.6 0.15 0  0.625 0.15 0  0.65 0.15 0  0.675 0.15 0  0.7 0.15 0  0.725 0.15 0  0.75 0.15 0  0.775 0.15 0  0.8 0.15 0  0.825 0.15 0  0.85 0.15 0  0.875 0.15 0  0.9 0.15 0  0.925 0.15 0  0.95 0.15 0  0.975 0.15 0  1 0.15 0  0 0.175 0  0.025 0.175 0  0.05 0.175 0  0.075 0.175 0  0.1 0.175 0  0.125 0.175 0  0.15 0.175 0  0.175 0.175 0  0.2 0.175 0  0.225 0.175 0  0.25 0.175 0  0.275 0.175 0  0.3 0.175 0  0.325 0.175 0  0.35 0.175 0  0.375 0.175 0  0.4 0.175 0  0.425 0.175 0  0.45 0.175 0  0.475 0.175 0  0.5 0.175 0  0.525 0.175 0  0.55 0.175 0  0.575 0.175 0  0.6 0.175 0  0.625 0.175 0  0.65 0.175 0  0.675 0.175 0  0.7 0.175 0  0.725 0.175 0  0.75 0.175 0  0.775 0.175 0  0.8 0.175 0  0.825 0.175 0  0.85 0.175 0  0.875 0.175 0  0.9 0.175 0  0.925 0.175 0  0.95 0.175 0  0.975 0.175 0  1 0.175 0  0 0.2 0  0.025 0.2 0  0.05 0.2 0  0.075 0.2 0  0.1 0.2 0  0.125 0.2 0  0.15 0.2 0  0.175 0.2 0  0.2 0.2 0  0.225 0.2 0  0.25 0.2 0  0.275 0.2 0  0.3 0.2 0  0.325 0.2 0  0.35 0.2 0  0.375 0.2 0  0.4 0.2 0  0.425 0.2 0  0.45 0.2 0  0.475 0.2 0  0.5 0.2 0  0.525 0.2 0  0.55 0.2 0  0.575 0.2 0  0.6 0.2 0  0.625 0.2 0  0.65 0.2 0  0.675 0.2 0  0.7 0.2 0  0.725 0.2 0  0.75 0.2 0  0.775 0.2 0  0.8 0.2 0  0.825 0.2 0  0.85 0.2 0  0.875 0.2 0  0.9 0.2 0  0.925 0.2 0  0.95 0.2 0  0.975 0.2 0  1 0.2 0  0 0.225 0  0.025 0.225 0  0.05 0.225 0  0.075 0.225 0  0.1 0.225 0  0.125 0.225 0  0.15 0.225 0  0.175 0.225 0  0.2 0.225 0  0.225 0.225 0  0.25 0.225 0  0.275 0.225 0  0.3 0.225 0  0.325 0.225 0  0.35 0.225 0  0.375 0.225 0  0.4 0.225 0  0.425 0.225 0  0.45 0.225 0  0.475 0.225 0  0.5 0.225 0  0.525 0.225 0  0.55 0.225 0  0.575 0.225 0  0.6 0.225 0  0.625 0.225 0  0.65 0.225 0  0.675 0.225 0  0.7 0.225 0  0.725 0.225 0  0.75 0.225 0  0.775 0.225 0  0.8 0.225 0  0.825 0.225 0  0.85 0.225 0  0.875 0.225 0  0.9 0.225 0  0.925 0.225 0  0.95 0.225 0  0.975 0.225 0  1 0.225 0  0 0.25 0  0.025 0.25 0  0.05 0.25 0  0.075 0.25 0  0.1 0.25 0  0.125 0.25 0  0.15 0.25 0  0.175 0.25 0  0.2 0.25 0  0.225 0.25 0  0.25 0.25 0  0.275 0.25 0  0.3 0.25 0  0.325 0.25 0  0.35 0.25 0  0.375 0.25 0  0.4 0.25 0  0.425 0.25 0  0.45 0.25 0  0.475 0.25 0  0.5 0.25 0  0.525 0.25 0  0.55 0.25 0  0.575 0.25 0  0.6 0.25 0  0.625 0.25 0  0.65 0.25 0  0.675 0.25 0  0.7 0.25 0  0.725 0.25 0  0.75 0.25 0  0.775 0.25 0  0.8 0.25 0  0.825 0.25 0  0.85 0.25 0  0.875 0.25 0  0.9 0.25 0  0.925 0.25 0  0.95 0.25 0  0.975 0.25 0  1 0.25 0  0 0.275 0  0.025 0.275 0  0.05 0.275 0  0.075 0.275 0  0.1 0.275 0  0.125 0.275 0  0.15 0.275 0  0.175 0.275 0  0.2 0.275 0  0.225 0.275 0  0.25 0.275 0  0.275 0.275 0  0.3 0.275 0  0.325 0.275 0  0.35 0.275 0  0.375 0.275 0  0.4 0.275 0  0.425 0.275 0  0.45 0.275 0  0.475 0.275 0  0.5 0.275 0  0.525 0.275 0  0.55 0.275 0  0.575 0.275 0  0.6 0.275 0  0.625 0.275 0  0.65 0.275 0  0.675 0.275 0  0.7 0.275 0  0.725 0.275 0  0.75 0.275 0  0.775 0.275 0  0.8 0.275 0  0.825 0.275 0  0.85 0.275 0  0.875 0.275 0  0.9 0.275 0  0.925 0.275 0  0.95 0.275 0  0.975 0.275 0  1 0.275 0  0 0.3 0  0.025 0.3 0  0.05 0.3 0  0.075 0.3 0  0.1 0.3 0  0.125 0.3 0  0.15 0.3 0  0.175 0.3 0  0.2 0.3 0  0.225 0.3 0  0.25 0.3 0  0.275 0.3 0  0.3 0.3 0  0.325 0.3 0  0.35 0.3 0  0.375 0.3 0  0.4 0.3 0  0.425 0.3 0  0.45 0.3 0  0.475 0.3 0  0.5 0.3 0  0.525 0.3 0  0.55 0.3 0  0.575 0.3 0  0.6 0.3 0  0.625 0.3 0  0.65 0.3 0  0.675 0.3 0  0.7 0.3 0  0.725 0.3 0  0.75 0.3 0  0.775 0.3 0  0.8 0.3 0  0.825 0.3 0  0.85 0.3 0  0.875 0.3 0  0.9 0.3 0  0.925 0.3 0  0.95 0.3 0  0.975 0.3 0  1 0.3 0  0 0.325 0  0.025 0.325 0  0.05 0.325 0  0.075 0.325 0  0.1 0.325 0  0.125 0.325 0  0.15 0.325 0  0.175 0.325 0  0.2 0.325 0  0.225 0.325 0  0.25 0.325 0  0.275 0.325 0  0.3 0.325 0  0.325 0.325 0  0.35 0.325 0  0.375 0.325 0  0.4 0.325 0  0.425 0.325 0  0.45 0.325 0  0.475 0.325 0  0.5 0.325 0  0.525 0.325 0  0.55 0.325 0  0.575 0.325 0  0.6 0.325 0  0.625 0.325 0  0.65 0.325 0  0.675 0.325 0  0.7 0.325 0  0.725 0.325 0  0.75 0.325 0  0.775 0.325 0  0.8 0.325 0  0.825 0.325 0  0.85 0.325 0  0.875 0.325 0  0.9 0.325 0  0.925 0.325 0  0.95 0.325 0  0.975 0.325 0  1 0.325 0  0 0.35 0  0.025 0.35 0  0.05 0.35 0  0.075 0.35 0  0.1 0.35 0  0.125 0.35 0  0.15 0.35 0  0.175 0.35 0  0.2 0.35 0  0.225 0.35 0  0.25 0.35 0  0.275 0.35 0  0.3 0.35 0  0.325 0.35 0  0.35 0.35 0  0.375 0.35 0  0.4 0.35 0  0.425 0.35 0  0.45 0.35 0  0.475 0.35 0  0.5 0.35 0  0.525 0.35 0  0.55 0.35 0  0.575 0.35 0  0.6 0.35 0  0.625 0.35 0  0.65 0.35 0  0.675 0.35 0  0.7 0.35 0  0.725 0.35 0  0.75 0.35 0  0.775 0.35 0  0.8 0.35 0  0.825 0.35 0  0.85 0.35 0  0.875 0.35 0  0.9 0.35 0  0.925 0.35 0  0.95 0.35 0  0.975 0.35 0  1 0.35 0  0 0.375 0  0.025 0.375 0  0.05 0.375 0  0.075 0.375 0  0.1 0.375 0  0.125 0.375 0  0.15 0.375 0  0.175 0.375 0  0.2 0.375 0  0.225 0.375 0  0.25 0.375 0  0.275 0.375 0  0.3 0.375 0  0.325 0.375 0  0.35 0.375 0  0.375 0.375 0  0.4 0.375 0  0.425 0.375 0  0.45 0.375 0  0.475 0.375 0  0.5 0.375 0  0.525 0.375 0  0.55 0.375 0  0.575 0.375 0  0.6 0.375 0  0.625 0.375 0  0.65 0.375 0  0.675 0.375 0  0.7 0.375 0  0.725 0.375 0  0.75 0.375 0  0.775 0.375 0  0.8 0.375 0  0.825 0.375 0  0.85 0.375 0  0.875 0.375 0  0.9 0.375 0  0.925 0.375 0  0.95 0.375 0  0.975 0.375 0  1 0.375 0  0 0.4 0  0.025 0.4 0  0.05 0.4 0  0.075 0.4 0  0.1 0.4 0  0.125 0.4 0  0.15 0.4 0  0.175 0.4 0  0.2 0.4 0  0.225 0.4 0  0.25 0.4 0  0.275 0.4 0  0.3 0.4 0  0.325 0.4 0  0.35 0.4 0  0.375 0.4 0  0.4 0.4 0  0.425 0.4 0  0.45 0.4 0  0.475 0.4 0  0.5 0.4 0  0.525 0.4 0  0.55 0.4 0  0.575 0.4 0  0.6 0.4 0  0.625 0.4 0  0.65 0.4 0  0.675 0.4 0  0.7 0.4 0  0.725 0.4 0  0.75 0.4 0  0.775 0.4 0  0.8 0.4 0  0.825 0.4 0  0.85 0.4 0  0.875 0.4 0  0.9 0.4 0  0.925 0.4 0  0.95 0.4 0  0.975 0.4 0  1 0.4 0  0 0.425 0  0.025 0.425 0  0.05 0.425 0  0.075 0.425 0  0.1 0.425 0  0.125 0.425 0  0.15 0.425 0  0.175 0.425 0  0.2 0.425 0  0.225 0.425 0  0.25 0.425 0  0.275 0.425 0  0.3 0.425 0  0.325 0.425 0  0.35 0.425 0  0.375 0.425 0  0.4 0.425 0  0.425 0.425 0  0.45 0.425 0  0.475 0.425 0  0.5 0.425 0  0.525 0.425 0  0.55 0.425 0  0.575 0.425 0  0.6 0.425 0  0.625 0.425 0  0.65 0.425 0  0.675 0.425 0  0.7 0.425 0  0.725 0.425 0  0.75 0.425 0  0.775 0.425 0  0.8 0.425 0  0.825 0.425 0  0.85 0.425 0  0.875 0.425 0  0.9 0.425 0  0.925 0.425 0  0.95 0.425 0  0.975 0.425 0  1 0.425 0  0 0.45 0  0.02
[...]
<PointData  Scalars="ControlVisualisation"> 
<DataArray  type="Float64"  Name="ControlVisualisation"  format="ascii">1.1895217558918347e-01  7.9850114161754610e-02  8.0200512104438931e-02  8.0786454444174843e-02  8.1517897457710209e-02  8.2303121897316894e-02  8.3063704806589617e-02  8.3745859578400694e-02  8.4320254908323594e-02  8.4776253475243285e-02  8.5115266769247355e-02  8.5345374857038636e-02  8.5477684506009288e-02  8.5524127303251887e-02  8.5496260864094759e-02  8.5404707048446660e-02  8.5258968453522613e-02  8.5067453781780100e-02  8.4837605776632394e-02  8.4576067142777434e-02  8.4288847126073665e-02  8.3981468698343192e-02  8.3659087302749069e-02  8.3326578668662526e-02  8.2988597040987919e-02  8.2649607132172315e-02  8.2313893969914870e-02  8.1985555121949605e-02  8.1668479818169687e-02  8.1366319478414523e-02  8.1082454169467688e-02  8.0819959327593185e-02  8.0581577241242541e-02  8.0369695309506148e-02  8.0186338313952471e-02  8.0033158852963748e-02  7.9911491647952387e-02  7.9822228480591950e-02  7.9766335475899258e-02  7.9743096166635108e-02  2.2812586068338891e-01  7.9852720676052313e-02  4.1889160446320781e-02  4.2613552260732754e-02  4.3867015074184453e-02  4.5554868410369334e-02  4.7503971099786955e-02  4.9528528795932523e-02  5.1464258803504387e-02  5.3187049892704424e-02  5.4618909253407309e-02  5.5723382556991295e-02  5.6495923379551533e-02  5.6953479655821329e-02  5.7125565112980843e-02  5.7047599548403827e-02  5.6756458136124149e-02  5.6287812814875902e-02  5.5674766973346806e-02  5.4947333437499295e-02  5.4132402694301571e-02  5.3253950979823633e-02  5.2333327242255701e-02  5.1389527579002864e-02  5.0439415510884683e-02  4.9497879123812774e-02  4.8577935374730527e-02  4.7690801222165013e-02  4.6845953644142728e-02  4.6051198361834161e-02  4.5312761969316558e-02  4.4635415552852359e-02  4.4022630942287221e-02  4.3476764758344118e-02  4.2999259545189406e-02  4.2590854251587845e-02  4.2251777386236818e-02  4.1981949232111390e-02  4.1781082187130905e-02  4.1648473162590863e-02  4.1575669800177420e-02  7.9743096595737306e-02  8.0239439383654521e-02  4.2688224159187410e-02  4.3967616834787310e-02  4.5807452829808387e-02  4.8303520483833129e-02  5.1240026389402199e-02  5.4354267314696822e-02  5.7394328857309634e-02  6.0151621261039165e-02  6.2478690339515586e-02  6.4291793623917792e-02  6.5562768987540695e-02  6.6305570139019360e-02  6.6562044946302523e-02  6.6389695462521131e-02  6.5852488952206342e-02  6.5014707203020827e-02  6.3937292461100609e-02  6.2675997198834751e-02  6.1280698919670723e-02  5.9795380042212035e-02  5.8258426846766902e-02  5.6703035863895766e-02  5.5157618329775115e-02  5.3646162507967277e-02  5.2188554662191092e-02  5.0800878945136546e-02  4.9495721055781171e-02  4.8282495833001732e-02  4.7167809471874635e-02  4.6155856241955853e-02  4.5248839882413003e-02  4.4447403476790603e-02  4.3751047282006163e-02  4.3158520704584674e-02  4.2668152879578772e-02  4.2278174381035455e-02  4.1986578532222957e-02  4.1788833783110629e-02  4.1648607516443406e-02  7.9766374110699922e-02  8.1008552418296659e-02  4.4351960385389883e-02  4.6391059787088199e-02  4.8465219194252895e-02  5.1139035394729276e-02  5.4212183026424457e-02  5.7411749735362082e-02  6.0482605445771956e-02  6.3218304530498287e-02  6.5476717935424700e-02  6.7181758800662253e-02  6.8314209410210158e-02  6.8897034707958826e-02  6.8980200763330460e-02  6.8627952186986585e-02  6.7909557929268213e-02  6.6893330490202893e-02  6.5643215493995183e-02  6.4217166412196769e-02  6.2666632123554084e-02  6.1036658012893874e-02  5.9366269002877954e-02  5.7688939152859942e-02  5.6033051018226615e-02  5.4422311786160235e-02  5.2876129349594764e-02  5.1409967471633330e-02  5.0035702019785556e-02  4.8761995306946714e-02  4.7594696846864556e-02  4.6537269381532242e-02  4.5591230698368165e-02  4.4756596474769650e-02  4.4032305362908405e-02  4.3416614126558270e-02  4.2907426457724482e-02  4.2502570854446149e-02  4.2199270197661676e-02  4.1987928662355047e-02  4.1782051924000307e-02  7.9822571360611411e-02  8.2248630751707075e-02  4.7304073509119651e-02  5.1011941804291736e-02  5.3391917834742356e-02  5.6131740960882776e-02  5.9147834760667914e-02  6.2193565654738096e-02  6.5020079088903074e-02  6.7433978048128188e-02  6.9316132833927735e-02  7.0618631691644562e-02  7.1349059005798979e-02  7.1551224769354937e-02  7.1288327106816388e-02  7.0630823498377876e-02  6.9648883053537503e-02  6.8408316873855263e-02  6.6968786957757140e-02  6.5383341619830698e-02  6.3698626691647178e-02  6.1955371031511969e-02  6.0188923791856225e-02  5.8429739193441771e-02  5.6703777520381957e-02  5.5032831511121420e-02  5.3434805828383211e-02  5.1923981582075937e-02  5.0511293728353154e-02  4.9204640427090704e-02  4.8009232898076265e-02  4.6927983919700170e-02  4.5961924230624437e-02  4.5110630338664463e-02  4.4372642565007281e-02  4.3745858635546538e-02  4.3227857619814174e-02  4.2816134941109280e-02  4.2507042467838742e-02  4.2283809874291041e-02  4.1985641184578940e-02  7.9912942602423154e-02  8.3767877730696993e-02  5.3230229044429631e-02  6.0486204704113748e-02  6.3101983292733421e-02  6.5414230298025344e-02  6.7875242230374000e-02  7.0291118731573510e-02  7.2407381248896938e-02  7.4048211652891882e-02  7.5132443963558393e-02  7.5656111891304612e-02  7.5663341350693331e-02  7.5220984025548748e-02  7.4401852789601236e-02  7.3275752771834901e-02  7.1905733939761352e-02  7.0347244213833648e-02  6.8648632443022259e-02  6.6852112932002064e-02  6.4994740512783561e-02  6.3109202619250640e-02  6.1224377007932859e-02  5.9365676620256345e-02  5.7555235589366746e-02  5.5811999470714725e-02  5.4151778891866523e-02  5.2587315267556820e-02  5.1128393634238559e-02  4.9782023255091581e-02  4.8552692682717988e-02  4.7442693606680880e-02  4.6452497724441190e-02  4.5581164653353400e-02  4.4826753928004864e-02  4.4186721198488398e-02  4.3658243064008284e-02  4.3238405108156505e-02  4.2922423313342478e-02  4.2683884363252093e-02  4.2261987078585500e-02  8.0037376456037285e-02  9.1700422081007343e-02  6.8625758045448570e-02  8.4105511182158421e-02  8.4973312067179035e-02  8.4503826939960808e-02  8.4417727272149842e-02  8.4564023762840279e-02  8.4640957638452169e-02  8.4441226411752779e-02  8.3881817306693543e-02  8.2968519467161134e-02  8.1749545939466206e-02  8.0283598174652068e-02  7.8624768024939354e-02  7.6818314793392684e-02  7.4901266049364909e-02  7.2904412232432006e-02  7.0854275185990384e-02  6.8774614551524088e-02  6.6687409656870159e-02  6.4613377296666732e-02  6.2572124369603646e-02  6.0582044167869706e-02  5.8660060942451075e-02  5.6821314748034826e-02  5.5078861094762711e-02  5.3443440789299468e-02  5.1923356045061181e-02  5.0524470765405290e-02  4.9250336265745737e-02  4.8102429543118733e-02  4.7080480026312946e-02  4.6182854257554189e-02  4.5406963117621414e-02  4.4749664647137144e-02  4.4207593102227188e-02  4.3777286348012770e-02  4.3452458479293993e-02  4.3194283355028160e-02  4.2614093629822172e-02  8.0196144426022672e-02  1.7067676375087359e-01  1.3670968950945186e-01  1.5827353696454738e-01  1.4037466986715735e-01  1.2701129787448284e-01  1.1719997222548703e-01  1.1019784903986626e-01  1.0487467512488621e-01  1.0051095534463661e-01  9.6706652746390009e-02  9.3256373463172879e-02  9.0054294911862870e-02  8.7040024483979822e-02  8.4173159193680860e-02  8.1423504776325623e-02  7.8768103728856551e-02  7.6190488484073379e-02  7.3680306640404022e-02  7.1232802839680240e-02  6.8848102344299597e-02  6.6530340069252653e-02  6.4286688264777639e-02  6.2126338989146365e-02  6.0059501414894398e-02  5.8096473470322783e-02  5.6246840468230537e-02  5.4518841567819623e-02  5.2918929858707463e-02  5.1451535195986359e-02  5.0119022053244200e-02  4.8921819226499921e-02  4.7858685796348055e-02  4.6927070791640962e-02  4.6123519338340094e-02  4.5444088410392366e-02  4.4884683987569889e-02  4.4441111700083316e-02  4.4105135956133266e-02  4.3822401309774828e-02  4.3045705763726599e-02  8.0389375933680035e-02  4.8248060664445575e-01  4.1526082047640117e-01  3.4441936918277105e-01  2.6428617283697098e-01  2.1380589293760610e-01  1.7795093805118639e-01  1.5373380426363903e-01  1.3663204757437775e-01  1.2409688726897110e-01  1.1455613639313283e-01  1.0702557535718346e-01  1.0087468843465508e-01  9.5692191645732325e-02  9.1204524300489809e-02  8.7225580112756995e-02  8.3625812724241855e-02  8.0313822075589097e-02  7.7225356462868738e-02  7.4316325600309222e-02  7.1557944078195268e-02  6.8933069920682197e-02  6.6433271907028954e-02  6.4056385985788916e-02  6.1804441226581547e-02  5.9681903389148347e-02  5.7694221079538248e-02  5.5846675950210860e-02  5.4143540628446132e-02  5.2587540236174832e-02  5.1179599158190502e-02  4.9918838099081993e-02  4.8802771376276179e-02  4.7827645560099399e-02  4.6988855359353598e-02  4.6281385421937542e-02  4.5700164490467307e-02  4.5240025460567372e-02  4.4890241703467747e-02  4.4577361051178675e-02  4.3561380663617033e-02  8.0617162995447980e-02  6.6901217810318336e-01  6.4456183437230252e-01  5.2765962854500681e-01  4.1894126532724113e-01  3.3239131294070529e-01  2.6458520202260749e-01  2.1597384321010632e-01  1.8083961339981677e-01  1.5555810991187619e-01  1.3737500586846460e-01  1.2408637821195319e-01  1.1404641498884401e-01  1.0615175722347561e-01  9.9704156515539155e-02  9.4264206815388621e-02  8.9548313953312419e-02  8.5366891362475827e-02  8.1589667827339576e-02  7.8126249063682096e-02  7.4914539974424918e-02  7.1913164656227338e-02  6.9096038307881344e-02  6.6448212650942751e-02  6.3962558393024213e-02  6.1637061104890908e-02  5.9472618929275661e-02  5.7471291805125641e-02  5.5634981613517195e-02  5.3964529657323082e-02  5.2459207985858777e-02  5.1116561386961565e-02  4.9932534990430585e-02  4.8901807588192597e-02  4.8018242304265574e-02  4.7275381727667466e-02  4.6666839433438842e-02  4.6186162588162168e-02  4.5819477272607025e-02  4.5470085237200850e-02  4.4166484001990830e-02  8.0879477544010897e-02  7.1684260367272601e-01  7.2087643243241395e-01  6.1251923289518706e-01  5.1361815930888743e-01  4.1931078027881397e-01  3.4082321730146425e-01  2.7779348632953438e-01  2.2822072077044023e-01  1.9058371098183463e-01  1.6297314913110161e-01  1.4310924611232506e-01  1.2869058497854904e-01  1.1785898377463687e-01  1.0935161407202311e-01  1.0238970860119542e-01  9.6500470309822228e-02  9.1386773304636529e-02  8.6852710920086840e-02  8.2764359560599049e-02  7.9028876591223152e-02  7.5582428542571925e-02  7.2382371409310781e-02  6.9401625531985298e-02  6.6624319421942579e-02  6.4042269717886333e-02  6.1652092749691287e-02  5.9452860602556744e-02  5.7444276061719174e-02  5.5625364557160217e-02  5.3993674675102993e-02  5.2544950790430062e-02  5.1273204112112919e-02  5.0171078186796628e-02  4.9230386231634407e-02  4.8442714497069564e-02  4.7799895071188994e-02  4.7293780482627876e-02  4.6906555940535111e-02  4.6513392703239946e-02  4.4867199755438944e-02  8.1176140273754804e-02  6.6337975311070108e-01  6.7286575772533497e-01  5.9088385234510366e-01  5.1868219648176628e-01  4.4078725621438958e-01  3.7238626793321228e-01  3.1198005128057199e-01  2.6017881838359047e-01  2.1815258985999100e-01  1.8558269307549363e-01  1.6116495179591736e-01  1.4315835816025874e-01  1.2977401028289556e-01  1.1947964929551409e-01  1.1120155826532527e-01  1.0427601281048776e-01  9.8303809687395577e-02  9.3036231195829280e-02  8.8309914875225742e-02  8.4013294928129423e-02  8.0069184792934664e-02  7.6424883196249724e-02  7.3045730035056294e-02  6.9910327118436963e-02  6.7006664807939098e-02  6.4328846143483706e-02  6.1874310855837236e-02  5.9641567091412349e-02  5.7628482972731550e-02  5.5831185471777144e-02  5.4243569891271798e-02  5.2857356201958958e-02  5.1662565676938547e-02  5.0648247872132408e-02  4.9803301151573609e-02  4.9117119020923930e-02  4.8579322866653049e-02  4.8167209127331884e-02  4.7722012584322925e-02  4.5670492235978445e-02  8.1506774721684522e-02  4.4398871742400281e-01  4.9445316974328812e-01  4.6814523776742140e-01  4.3908156612428711e-01  3.9542563109371065e-01  3.5085686712428654e-01  3.0625896923965240e-01  2.6441957814834827e-01  2.2797659646533802e-01  1.9793699095157313e-01  1.7390186003078378e-01  1.5504787029424155e-01  1.4048643426885096e-01  1.2916748133053502e-01  1.2008094917890483e-01  1.1248302457932668e-01  1.0590489814050574e-01  1.0006403056576287e-01  9.4786138289892241e-02  8.9958630762638589e-02  8.5506262224484764e-02  8.1378589086738451e-02  7.7542937123386280e-02  7.3979750232284799e-02  7.0678924328221565e-02  6.7636574518048970e-02  6.4852092869786784e-02  6.2325560442666801e-02  6.0055671533718338e-02  5.8038335617694795e-02  5.6266055272875655e-02  5.4728060081878915e-02  5.3411052482330329e-02  5.2300327535525222e-02  5.1381027837120258e-02  5.0639156353530973e-02  5.0061393721463524e-02  4.9619042245231629e-02  4.9112447201778708e-02  4.6583982817410219e-02  8.1870756356318020e-02  1.4107904127436172e-01  2.2024309745545093e-01  2.9509806858229609e-01  3.0807829657979086e-01  3.0268718283804857e-01  2.8769756905300747e-01  2.6628001369843368e-01  2.4207247404535814e-01  2.1821626675964054e-01  1.9665351068058842e-01  1.7786879311671439e-01  1.6178722695546002e-01  1.4835273381932126e-01  1.3735179254159130e-01  1.2828626439949961e-01  1.2059367202864459e-01  1.1383793889092333e-01  1.0773799294268695e-01  1.0212567693715757e-01  9.6901812666043557e-02  9.2007605030320655e-02  8.7408864673456779e-02  8.3087667305671797e-02  7.9037570819715769e-02  7.5260218466188494e-02  7.1762297949550163e-02  6.8552511794154225e-02  6.5638627931768251e-02  6.3024912379495659e-02  6.0710316362319897e-02  5.8687704150229843e-02  5.6944201630186472e-02  5.5462504002224418e-02  5.4222787251151129e-02  5.3204836977333386e-02  5.2389835151481816e-02  5.1760563710002191e-02  5.1281092868602239e-02  5.0702514042468436e-02  4.7615636179235706e-02  8.2267133119930808e-02  9.1556725274280326e-02  9.5392474243953418e-02  1.6167604904696001e-01  1.8664015683988885e-01  2.0258668785947576e-01  2.0990721211203595e-01  2.0957121258539460e-01  2.0352618043181428e-01  1.9415501272661961e-01  1.8349071686114693e-01  1.7259150059096917e-01  1.6194035312706953e-01  1.5194309343904391e-01  1.4294537624301296e-01  1.3502451194233359e-01  1.2800910906649401e-01  1.2165101249167114e-01  1.1574302704527950e-01  1.1014875744289816e-01  1.0479117293879452e-01  9.9633749824492621e-02  9.4665922348789205e-02  8.9894002624236136e-02  8.5335742463702693e-02  8.1016589568179365e-02  7.6966298564286481e-02  7.3215244732627194e-02  6.9790418079824501e-02  6.6711577793800866e-02  6.3988312786995044e-02  6.1618694521643334e-02  5.9589844349839140e-02  5.7880240004843965e-02  5.6463165963208044e-02  5.5310607741155413e-02  5.4396682179048902e-02  5.3698918480279037e-02  5.3172855666517908e-02  5.2510270016542231e-02  4.8773070273774331e-02  8.2694478621442705e-02  8.7239818791365636e-02  6.8810048383980416e-02  1.0162500213680398e-01  1.1880511878114014e-01  1.3372233623376789e-01  1.4627997750704005e-01  1.5570266253501513e-01  1.6132911113775386e-01  1.6338997491912832e-01  1.6269836877205715e-01  1.5999692121182021e-01  1.5583062168053027e-01  1.5070568247432653e-01  1.4514474369408947e-01  1.3954810805159062e-01  1.3410321454551344e-01  1.2882904181214072e-01  1.2366965977665112e-01  1.1856122836593515e-01  1.1346087343188427e-01  1.0835270140113835e-01  1.0324507432003258e-01  9.8166220511569202e-02  9.3160348804001356e-02  8.8284127405858531e-02  8.3602640004428991e-02  7.9184047447540373e-02  7.5092841785682679e-02  7.1382495291010026e-02  6.8089056657192296e-02  6.5227388660061433e-02  6.2791110170957634e-02  6.0756202963749735e-02  5.9087219180133960e-02  5.7744673768560240e-02  5.6691959284801412e-02  5.5899276083417944e-02  5.5312401657866272e-02  5.4551795252237675e-02  5.0062164209601911e-02  8.3150604834276720e-02  8.5820859589040524e-02  6.0092282124387289e-02  7.6761579080921724e-02  8.6396892164416206e-02  9.6697193282093918e-02  1.0742500796642010e-01  1.1780526300162422e-01  1.2699020198165883e-01  1.3447918873441830e-01  1.4006324534058678e-01  1.4367623286054462e-01  1.4535578423452994e-01  1.4528779405687739e-01  1.4382539077088635e-01  1.4138582242053482e-01  1.3831637944635289e-01  1.3483363450283556e-01  1.3103972531108490e-01  1.2696797928826617e-01  1.2262361423461414e-01  1.1800970758772963e-01  1.1314112294958559e-01  1.0805148384515105e-01  1.0279668791185820e-01  9.7456191106110826e-02  9.2131524406798920e-02  8.6940710526937401e-02  8.2007760947375788e-02  7.7448211252172938e-02  7.3353871878025639e-02  6.9781210672514915e-02  6.6746973530397075e-02  6.4232078312006974e-02  6.2192019618857688e-02  6.0570802210379540e-02  5.9315061404742839e-02  5.8384148040333955e-02  5.7713058025675841e-02  5.6836954184294568e-02  5.1484433844593752e-02  8.3632020461134743e-02  8.4224460806640922e-02  5.4114106244835550e-02  6.3601442105415962e-02  6.9475714069722250e-02  7.6687303175921984e-02  8.5297022875579775e-02  9.4718302932789669e-02  1.0416704531445614e-01  1.1309304778730263e-01  1.2114813888072833e-01  1.2804948521864454e-01  1.3352881562202115e-01  1.3741111290614968e-01  1.3970489950211729e-01  1.4059473027173736e-01  1.4034757677284188e-01  1.3921178407396115e-01  1.3736445809795034e-01  1.3490743080840975e-01  1.3188749345506373e-01  1.2832125483235918e-01  1.2421636951598072e-01  1.1958822610555427e-01  1.1447374803436688e-01  1.0894340669793812e-01  1.0311032650918051e-01  9.7132873826853400e-02  9.1206181188592139e-02  8.5540416333882957e-02  8.0329322808686376e-02  7.5718701934731653e-02  7.1786312315150591e-02  6.8539877504957436e-02  6.5931838074765811e-02  6.3884507611646671e-02  6.2318248495222432e-02  6.1175014060435781e-02  6.0378008631578134e-02  5.9361708775578524e-02  5.3032371282487625e-02  8.4132984901870850e-02  8.2849815948925459e-02  4.9914480580395479e-02  5.5771432057334591e-02  5.9777609239589025e-02  6.5164455889001563e-02  7.2106969766079290e-02  8.0303635965500386e-02  8.9213974913631838e-02  9.8291066271614116e-02  1.0710277795378592e-01  1.1533726237688838e-01  1.2272510107205538e-01  1.2902150269743995e-01  1.3406021920623545e-01  1.3780214461000034e-01  1.4032592398171020e-01  1.4177098957305476e-01  1.4227557486981263e-01  1.4193916760409153e-01  1.4081276418104383e-01  1.3890639989303460e-01  1.3620354929108380e-01  1.3267755533889039e-01  1.2831006947715204e-01  1.2311318184640349e-01  1.1715496361810435e-01  1.1058316512304130e-01  1.0363624045564203e-01  9.6629218545063511e-02  8.9908842655118421e-02  8.3787870633097589e-02  7.8483567955764860e-02  7.4087051968551948e-02  7.0573746341947408e-02  6.7844770156150105e-02  6.5780899016931627e-02  6.4293838319803759e-02  6.3292253202464094e-02  6.2094842453439075e-02  5.4681630238839811e-02  8.4643995256441812e-02  8.1692695342377608e-02  4.6780538367745587e-02  5.0534511794394742e-02  5.3678356116314621e-02  5.8140302955519294e-02  6.4032423358821991e-02  7.1205639296869488e-02  7.9342504681536988e-02  8.8036843023948763e-02  9.6885900436833677e-02  1.0555734176454656e-01  1.1379020840429865e-01  1.2137164408491223e-01  1.2813136702783692e-01  1.3395820862184538e-01  1.3881130280145371e-01  1.4270722646985706e-01  1.4568875279464519e-01  1.4779253585605270e-01  1.4902801177594985e-01  1.4936925903343770e-01  1.4875567523585520e-01  1.4709807219182475e-01  1.4429107481904552e-01  1.4023638671775582e-01  1.3488106563147589e-01  1.2826842547312564e-01  1.2058768338394803e-01  1.1219778889465029e-01  1.0360022793760587e-01  9.5351974611540574e-02  8.7940798009240456e-02  8.1675378941179905e-02  7.6643906948304114e-02  7.2757481908977559e-02  6.9847443705934625e-02  6.7772034320987301e-02  6.6412442599762145e-02  6.4956367034691764e-02  5.6378349578804707e-02  8.5149467815374247e-02  8.0779023166822048e-02  4.4500630364941729e-02  4.7003590761216518e-02  4.9750445809429902e-02  5.3766452078357993e-02  5.9091208695077460e-02  6.5613674047610024e-02  7.3109548747794184e-02  8.128404397