<?xml version="1.0"?>
<VTKFile type="UnstructuredGrid"  version="0.1"  >
<UnstructuredGrid>
<Piece  NumberOfPoints="1681" NumberOfCells="3200">
<Points>
<DataArray  type="Float64"  NumberOfComponents="3"  format="ascii">0 0 0  0.025 0 0  0.05 0 0  0.075 0 0  0.1 0 0  0.125 0 0  0.15 0 0  0.175 0 0  0.2 0 0  0.225 0 0  0.25 0 0  0.275 0 0  0.3 0 0  0.325 0 0  0.35 0 0  0.375 0 0  0.4 0 0  0.425 0 0  0.45 0 0  0.475 0 0  0.5 0 0  0.525 0 0  0.55 0 0  0.575 0 0  0.6 0 0  0.625 0 0  0.65 0 0  0.675 0 0  0.7 0 0  0.725 0 0  0.75 0 0  0.775 0 0  0.8 0 0  0.825 0 0  0.85 0 0  0.875 0 0  0.9 0 0  0.925 0 0  0.95 0 0  0.975 0 0  1 0 0  0 0.025 0  0.025 0.025 0  0.05 0.025 0  0.075 0.025 0  0.1 0.025 0  0.125 0.025 0  0.15 0.025 0  0.175 0.025 0  0.2 0.025 0  0.225 0.025 0  0.25 0.025 0  0.275 0.025 0  0.3 0.025 0  0.325 0.025 0  0.35 0.025 0  0.375 0.025 0  0.4 0.025 0  0.425 0.025 0  0.45 0.025 0  0.475 0.025 0  0.5 0.025 0  0.525 0.025 0  0.55 0.025 0  0.575 0.025 0  0.6 0.025 0  0.625 0.025 0  0.65 0.025 0  0.675 0.025 0  0.7 0.025 0  0.725 0.025 0  0.75 0.025 0  0.775 0.025 0  0.8 0.025 0  0.825 0.025 0  0.85 0.025 0  0.875 0.025 0  0.9 0.025 0  0.925 0.025 0  0.95 0.025 0  0.975 0.025 0  1 0.025 0  0 0.05 0  0.025 0.05 0  0.05 0.05 0  0.075 0.05 0  0.1 0.05 0  0.125 0.05 0  0.15 0.05 0  0.175 0.05 0  0.2 0.05 0  0.225 0.05 0  0.25 0.05 0  0.275 0.05 0  0.3 0.05 0  0.325 0.05 0  0.35 0.05 0  0.375 0.05 0  0.4 0.05 0  0.425 0.05 0  0.45 0.05 0  0.475 0.05 0  0.5 0.05 0  0.525 0.05 0  0.55 0.05 0  0.575 0.05 0  0.6 0.05 0  0.625 0.05 0  0.65 0.05 0  0.675 0.05 0  0.7 0.05 0  0.725 0.05 0  0.75 0.05 0  0.775 0.05 0  0.8 0.05 0  0.825 0.05 0  0.85 0.05 0  0.875 0.05 0  0.9 0.05 0  0.925 0.05 0  0.95 0.05 0  0.975 0.05 0  1 0.05 0  0 0.075 0  0.025 0.075 0  0.05 0.075 0  0.075 0.075 0  0.1 0.075 0  0.125 0.075 0  0.15 0.075 0  0.175 0.075 0  0.2 0.075 0  0.225 0.075 0  0.25 0.075 0  0.275 0.075 0  0.3 0.075 0  0.325 0.075 0  0.35 0.075 0  0.375 0.075 0  0.4 0.075 0  0.425 0.075 0  0.45 0.075 0  0.475 0.075 0  0.5 0.075 0  0.525 0.075 0  0.55 0.075 0  0.575 0.075 0  0.6 0.075 0  0.625 0.075 0  0.65 0.075 0  0.675 0.075 0  0.7 0.075 0  0.725 0.075 0  0.75 0.075 0  0.775 0.075 0  0.8 0.075 0  0.825 0.075 0  0.85 0.075 0  0.875 0.075 0  0.9 0.075 0  0.925 0.075 0  0.95 0.075 0  0.975 0.075 0  1 0.075 0  0 0.1 0  0.025 0.1 0  0.05 0.1 0  0.075 0.1 0  0.1 0.1 0  0.125 0.1 0  0.15 0.1 0  0.175 0.1 0  0.2 0.1 0  0.225 0.1 0  0.25 0.1 0  0.275 0.1 0  0.3 0.1 0  0.325 0.1 0  0.35 0.1 0  0.375 0.1 0  0.4 0.1 0  0.425 0.1 0  0.45 0.1 0  0.475 0.1 0  0.5 0.1 0  0.525 0.1 0  0.55 0.1 0  0.575 0.1 0  0.6 0.1 0  0.625 0.1 0  0.65 0.1 0  0.675 0.1 0  0.7 0.1 0  0.725 0.1 0  0.75 0.1 0  0.775 0.1 0  0.8 0.1 0  0.825 0.1 0  0.85 0.1 0  0.875 0.1 0  0.9 0.1 0  0.925 0.1 0  0.95 0.1 0  0.975 0.1 0  1 0.1 0  0 0.125 0  0.025 0.125 0  0.05 0.125 0  0.075 0.125 0  0.1 0.125 0  0.125 0.125 0  0.15 0.125 0  0.175 0.125 0  0.2 0.125 0  0.225 0.125 0  0.25 0.125 0  0.275 0.125 0  0.3 0.125 0  0.325 0.125 0  0.35 0.125 0  0.375 0.125 0  0.4 0.125 0  0.425 0.125 0  0.45 0.125 0  0.475 0.125 0  0.5 0.125 0  0.525 0.125 0  0.55 0.125 0  0.575 0.125 0  0.6 0.125 0  0.625 0.125 0  0.65 0.125 0  0.675 0.125 0  0.7 0.125 0  0.725 0.125 0  0.75 0.125 0  0.775 0.125 0  0.8 0.125 0  0.825 0.125 0  0.85 0.125 0  0.875 0.125 0  0.9 0.125 0  0.925 0.125 0  0.95 0.125 0  0.975 0.125 0  1 0.125 0  0 0.15 0  0.025 0.15 0  0.05 0.15 0  0.075 0.15 0  0.1 0.15 0  0.125 0.15 0  0.15 0.15 0  0.175 0.15 0  0.2 0.15 0  0.225 0.15 0  0.25 0.15 0  0.275 0.15 0  0.3 0.15 0  0.325 0.15 0  0.35 0.15 0  0.375 0.15 0  0.4 0.15 0  0.425 0.15 0  0.45 0.15 0  0.475 0.15 0  0.5 0.15 0  0.525 0.15 0  0.55 0.15 0  0.575 0.15 0  0.6 0.15 0  0.625 0.15 0  0.65 0.15 0  0.675 0.15 0  0.7 0.15 0  0.725 0.15 0  0.75 0.15 0  0.775 0.15 0  0.8 0.15 0  0.825 0.15 0  0.85 0.15 0  0.875 0.15 0  0.9 0.15 0  0.925 0.15 0  0.95 0.15 0  0.975 0.15 0  1 0.15 0  0 0.175 0  0.025 0.175 0  0.05 0.175 0  0.075 0.175 0  0.1 0.175 0  0.125 0.175 0  0.15 0.175 0  0.175 0.175 0  0.2 0.175 0  0.225 0.175 0  0.25 0.175 0  0.275 0.175 0  0.3 0.175 0  0.325 0.175 0  0.35 0.175 0  0.375 0.175 0  0.4 0.175 0  0.425 0.175 0  0.45 0.175 0  0.475 0.175 0  0.5 0.175 0  0.525 0.175 0  0.55 0.175 0  0.575 0.175 0  0.6 0.175 0  0.625 0.175 0  0.65 0.175 0  0.675 0.175 0  0.7 0.175 0  0.725 0.175 0  0.75 0.175 0  0.775 0.175 0  0.8 0.175 0  0.825 0.175 0  0.85 0.175 0  0.875 0.175 0  0.9 0.175 0  0.925 0.175 0  0.95 0.175 0  0.975 0.175 0  1 0.175 0  0 0.2 0  0.025 0.2 0  0.05 0.2 0  0.075 0.2 0  0.1 0.2 0  0.125 0.2 0  0.15 0.2 0  0.175 0.2 0  0.2 0.2 0  0.225 0.2 0  0.25 0.2 0  0.275 0.2 0  0.3 0.2 0  0.325 0.2 0  0.35 0.2 0  0.375 0.2 0  0.4 0.2 0  0.425 0.2 0  0.45 0.2 0  0.475 0.2 0  0.5 0.2 0  0.525 0.2 0  0.55 0.2 0  0.575 0.2 0  0.6 0.2 0  0.625 0.2 0  0.65 0.2 0  0.675 0.2 0  0.7 0.2 0  0.725 0.2 0  0.75 0.2 0  0.775 0.2 0  0.8 0.2 0  0.825 0.2 0  0.85 0.2 0  0.875 0.2 0  0.9 0.2 0  0.925 0.2 0  0.95 0.2 0  0.975 0.2 0  1 0.2 0  0 0.225 0  0.025 0.225 0  0.05 0.225 0  0.075 0.225 0  0.1 0.225 0  0.125 0.225 0  0.15 0.225 0  0.175 0.225 0  0.2 0.225 0  0.225 0.225 0  0.25 0.225 0  0.275 0.225 0  0.3 0.225 0  0.325 0.225 0  0.35 0.225 0  0.375 0.225 0  0.4 0.225 0  0.425 0.225 0  0.45 0.225 0  0.475 0.225 0  0.5 0.225 0  0.525 0.225 0  0.55 0.225 0  0.575 0.225 0  0.6 0.225 0  0.625 0.225 0  0.65 0.225 0  0.675 0.225 0  0.7 0.225 0  0.725 0.225 0  0.75 0.225 0  0.775 0.225 0  0.8 0.225 0  0.825 0.225 0  0.85 0.225 0  0.875 0.225 0  0.9 0.225 0  0.925 0.225 0  0.95 0.225 0  0.975 0.225 0  1 0.225 0  0 0.25 0  0.025 0.25 0  0.05 0.25 0  0.075 0.25 0  0.1 0.25 0  0.125 0.25 0  0.15 0.25 0  0.175 0.25 0  0.2 0.25 0  0.225 0.25 0  0.25 0.25 0  0.275 0.25 0  0.3 0.25 0  0.325 0.25 0  0.35 0.25 0  0.375 0.25 0  0.4 0.25 0  0.425 0.25 0  0.45 0.25 0  0.475 0.25 0  0.5 0.25 0  0.525 0.25 0  0.55 0.25 0  0.575 0.25 0  0.6 0.25 0  0.625 0.25 0  0.65 0.25 0  0.675 0.25 0  0.7 0.25 0  0.725 0.25 0  0.75 0.25 0  0.775 0.25 0  0.8 0.25 0  0.825 0.25 0  0.85 0.25 0  0.875 0.25 0  0.9 0.25 0  0.925 0.25 0  0.95 0.25 0  0.975 0.25 0  1 0.25 0  0 0.275 0  0.025 0.275 0  0.05 0.275 0  0.075 0.275 0  0.1 0.275 0  0.125 0.275 0  0.15 0.275 0  0.175 0.275 0  0.2 0.275 0  0.225 0.275 0  0.25 0.275 0  0.275 0.275 0  0.3 0.275 0  0.325 0.275 0  0.35 0.275 0  0.375 0.275 0  0.4 0.275 0  0.425 0.275 0  0.45 0.275 0  0.475 0.275 0  0.5 0.275 0  0.525 0.275 0  0.55 0.275 0  0.575 0.275 0  0.6 0.275 0  0.625 0.275 0  0.65 0.275 0  0.675 0.275 0  0.7 0.275 0  0.725 0.275 0  0.75 0.275 0  0.775 0.275 0  0.8 0.275 0  0.825 0.275 0  0.85 0.275 0  0.875 0.275 0  0.9 0.275 0  0.925 0.275 0  0.95 0.275 0  0.975 0.275 0  1 0.275 0  0 0.3 0  0.025 0.3 0  0.05 0.3 0  0.075 0.3 0  0.1 0.3 0  0.125 0.3 0  0.15 0.3 0  0.175 0.3 0  0.2 0.3 0  0.225 0.3 0  0.25 0.3 0  0.275 0.3 0  0.3 0.3 0  0.325 0.3 0  0.35 0.3 0  0.375 0.3 0  0.4 0.3 0  0.425 0.3 0  0.45 0.3 0  0.475 0.3 0  0.5 0.3 0  0.525 0.3 0  0.55 0.3 0  0.575 0.3 0  0.6 0.3 0  0.625 0.3 0  0.65 0.3 0  0.675 0.3 0  0.7 0.3 0  0.725 0.3 0  0.75 0.3 0  0.775 0.3 0  0.8 0.3 0  0.825 0.3 0  0.85 0.3 0  0.875 0.3 0  0.9 0.3 0  0.925 0.3 0  0.95 0.3 0  0.975 0.3 0  1 0.3 0  0 0.325 0  0.025 0.325 0  0.05 0.325 0  0.075 0.325 0  0.1 0.325 0  0.125 0.325 0  0.15 0.325 0  0.175 0.325 0  0.2 0.325 0  0.225 0.325 0  0.25 0.325 0  0.275 0.325 0  0.3 0.325 0  0.325 0.325 0  0.35 0.325 0  0.375 0.325 0  0.4 0.325 0  0.425 0.325 0  0.45 0.325 0  0.475 0.325 0  0.5 0.325 0  0.525 0.325 0  0.55 0.325 0  0.575 0.325 0  0.6 0.325 0  0.625 0.325 0  0.65 0.325 0  0.675 0.325 0  0.7 0.325 0  0.725 0.325 0  0.75 0.325 0  0.775 0.325 0  0.8 0.325 0  0.825 0.325 0  0.85 0.325 0  0.875 0.325 0  0.9 0.325 0  0.925 0.325 0  0.95 0.325 0  0.975 0.325 0  1 0.325 0  0 0.35 0  0.025 0.35 0  0.05 0.35 0  0.075 0.35 0  0.1 0.35 0  0.125 0.35 0  0.15 0.35 0  0.175 0.35 0  0.2 0.35 0  0.225 0.35 0  0.25 0.35 0  0.275 0.35 0  0.3 0.35 0  0.325 0.35 0  0.35 0.35 0  0.375 0.35 0  0.4 0.35 0  0.425 0.35 0  0.45 0.35 0  0.475 0.35 0  0.5 0.35 0  0.525 0.35 0  0.55 0.35 0  0.575 0.35 0  0.6 0.35 0  0.625 0.35 0  0.65 0.35 0  0.675 0.35 0  0.7 0.35 0  0.725 0.35 0  0.75 0.35 0  0.775 0.35 0  0.8 0.35 0  0.825 0.35 0  0.85 0.35 0  0.875 0.35 0  0.9 0.35 0  0.925 0.35 0  0.95 0.35 0  0.975 0.35 0  1 0.35 0  0 0.375 0  0.025 0.375 0  0.05 0.375 0  0.075 0.375 0  0.1 0.375 0  0.125 0.375 0  0.15 0.375 0  0.175 0.375 0  0.2 0.375 0  0.225 0.375 0  0.25 0.375 0  0.275 0.375 0  0.3 0.375 0  0.325 0.375 0  0.35 0.375 0  0.375 0.375 0  0.4 0.375 0  0.425 0.375 0  0.45 0.375 0  0.475 0.375 0  0.5 0.375 0  0.525 0.375 0  0.55 0.375 0  0.575 0.375 0  0.6 0.375 0  0.625 0.375 0  0.65 0.375 0  0.675 0.375 0  0.7 0.375 0  0.725 0.375 0  0.75 0.375 0  0.775 0.375 0  0.8 0.375 0  0.825 0.375 0  0.85 0.375 0  0.875 0.375 0  0.9 0.375 0  0.925 0.375 0  0.95 0.375 0  0.975 0.375 0  1 0.375 0  0 0.4 0  0.025 0.4 0  0.05 0.4 0  0.075 0.4 0  0.1 0.4 0  0.125 0.4 0  0.15 0.4 0  0.175 0.4 0  0.2 0.4 0  0.225 0.4 0  0.25 0.4 0  0.275 0.4 0  0.3 0.4 0  0.325 0.4 0  0.35 0.4 0  0.375 0.4 0  0.4 0.4 0  0.425 0.4 0  0.45 0.4 0  0.475 0.4 0  0.5 0.4 0  0.525 0.4 0  0.55 0.4 0  0.575 0.4 0  0.6 0.4 0  0.625 0.4 0  0.65 0.4 0  0.675 0.4 0  0.7 0.4 0  0.725 0.4 0  0.75 0.4 0  0.775 0.4 0  0.8 0.4 0  0.825 0.4 0  0.85 0.4 0  0.875 0.4 0  0.9 0.4 0  0.925 0.4 0  0.95 0.4 0  0.975 0.4 0  1 0.4 0  0 0.425 0  0.025 0.425 0  0.05 0.425 0  0.075 0.425 0  0.1 0.425 0  0.125 0.425 0  0.15 0.425 0  0.175 0.425 0  0.2 0.425 0  0.225 0.425 0  0.25 0.425 0  0.275 0.425 0  0.3 0.425 0  0.325 0.425 0  0.35 0.425 0  0.375 0.425 0  0.4 0.425 0  0.425 0.425 0  0.45 0.425 0  0.475 0.425 0  0.5 0.425 0  0.525 0.425 0  0.55 0.425 0  0.575 0.425 0  0.6 0.425 0  0.625 0.425 0  0.65 0.425 0  0.675 0.425 0  0.7 0.425 0  0.725 0.425 0  0.75 0.425 0  0.775 0.425 0  0.8 0.425 0  0.825 0.425 0  0.85 0.425 0  0.875 0.425 0  0.9 0.425 0  0.925 0.425 0  0.95 0.425 0  0.975 0.425 0  1 0.425 0  0 0.45 0  0.02
[...]
<PointData  Scalars="ControlVisualisation"> 
<DataArray  type="Float64"  Name="ControlVisualisation"  format="ascii">4.1361250028528174e-01  4.0842363453607461e-01  4.0843787692127387e-01  4.0850593318810346e-01  4.0862387141290391e-01  4.0876439228157213e-01  4.0890062114136333e-01  4.0901575769361126e-01  4.0910347803062874e-01  4.0916455411147201e-01  4.0920326988727412e-01  4.0922493188736436e-01  4.0923453710245067e-01  4.0923623819556493e-01  4.0923324672232481e-01  4.0922793213683106e-01  4.0922198215628763e-01  4.0921656066093259e-01  4.0921243812133268e-01  4.0921008812525350e-01  4.0920975099311591e-01  4.0921146730143726e-01  4.0921508340950347e-01  4.0922022935432223e-01  4.0922626759757397e-01  4.0923220983183395e-01  4.0923659953768210e-01  4.0923736263445937e-01  4.0923164152335639e-01  4.0921565713889629e-01  4.0918470047389999e-01  4.0913344374353156e-01  4.0905689860400651e-01  4.0895239511484510e-01  4.0882277694157532e-01  4.0868030438577824e-01  4.0854829242570517e-01  4.0845614018822601e-01  4.0842181047451059e-01  4.0842611727009864e-01  4.1879736057563943e-01  4.0842275237670161e-01  3.9293387735767737e-01  3.9329125928410641e-01  3.9412639248917425e-01  3.9541016017555497e-01  3.9690709966509274e-01  3.9836025979907952e-01  3.9960075157099545e-01  4.0056041675925935e-01  4.0124262405495753e-01  4.0168795164197074e-01  4.0194925118065533e-01  4.0207768757362750e-01  4.0211670280086531e-01  4.0210053363316944e-01  4.0205488907965514e-01  4.0199839885097960e-01  4.0194413882118596e-01  4.0190093894821100e-01  4.0187438021840627e-01  4.0186747400638145e-01  4.0188104448609346e-01  4.0191383346087356e-01  4.0196233367689582e-01  4.0202034050437901e-01  4.0207820010055517e-01  4.0212173490387548e-01  4.0213086379618529e-01  4.0207803828073169e-01  4.0192685328969602e-01  4.0163164053230965e-01  4.0113962280092358e-01  4.0039832071434300e-01  3.9937159010642342e-01  3.9806737686907273e-01  3.9657350017174625e-01  3.9508152157953769e-01  3.9386091476352825e-01  3.9312664080654941e-01  3.9287233482488204e-01  4.0842598210627462e-01  4.0843022965688119e-01  3.9330415805494823e-01  3.9466333219971528e-01  3.9688456470042716e-01  3.9983741036977138e-01  4.0309737104711946e-01  4.0618289689132780e-01  4.0877926009880411e-01  4.1076888514452964e-01  4.1217251651472708e-01  4.1308080855076090e-01  4.1360591069620622e-01  4.1385483594550665e-01  4.1391813087140256e-01  4.1386724957275012e-01  4.1375604775799818e-01  4.1362374926335249e-01  4.1349805251219246e-01  4.1339780320883934e-01  4.1333504619305417e-01  4.1331643960093162e-01  4.1334407009099855e-01  4.1341570752646400e-01  4.1352451277783286e-01  4.1365818091940637e-01  4.1379747765542946e-01  4.1391412728593868e-01  4.1396806908279477e-01  4.1390427412826147e-01  4.1364971955670160e-01  4.1311188818758832e-01  4.1218157384626619e-01  4.1074471242795285e-01  4.0871006910972663e-01  4.0606015435551168e-01  4.0292023002282246e-01  3.9961832627221389e-01  3.9664522172381678e-01  3.9441371337023978e-01  3.9311829661217412e-01  4.0841857521218267e-01  4.0848866654683802e-01  3.9434714281488337e-01  3.9753604215898125e-01  4.0124913428601877e-01  4.0523955904717174e-01  4.0921184621419215e-01  4.1275773474354527e-01  4.1561794969886789e-01  4.1772655582589036e-01  4.1914916649031475e-01  4.2001155124017026e-01  4.2045179275504496e-01  4.2059556200459003e-01  4.2054669652484539e-01  4.2038606376769372e-01  4.2017413807263160e-01  4.1995474717396203e-01  4.1975874344096337e-01  4.1960708502240490e-01  4.1951317759493800e-01  4.1948448448081832e-01  4.1952345988308481e-01  4.1962785303964184e-01  4.1979040047959365e-01  4.1999788611298566e-01  4.2022951726900554e-01  4.2045455551292721e-01  4.2062918436570756e-01  4.2069274530003192e-01  4.2056383621004728e-01  4.2013747007060104e-01  4.1928587307146242e-01  4.1786734316982377e-01  4.1575084627613701e-01  4.1286388185795114e-01  4.0926297556182323e-01  4.0520200793622013e-01  4.0106344652839032e-01  3.9714874123545008e-01  3.9392709999147746e-01  4.0844051959212163e-01  4.0863241598988964e-01  3.9659922390062363e-01  4.0337070378032058e-01  4.0893604166343328e-01  4.1320803091262459e-01  4.1667792736238102e-01  4.1943813642250760e-01  4.2147541906791181e-01  4.2283546508462677e-01  4.2362426872849956e-01  4.2397147004053087e-01  4.2400275877827559e-01  4.2382630166534779e-01  4.2352878006540351e-01  4.2317642814560674e-01  4.2281812008837166e-01  4.2248890523222976e-01  4.2221323618193918e-01  4.2200760083050892e-01  4.2188249796670524e-01  4.2184379032973135e-01  4.2189349179277202e-01  4.2203003292148333e-01  4.2224802106880027e-01  4.2253747837749933e-01  4.2288251165954005e-01  4.2325935249690061e-01  4.2363372240515529e-01  4.2395755921923517e-01  4.2416535447058973e-01  4.2417076368266798e-01  4.2386503039822171e-01  4.2311977922823557e-01  4.2179930105668606e-01  4.1978370955381272e-01  4.1700281126392458e-01  4.1342185358431771e-01  4.0885408128018597e-01  4.0279488568851285e-01  3.9582950392776300e-01  4.0852664841033309e-01  4.0890396356797098e-01  4.0210603219894192e-01  4.1577868481377317e-01  4.2322997908259435e-01  4.2607646181445114e-01  4.2722059085268033e-01  4.2773131220468186e-01  4.2787588079444844e-01  4.2773589335678408e-01  4.2737377387762171e-01  4.2685515893464415e-01  4.2624313405670838e-01  4.2559241488630445e-01  4.2494711568523696e-01  4.2434097455984204e-01  4.2379876071238287e-01  4.2333804241543804e-01  4.2297088318252851e-01  4.2270527300290256e-01  4.2254623130040347e-01  4.2249657924513634e-01  4.2255740025329253e-01  4.2272820743128980e-01  4.2300682653603738e-01  4.2338898981464257e-01  4.2386762550087298e-01  4.2443182651683770e-01  4.2506550000508830e-01  4.2574575375956736e-01  4.2644119307214168e-01  4.2711049665871609e-01  4.2770203852367050e-01  4.2815533800540878e-01  4.2840550574456920e-01  4.2838179864417925e-01  4.2797500719317744e-01  4.2679869811608379e-01  4.2351678834785189e-01  4.1480907763393471e-01  3.9989589054717745e-01  4.0865322648368757e-01  4.1230644336957178e-01  4.2029276499883295e-01  4.4411491457805241e-01  4.4930779333260301e-01  4.4619989541649979e-01  4.4187386406341211e-01  4.3819468223113878e-01  4.3528961568714075e-01  4.3296183227997154e-01  4.3103645705765053e-01  4.2940202399686384e-01  4.2799364940128143e-01  4.2677453497672985e-01  4.2572366572977494e-01  4.2482860626842145e-01  4.2408153593526371e-01  4.2347717344549846e-01  4.2301175581445116e-01  4.2268258058255120e-01  4.2248783283429925e-01  4.2242654443780703e-01  4.2249860632824915e-01  4.2270479801503585e-01  4.2304682677669725e-01  4.2352739313654003e-01  4.2415032889992677e-01  4.2492090047665870e-01  4.2584644890145362e-01  4.2693767343970013e-01  4.2821108955939025e-01  4.2969355775548157e-01  4.3143033471291004e-01  4.3349834684962779e-01  4.3602622538972485e-01  4.3920736891347800e-01  4.4324752911578424e-01  4.4791848043650351e-01  4.5103359139072852e-01  4.4439603792424509e-01  4.1616509529161594e-01  4.0955131747375767e-01  4.5302883013831102e-01  4.8586353417237338e-01  5.0295960701187226e-01  4.9150503192619610e-01  4.7435351113383484e-01  4.6036715333797412e-01  4.5038549315238452e-01  4.4337643508583935e-01  4.3833475199188060e-01  4.3458369564235338e-01  4.3170312591117999e-01  4.2943462849200648e-01  4.2761701763465770e-01  4.2614751334913809e-01  4.2495898903028190e-01  4.2400660686430042e-01  4.2325989231181604e-01  4.2269798955037874e-01  4.2230680656527847e-01  4.2207730814456118e-01  4.2200453161653739e-01  4.2208708856040056e-01  4.2232703500751784e-01  4.2273007835897536e-01  4.2330616580941061e-01  4.2407058799781827e-01  4.2504585845237819e-01  4.2626483254050385e-01  4.2777587375458259e-01  4.2965147281062432e-01  4.3200279369899880e-01  4.3500443302224773e-01  4.3893663960754259e-01  4.4425569513927365e-01  4.5169271572940722e-01  4.6232396653764435e-01  4.7716101437993980e-01  4.9503365062204285e-01  5.0673209768727578e-01  4.9380509946375989e-01  4.3144358304344460e-01  5.5817729446412900e-01  6.2244258198333080e-01  5.8914702029169230e-01  5.4500898791860231e-01  5.0705892234914740e-01  4.8036657757756213e-01  4.6279568421619999e-01  4.5118428456079984e-01  4.4326907238532354e-01  4.3767048146443227e-01  4.3357197877332110e-01  4.3048482680271788e-01  4.2810903111499560e-01  4.2625523586607406e-01  4.2480073780401845e-01  4.2366423036306222e-01  4.2279097269828869e-01  4.2214390331344087e-01  4.2169824406721784e-01  4.2143822544054743e-01  4.2135516204074863e-01  4.2144645202012071e-01  4.2171528798460811e-01  4.2217101895189008e-01  4.2283023775938727e-01  4.2371882436818542e-01  4.2487539915189798e-01  4.2635700442101482e-01  4.2824846741956479e-01  4.3067805377224239e-01  4.3384417860703051e-01  4.3806196689101623e-01  4.4384600934836460e-01  4.5205666829591040e-01  4.6414337257163074e-01  4.8245461978532844e-01  5.1006139117811489e-01  5.4822622547741151e-01  5.8919318258446673e-01  6.3751765592796850e-01  5.3138558925104606e-01  6.3095422872879281e-01  7.2451931603306741e-01  6.5897853379927929e-01  5.9243624210144075e-01  5.3610557921542468e-01  4.9764164456245952e-01  4.7312849253363115e-01  4.5741413271409814e-01  4.4700826626226264e-01  4.3984786343704069e-01  4.3474088868031113e-01  4.3098716224474748e-01  4.2816308969250516e-01  4.2600427229784527e-01  4.2434086767411600e-01  4.2306113938957229e-01  4.2209033107898986e-01  4.2137811436792233e-01  4.2089099972367716e-01  4.2060773480980868e-01  4.2051659451138745e-01  4.2061396254065331e-01  4.2090390631199981e-01  4.2139865787505709e-01  4.2212009915487358e-01  4.2310256417653924e-01  4.2439758072467787e-01  4.2608168543318303e-01  4.2826935560924589e-01  4.3113479262319909e-01  4.3494952127403830e-01  4.4014903514931253e-01  4.4745359547491237e-01  4.5808752976084144e-01  4.7416164515310294e-01  4.9919800633084022e-01  5.3814180462923678e-01  5.9394072365331940e-01  6.5541652147183294e-01  7.2820878241244857e-01  6.2469084981390921e-01  6.5072481256258041e-01  7.5221294477335388e-01  6.8533234992614200e-01  6.1674271796633062e-01  5.5257789136825530e-01  5.0773659564789331e-01  4.7909326899973292e-01  4.6084356907416496e-01  4.4887405924310658e-01  4.4072614772027996e-01  4.3498011393176211e-01  4.3080442087588938e-01  4.2769770333495843e-01  4.2534791361093255e-01  4.2355502905772746e-01  4.2218766862510065e-01  4.2115804407487506e-01  4.2040711512194306e-01  4.1989562356585142e-01  4.1959865495790316e-01  4.1950243019892636e-01  4.1960261880377181e-01  4.1990382152381273e-01  4.2042011703869864e-01  4.2117678293440503e-01  4.2221354940184191e-01  4.2359010272588654e-01  4.2539514962637787e-01  4.2776141419830216e-01  4.3089091979888328e-01  4.3509870877085283e-01  4.4089053357670571e-01  4.4910383283309924e-01  4.6116406274945815e-01  4.7952684122281497e-01  5.0826202719001690e-01  5.5301524612380226e-01  6.1668076123822102e-01  6.8480372523226818e-01  7.5233633056413896e-01  6.5139355537340105e-01  6.2400057099451045e-01  7.3246687335932537e-01  6.6968324289476611e-01  6.1121646184569034e-01  5.5178864539447525e-01  5.0808415246478345e-01  4.7935704529528972e-01  4.6077853323679119e-01  4.4849487678816768e-01  4.4010060861898437e-01  4.3417436568018941e-01  4.2987129103269484e-01  4.2667673934083222e-01  4.2426779353037891e-01  4.2243608450742420e-01  4.2104398810521954e-01  4.1999911950503599e-01  4.1923911155903887e-01  4.1872236413452402e-01  4.1842240157701055e-01  4.1832452640728979e-01  4.1842404952898188e-01  4.1872573679506347e-01  4.1924436191431425e-01  4.2000647331474134e-01  4.2105373125588719e-01  4.2244852713913383e-01  4.2428317999240561e-01  4.2669503495695899e-01  4.2989168717953957e-01  4.3419413993184408e-01  4.4011247340044984e-01  4.4848071398886225e-01  4.6069556252878335e-01  4.7910577111641817e-01  5.0746227113686482e-01  5.5058078258996579e-01  6.0990311420591525e-01  6.7284668794315172e-01  7.2873108504838524e-01  6.3098042490420136e-01  5.3268220919925469e-01  6.5146038871510026e-01  6.1808040476722192e-01  5.7989592901592490e-01  5.3510750735923507e-01  4.9911326698591596e-01  4.7409141273979116e-01  4.5730815238874672e-01  4.4592792479156745e-01  4.3801315303599253e-01  4.3235662637155847e-01  4.2821511313072091e-01  4.2512386511832906e-01  4.2278519169196016e-01  4.2100378800592808e-01  4.1964890261754711e-01  4.1863179410821166e-01  4.1789202218380228e-01  4.1738898698003302e-01  4.1709670299020252e-01  4.1700066791409762e-01  4.1709619171486678e-01  4.1738786421105273e-01  4.1789006052116690e-01  4.1862857643651474e-01  4.1964370324602251e-01  4.2099535562192891e-01  4.2277135174776853e-01  4.2510077786380512e-01  4.2817585304263023e-01  4.3228838630266259e-01  4.3789162826105299e-01  4.4570574054842610e-01  4.5689198224378946e-01  4.7330078889732091e-01  4.9763846629984287e-01  5.3269803681393013e-01  5.7736928666754883e-01  6.1915681369536846e-01  6.3633861494058219e-01  5.5873604141498956e-01  4.3402463262548630e-01  5.1669362914980610e-01  5.4620373464949867e-01  5.3523573460334273e-01  5.0894799543158920e-01  4.8390926135599566e-01  4.6482872531775082e-01  4.5123675100669869e-01  4.4162371769050529e-01  4.3473215068152576e-01  4.2969638367855201e-01  4.2594904313779625e-01  4.2311875826931178e-01  4.2095919480712918e-01  4.1930421914498817e-01  4.1804012327568013e-01  4.1708835405307970e-01  4.1639465109550350e-01  4.1592216172498397e-01  4.1564709738189748e-01  4.1555608833333663e-01  4.1564475370213444e-01  4.1591723672116060e-01  4.1638662461936471e-01  4.1707632172776593e-01  4.1802260955973924e-01  4.1927884984090324e-01  4.2092212446476535e-01  4.2306365393098178e-01  4.2586524309111057e-01  4.2956547650497739e-01  4.3452153493310930e-01  4.4127442687815022e-01  4.5064098201168118e-01  4.6379808951694212e-01  4.8215521034138481e-01  5.0625554318211252e-01  5.3202102641095417e-01  5.4301212366707574e-01  5.0821815120153846e-01  4.5532803255582760e-01  4.1113348332620309e-01  4.3598652358845014e-01  4.8370766932066761e-01  4.9223053544374340e-01  4.8137652663015279e-01  4.6664995135707404e-01  4.5374360718874301e-01  4.4374585926720944e-01  4.3625836427589143e-01  4.3066493759286734e-01  4.2645162735282943e-01  4.2324441093675658e-01  4.2078051027185936e-01  4.1887636828601782e-01  4.1740315543630108e-01  4.1626989468419712e-01  4.1541216346984067e-01  4.1478458878090591e-01  4.1435588744537161e-01  4.1410563548110124e-01  4.1402225291128464e-01  4.1410189484347981e-01  4.1434808296332554e-01  4.1477202190228951e-01  4.1539364383356098e-01  4.1624353115220469e-01  4.1736600136754093e-01  4.1882382491456421e-01  4.2070531490810431e-01  4.2313490006920146e-01  4.2628871806757279e-01  4.3041685672468588e-01  4.3587187194379035e-01  4.4313243662245227e-01  4.5276852054038297e-01  4.6515248649073149e-01  4.7935476702964902e-01  4.9015820193453652e-01  4.8302410391016859e-01  4.4033458291937660e-01  4.1442128834951386e-01  4.0976392539209061e-01  4.1459539082669000e-01  4.4777244647899228e-01  4.6055940965416209e-01  4.5824623964622785e-01  4.5072406544970367e-01  4.4277930462526555e-01  4.3597342475216955e-01  4.3052064726647543e-01  4.2624481013749815e-01  4.2290575488919202e-01  4.2029379515398274e-01  4.1824503847160782e-01  4.1663634723458404e-01  4.1537650374172758e-01  4.1439837735502139e-01  4.1365288166804803e-01  4.1310457304494813e-01  4.1272854413197479e-01  4.1250830107109748e-01  4.1243439285353400e-01  4.1250363832861003e-01  4.1271886241474298e-01  4.1308911003287641e-01  4.1363035932140674e-01  4.1436681017600319e-01  4.1533288449942823e-01  4.1657614156638534e-01  4.1816137469690606e-01  4.2017616574582045e-01  4.2273796593327406e-01  4.2600180759293776e-01  4.3016432481849720e-01  4.3544863170099063e-01  4.4202069114935622e-01  4.4969603117493129e-01  4.5710815619254952e-01  4.5988481732103259e-01  4.4869868314501826e-01  4.1756524957275948e-01  4.1016747063438047e-01  4.0948375504890056e-01  4.0785429016638408e-01  4.2999025155731713e-01  4.4050060489994997e-01  4.4124653230850991e-01  4.3771993827651212e-01  4.3310886868931414e-01  4.2872087262928893e-01  4.2495013714615693e-01  4.2183832669848431e-01  4.1931253134719176e-01  4.1727716765201039e-01  4.1564349412894347e-01  4.1433756175047060e-01  4.1330051076394131e-01  4.1248666870218759e-01  4.1186126960729158e-01  4.1139842744134753e-01  4.1107952409696552e-01  4.1089201806052117e-01  4.1082863332212821e-01  4.1088688528598627e-01  4.1106891322978534e-01  4.1138160671037849e-01  4.1183703196512755e-01  4.1245318111895346e-01  4.1325507757447272e-01  4.1427626497421915e-01  4.1556065880624016e-01  4.1716458473377827e-01  4.1915840134715554e-01  4.2162597091515180e-01  4.2465721599589001e-01  4.2832089892944247e-01  4.3258372929955557e-01  4.3709344395026611e-01  4.4066287152753209e-01  4.4030951218919206e-01  4.3063218319897106e-01  4.0906637912134280e-01  4.0969334094242599e-01  4.0923047488864284e-01  4.0382069532049675e-01  4.1962368781667125e-01  4.2771924804281158e-01  4.2926743026556174e-01  4.2772210565115937e-01  4.2512178508472459e-01  4.2238614206105107e-01  4.1987568365395495e-01  4.1769920823762952e-01  4.1586372789516424e-01  4.1433950109243411e-01  4.1308668466670800e-01  4.1206622738285548e-01  4.1124380040270075e-01  4.1059087443775777e-01  4.1008461659752904e-01  4.0970737858028866e-01  4.0944610940406750e-01  4.0929183835354416e-01  4.0923928556192679e-01  4.0928661984460352e-01  4.0943536826545890e-01  4.0969047689657456e-01  4.1006051999017540e-01  4.1055804966820514e-01  4.1120006325726993e-01  4.1200852852231856e-01  4.1301082459806326e-01  4.1423977864916128e-01  4.1573259441215638e-01  4.1752711608870674e-01  4.1965189385875445e-01  4.2210177108669655e-01  4.2477939052550984e-01  4.2735829386397645e-01  4.2898321741879358e-01  4.2772934664358570e-01  4.2017630901054670e-01  4.0469586203200786e-01  4.0937624854669308e-01  4.0905149173718958e-01  4.0121517978171556e-01  4.1303836351628315e-01  4.1921249068772393e-01  4.2078319575098616e-01  4.2017794300332645e-01  4.1873189266391880e-01  4.1706286283902916e-01  4.1543931730296330e-01  4.1396747258493316e-01  4.1268126710480851e-01  4.1158204760112688e-01  4.1065737491977772e-01  4.0989002909231093e-01  4.0926230857873414e-01  4.0875804034381119e-01  4.0836341725277392e-01  4.0806726268597515e-01  4.0786103013363817e-01  4.0773870300182696e-01  4.0769668027443129e-01  4.0773369136319704e-01  4.0785075978724411e-01  4.0805122096927171e-01  4.0834078791343387e-01  4.0872764455390331e-01  4.0922252405760595e-01  4.0983868938662749e-01  4.1059166085631638e-01  4.1149840234493873e-01  4.1257542743463488e-01  4.1383478906628457e-01  4.1527583963463388e-01  4.1686810675777580e-01  4.1851431715078774e-01  4.1996740760927836e-01  4.2064464451642847e-01  4.1925378161179322e-01  4.1340266665857150e-01  4.0178125037173518e-01  4.0915599771207695e-01  4.0891596539827385e-01  3.9933125939594666e-01  4.0840066250585638e-01  4.1320057935440002e-01  4.1462065799306902e-01  4.1446468801651781e-01  4.1367665314866703e-01  4.1267912801555101e-01  4.1165760436223642e-01  4.1069483862361678e-01  4.0982640027482881e-01  4.0906447468716334e-01  4.0840952557019128e-01  4.0785630741335610e-01  4.0739721225620057e-01  4.0702413971418372e-01  4.0672951803401280e-01  4.0650683804012583e-01  4.0635091049146221e-01  4.0625797501405903e-01  4.0622573575784227e-01  4.0625336657182076e-01  4.0634150733308971e-01  4.0649225810314571e-01  4.0670916483056918e-01  4.0699717581670070e-01  4.0736252823917601e-01  4.0781249375414852e-01  4.0835486445886915e-01  4.0899698358657943e-01  4.0974399538195860e-01  4.1059574306572394e-01  4.1154118966573022e-01  4.1254776114451125e-01  4.1353878089177298e-01  4.1434045671772840e-01  4.1455198456089726e-01  4.1325673055412088e-01  4.0866845491261244e-01  3.9973636817564517e-01  4.0899452731107655e-01  4.0881219005890035e-01  3.9793233895534091e-01  4.0501416143814983e-01  4.0880071608790214e-01  4.1002565406467367e-01  4.1008432730003735e-01  4.0967718797664843e-01  4.0910036444334696e-01  4.084805561