<?xml version="1.0"?>
<VTKFile type="UnstructuredGrid"  version="0.1"  >
<UnstructuredGrid>
<Piece  NumberOfPoints="1681" NumberOfCells="3200">
<Points>
<DataArray  type="Float64"  NumberOfComponents="3"  format="ascii">0 0 0  0.025 0 0  0.05 0 0  0.075 0 0  0.1 0 0  0.125 0 0  0.15 0 0  0.175 0 0  0.2 0 0  0.225 0 0  0.25 0 0  0.275 0 0  0.3 0 0  0.325 0 0  0.35 0 0  0.375 0 0  0.4 0 0  0.425 0 0  0.45 0 0  0.475 0 0  0.5 0 0  0.525 0 0  0.55 0 0  0.575 0 0  0.6 0 0  0.625 0 0  0.65 0 0  0.675 0 0  0.7 0 0  0.725 0 0  0.75 0 0  0.775 0 0  0.8 0 0  0.825 0 0  0.85 0 0  0.875 0 0  0.9 0 0  0.925 0 0  0.95 0 0  0.975 0 0  1 0 0  0 0.025 0  0.025 0.025 0  0.05 0.025 0  0.075 0.025 0  0.1 0.025 0  0.125 0.025 0  0.15 0.025 0  0.175 0.025 0  0.2 0.025 0  0.225 0.025 0  0.25 0.025 0  0.275 0.025 0  0.3 0.025 0  0.325 0.025 0  0.35 0.025 0  0.375 0.025 0  0.4 0.025 0  0.425 0.025 0  0.45 0.025 0  0.475 0.025 0  0.5 0.025 0  0.525 0.025 0  0.55 0.025 0  0.575 0.025 0  0.6 0.025 0  0.625 0.025 0  0.65 0.025 0  0.675 0.025 0  0.7 0.025 0  0.725 0.025 0  0.75 0.025 0  0.775 0.025 0  0.8 0.025 0  0.825 0.025 0  0.85 0.025 0  0.875 0.025 0  0.9 0.025 0  0.925 0.025 0  0.95 0.025 0  0.975 0.025 0  1 0.025 0  0 0.05 0  0.025 0.05 0  0.05 0.05 0  0.075 0.05 0  0.1 0.05 0  0.125 0.05 0  0.15 0.05 0  0.175 0.05 0  0.2 0.05 0  0.225 0.05 0  0.25 0.05 0  0.275 0.05 0  0.3 0.05 0  0.325 0.05 0  0.35 0.05 0  0.375 0.05 0  0.4 0.05 0  0.425 0.05 0  0.45 0.05 0  0.475 0.05 0  0.5 0.05 0  0.525 0.05 0  0.55 0.05 0  0.575 0.05 0  0.6 0.05 0  0.625 0.05 0  0.65 0.05 0  0.675 0.05 0  0.7 0.05 0  0.725 0.05 0  0.75 0.05 0  0.775 0.05 0  0.8 0.05 0  0.825 0.05 0  0.85 0.05 0  0.875 0.05 0  0.9 0.05 0  0.925 0.05 0  0.95 0.05 0  0.975 0.05 0  1 0.05 0  0 0.075 0  0.025 0.075 0  0.05 0.075 0  0.075 0.075 0  0.1 0.075 0  0.125 0.075 0  0.15 0.075 0  0.175 0.075 0  0.2 0.075 0  0.225 0.075 0  0.25 0.075 0  0.275 0.075 0  0.3 0.075 0  0.325 0.075 0  0.35 0.075 0  0.375 0.075 0  0.4 0.075 0  0.425 0.075 0  0.45 0.075 0  0.475 0.075 0  0.5 0.075 0  0.525 0.075 0  0.55 0.075 0  0.575 0.075 0  0.6 0.075 0  0.625 0.075 0  0.65 0.075 0  0.675 0.075 0  0.7 0.075 0  0.725 0.075 0  0.75 0.075 0  0.775 0.075 0  0.8 0.075 0  0.825 0.075 0  0.85 0.075 0  0.875 0.075 0  0.9 0.075 0  0.925 0.075 0  0.95 0.075 0  0.975 0.075 0  1 0.075 0  0 0.1 0  0.025 0.1 0  0.05 0.1 0  0.075 0.1 0  0.1 0.1 0  0.125 0.1 0  0.15 0.1 0  0.175 0.1 0  0.2 0.1 0  0.225 0.1 0  0.25 0.1 0  0.275 0.1 0  0.3 0.1 0  0.325 0.1 0  0.35 0.1 0  0.375 0.1 0  0.4 0.1 0  0.425 0.1 0  0.45 0.1 0  0.475 0.1 0  0.5 0.1 0  0.525 0.1 0  0.55 0.1 0  0.575 0.1 0  0.6 0.1 0  0.625 0.1 0  0.65 0.1 0  0.675 0.1 0  0.7 0.1 0  0.725 0.1 0  0.75 0.1 0  0.775 0.1 0  0.8 0.1 0  0.825 0.1 0  0.85 0.1 0  0.875 0.1 0  0.9 0.1 0  0.925 0.1 0  0.95 0.1 0  0.975 0.1 0  1 0.1 0  0 0.125 0  0.025 0.125 0  0.05 0.125 0  0.075 0.125 0  0.1 0.125 0  0.125 0.125 0  0.15 0.125 0  0.175 0.125 0  0.2 0.125 0  0.225 0.125 0  0.25 0.125 0  0.275 0.125 0  0.3 0.125 0  0.325 0.125 0  0.35 0.125 0  0.375 0.125 0  0.4 0.125 0  0.425 0.125 0  0.45 0.125 0  0.475 0.125 0  0.5 0.125 0  0.525 0.125 0  0.55 0.125 0  0.575 0.125 0  0.6 0.125 0  0.625 0.125 0  0.65 0.125 0  0.675 0.125 0  0.7 0.125 0  0.725 0.125 0  0.75 0.125 0  0.775 0.125 0  0.8 0.125 0  0.825 0.125 0  0.85 0.125 0  0.875 0.125 0  0.9 0.125 0  0.925 0.125 0  0.95 0.125 0  0.975 0.125 0  1 0.125 0  0 0.15 0  0.025 0.15 0  0.05 0.15 0  0.075 0.15 0  0.1 0.15 0  0.125 0.15 0  0.15 0.15 0  0.175 0.15 0  0.2 0.15 0  0.225 0.15 0  0.25 0.15 0  0.275 0.15 0  0.3 0.15 0  0.325 0.15 0  0.35 0.15 0  0.375 0.15 0  0.4 0.15 0  0.425 0.15 0  0.45 0.15 0  0.475 0.15 0  0.5 0.15 0  0.525 0.15 0  0.55 0.15 0  0.575 0.15 0  0.6 0.15 0  0.625 0.15 0  0.65 0.15 0  0.675 0.15 0  0.7 0.15 0  0.725 0.15 0  0.75 0.15 0  0.775 0.15 0  0.8 0.15 0  0.825 0.15 0  0.85 0.15 0  0.875 0.15 0  0.9 0.15 0  0.925 0.15 0  0.95 0.15 0  0.975 0.15 0  1 0.15 0  0 0.175 0  0.025 0.175 0  0.05 0.175 0  0.075 0.175 0  0.1 0.175 0  0.125 0.175 0  0.15 0.175 0  0.175 0.175 0  0.2 0.175 0  0.225 0.175 0  0.25 0.175 0  0.275 0.175 0  0.3 0.175 0  0.325 0.175 0  0.35 0.175 0  0.375 0.175 0  0.4 0.175 0  0.425 0.175 0  0.45 0.175 0  0.475 0.175 0  0.5 0.175 0  0.525 0.175 0  0.55 0.175 0  0.575 0.175 0  0.6 0.175 0  0.625 0.175 0  0.65 0.175 0  0.675 0.175 0  0.7 0.175 0  0.725 0.175 0  0.75 0.175 0  0.775 0.175 0  0.8 0.175 0  0.825 0.175 0  0.85 0.175 0  0.875 0.175 0  0.9 0.175 0  0.925 0.175 0  0.95 0.175 0  0.975 0.175 0  1 0.175 0  0 0.2 0  0.025 0.2 0  0.05 0.2 0  0.075 0.2 0  0.1 0.2 0  0.125 0.2 0  0.15 0.2 0  0.175 0.2 0  0.2 0.2 0  0.225 0.2 0  0.25 0.2 0  0.275 0.2 0  0.3 0.2 0  0.325 0.2 0  0.35 0.2 0  0.375 0.2 0  0.4 0.2 0  0.425 0.2 0  0.45 0.2 0  0.475 0.2 0  0.5 0.2 0  0.525 0.2 0  0.55 0.2 0  0.575 0.2 0  0.6 0.2 0  0.625 0.2 0  0.65 0.2 0  0.675 0.2 0  0.7 0.2 0  0.725 0.2 0  0.75 0.2 0  0.775 0.2 0  0.8 0.2 0  0.825 0.2 0  0.85 0.2 0  0.875 0.2 0  0.9 0.2 0  0.925 0.2 0  0.95 0.2 0  0.975 0.2 0  1 0.2 0  0 0.225 0  0.025 0.225 0  0.05 0.225 0  0.075 0.225 0  0.1 0.225 0  0.125 0.225 0  0.15 0.225 0  0.175 0.225 0  0.2 0.225 0  0.225 0.225 0  0.25 0.225 0  0.275 0.225 0  0.3 0.225 0  0.325 0.225 0  0.35 0.225 0  0.375 0.225 0  0.4 0.225 0  0.425 0.225 0  0.45 0.225 0  0.475 0.225 0  0.5 0.225 0  0.525 0.225 0  0.55 0.225 0  0.575 0.225 0  0.6 0.225 0  0.625 0.225 0  0.65 0.225 0  0.675 0.225 0  0.7 0.225 0  0.725 0.225 0  0.75 0.225 0  0.775 0.225 0  0.8 0.225 0  0.825 0.225 0  0.85 0.225 0  0.875 0.225 0  0.9 0.225 0  0.925 0.225 0  0.95 0.225 0  0.975 0.225 0  1 0.225 0  0 0.25 0  0.025 0.25 0  0.05 0.25 0  0.075 0.25 0  0.1 0.25 0  0.125 0.25 0  0.15 0.25 0  0.175 0.25 0  0.2 0.25 0  0.225 0.25 0  0.25 0.25 0  0.275 0.25 0  0.3 0.25 0  0.325 0.25 0  0.35 0.25 0  0.375 0.25 0  0.4 0.25 0  0.425 0.25 0  0.45 0.25 0  0.475 0.25 0  0.5 0.25 0  0.525 0.25 0  0.55 0.25 0  0.575 0.25 0  0.6 0.25 0  0.625 0.25 0  0.65 0.25 0  0.675 0.25 0  0.7 0.25 0  0.725 0.25 0  0.75 0.25 0  0.775 0.25 0  0.8 0.25 0  0.825 0.25 0  0.85 0.25 0  0.875 0.25 0  0.9 0.25 0  0.925 0.25 0  0.95 0.25 0  0.975 0.25 0  1 0.25 0  0 0.275 0  0.025 0.275 0  0.05 0.275 0  0.075 0.275 0  0.1 0.275 0  0.125 0.275 0  0.15 0.275 0  0.175 0.275 0  0.2 0.275 0  0.225 0.275 0  0.25 0.275 0  0.275 0.275 0  0.3 0.275 0  0.325 0.275 0  0.35 0.275 0  0.375 0.275 0  0.4 0.275 0  0.425 0.275 0  0.45 0.275 0  0.475 0.275 0  0.5 0.275 0  0.525 0.275 0  0.55 0.275 0  0.575 0.275 0  0.6 0.275 0  0.625 0.275 0  0.65 0.275 0  0.675 0.275 0  0.7 0.275 0  0.725 0.275 0  0.75 0.275 0  0.775 0.275 0  0.8 0.275 0  0.825 0.275 0  0.85 0.275 0  0.875 0.275 0  0.9 0.275 0  0.925 0.275 0  0.95 0.275 0  0.975 0.275 0  1 0.275 0  0 0.3 0  0.025 0.3 0  0.05 0.3 0  0.075 0.3 0  0.1 0.3 0  0.125 0.3 0  0.15 0.3 0  0.175 0.3 0  0.2 0.3 0  0.225 0.3 0  0.25 0.3 0  0.275 0.3 0  0.3 0.3 0  0.325 0.3 0  0.35 0.3 0  0.375 0.3 0  0.4 0.3 0  0.425 0.3 0  0.45 0.3 0  0.475 0.3 0  0.5 0.3 0  0.525 0.3 0  0.55 0.3 0  0.575 0.3 0  0.6 0.3 0  0.625 0.3 0  0.65 0.3 0  0.675 0.3 0  0.7 0.3 0  0.725 0.3 0  0.75 0.3 0  0.775 0.3 0  0.8 0.3 0  0.825 0.3 0  0.85 0.3 0  0.875 0.3 0  0.9 0.3 0  0.925 0.3 0  0.95 0.3 0  0.975 0.3 0  1 0.3 0  0 0.325 0  0.025 0.325 0  0.05 0.325 0  0.075 0.325 0  0.1 0.325 0  0.125 0.325 0  0.15 0.325 0  0.175 0.325 0  0.2 0.325 0  0.225 0.325 0  0.25 0.325 0  0.275 0.325 0  0.3 0.325 0  0.325 0.325 0  0.35 0.325 0  0.375 0.325 0  0.4 0.325 0  0.425 0.325 0  0.45 0.325 0  0.475 0.325 0  0.5 0.325 0  0.525 0.325 0  0.55 0.325 0  0.575 0.325 0  0.6 0.325 0  0.625 0.325 0  0.65 0.325 0  0.675 0.325 0  0.7 0.325 0  0.725 0.325 0  0.75 0.325 0  0.775 0.325 0  0.8 0.325 0  0.825 0.325 0  0.85 0.325 0  0.875 0.325 0  0.9 0.325 0  0.925 0.325 0  0.95 0.325 0  0.975 0.325 0  1 0.325 0  0 0.35 0  0.025 0.35 0  0.05 0.35 0  0.075 0.35 0  0.1 0.35 0  0.125 0.35 0  0.15 0.35 0  0.175 0.35 0  0.2 0.35 0  0.225 0.35 0  0.25 0.35 0  0.275 0.35 0  0.3 0.35 0  0.325 0.35 0  0.35 0.35 0  0.375 0.35 0  0.4 0.35 0  0.425 0.35 0  0.45 0.35 0  0.475 0.35 0  0.5 0.35 0  0.525 0.35 0  0.55 0.35 0  0.575 0.35 0  0.6 0.35 0  0.625 0.35 0  0.65 0.35 0  0.675 0.35 0  0.7 0.35 0  0.725 0.35 0  0.75 0.35 0  0.775 0.35 0  0.8 0.35 0  0.825 0.35 0  0.85 0.35 0  0.875 0.35 0  0.9 0.35 0  0.925 0.35 0  0.95 0.35 0  0.975 0.35 0  1 0.35 0  0 0.375 0  0.025 0.375 0  0.05 0.375 0  0.075 0.375 0  0.1 0.375 0  0.125 0.375 0  0.15 0.375 0  0.175 0.375 0  0.2 0.375 0  0.225 0.375 0  0.25 0.375 0  0.275 0.375 0  0.3 0.375 0  0.325 0.375 0  0.35 0.375 0  0.375 0.375 0  0.4 0.375 0  0.425 0.375 0  0.45 0.375 0  0.475 0.375 0  0.5 0.375 0  0.525 0.375 0  0.55 0.375 0  0.575 0.375 0  0.6 0.375 0  0.625 0.375 0  0.65 0.375 0  0.675 0.375 0  0.7 0.375 0  0.725 0.375 0  0.75 0.375 0  0.775 0.375 0  0.8 0.375 0  0.825 0.375 0  0.85 0.375 0  0.875 0.375 0  0.9 0.375 0  0.925 0.375 0  0.95 0.375 0  0.975 0.375 0  1 0.375 0  0 0.4 0  0.025 0.4 0  0.05 0.4 0  0.075 0.4 0  0.1 0.4 0  0.125 0.4 0  0.15 0.4 0  0.175 0.4 0  0.2 0.4 0  0.225 0.4 0  0.25 0.4 0  0.275 0.4 0  0.3 0.4 0  0.325 0.4 0  0.35 0.4 0  0.375 0.4 0  0.4 0.4 0  0.425 0.4 0  0.45 0.4 0  0.475 0.4 0  0.5 0.4 0  0.525 0.4 0  0.55 0.4 0  0.575 0.4 0  0.6 0.4 0  0.625 0.4 0  0.65 0.4 0  0.675 0.4 0  0.7 0.4 0  0.725 0.4 0  0.75 0.4 0  0.775 0.4 0  0.8 0.4 0  0.825 0.4 0  0.85 0.4 0  0.875 0.4 0  0.9 0.4 0  0.925 0.4 0  0.95 0.4 0  0.975 0.4 0  1 0.4 0  0 0.425 0  0.025 0.425 0  0.05 0.425 0  0.075 0.425 0  0.1 0.425 0  0.125 0.425 0  0.15 0.425 0  0.175 0.425 0  0.2 0.425 0  0.225 0.425 0  0.25 0.425 0  0.275 0.425 0  0.3 0.425 0  0.325 0.425 0  0.35 0.425 0  0.375 0.425 0  0.4 0.425 0  0.425 0.425 0  0.45 0.425 0  0.475 0.425 0  0.5 0.425 0  0.525 0.425 0  0.55 0.425 0  0.575 0.425 0  0.6 0.425 0  0.625 0.425 0  0.65 0.425 0  0.675 0.425 0  0.7 0.425 0  0.725 0.425 0  0.75 0.425 0  0.775 0.425 0  0.8 0.425 0  0.825 0.425 0  0.85 0.425 0  0.875 0.425 0  0.9 0.425 0  0.925 0.425 0  0.95 0.425 0  0.975 0.425 0  1 0.425 0  0 0.45 0  0.02
[...]
<PointData  Scalars="ControlVisualisation"> 
<DataArray  type="Float64"  Name="ControlVisualisation"  format="ascii">2.9083194358765480e-01  2.7392385717149886e-01  2.7392646502884016e-01  2.7393382734872251e-01  2.7394593381062543e-01  2.7396226296793125e-01  2.7398224437737656e-01  2.7400524768477724e-01  2.7403057437250422e-01  2.7405747138574599e-01  2.7408515636470432e-01  2.7411284313315798e-01  2.7413976525838624e-01  2.7416519669518508e-01  2.7418846910459815e-01  2.7420898581702818e-01  2.7422623263068441e-01  2.7423978581407249e-01  2.7424931775826361e-01  2.7425460075861707e-01  2.7425550933948351e-01  2.7425202144551269e-01  2.7424421868424176e-01  2.7423228565249680e-01  2.7421650821534338e-01  2.7419727046288223e-01  2.7417504995236797e-01  2.7415041077758834e-01  2.7412399398260662e-01  2.7409650491269200e-01  2.7406869722541194e-01  2.7404135349602965e-01  2.7401526268825660e-01  2.7399119514956288e-01  2.7396987691875618e-01  2.7395196872275157e-01  2.7393806305053875e-01  2.7392869549009069e-01  2.7392421126503713e-01  2.7392364554915943e-01  3.0806913181680434e-01  2.7392385306970357e-01  2.2510560355645937e-01  2.2514089043055935e-01  2.2521587399243431e-01  2.2533452209665278e-01  2.2549361719604433e-01  2.2568789420458507e-01  2.2591134233876289e-01  2.2615729955635747e-01  2.2641860930310459e-01  2.2668784407388293e-01  2.2695753667974203e-01  2.2722039820201026e-01  2.2746951002501348e-01  2.2769848555378591e-01  2.2790160083733235e-01  2.2807389570032213e-01  2.2821124872039716e-01  2.2831043025039841e-01  2.2836913796225849e-01  2.2838601894496036e-01  2.2836068156077768e-01  2.2829369902872329e-01  2.2818660529159218e-01  2.2804188227321270e-01  2.2786293621340736e-01  2.2765405963184238e-01  2.2742037469118387e-01  2.2716775344252069e-01  2.2690271081503860e-01  2.2663226731364214e-01  2.2636378023946227e-01  2.2610474515698303e-01  2.2586257276827504e-01  2.2564435487546089e-01  2.2545664517458430e-01  2.2530527445937573e-01  2.2519506381656557e-01  2.2512820443445503e-01  2.2509937599454410e-01  2.7392364433997002e-01  2.7392646707377477e-01  2.2514131775653251e-01  2.2523866828096845e-01  2.2539472429475688e-01  2.2562667244615195e-01  2.2593452617041337e-01  2.2630989464054763e-01  2.2674156234173770e-01  2.2721676622001810e-01  2.2772178424043338e-01  2.2824237995296787e-01  2.2876424149136732e-01  2.2927339261489518e-01  2.2975655629769198e-01  2.3020146219708112e-01  2.3059709556685390e-01  2.3093389032062042e-01  2.3120387235219919e-01  2.3140076105104060e-01  2.3152003746232414e-01  2.3155898682298950e-01  2.3151672167020154e-01  2.3139418943850712e-01  2.3119416578856100e-01  2.3092123222083571e-01  2.3058173384735198e-01  2.3018371094620743e-01  2.2973679645035702e-01  2.2925207079675064e-01  2.2874186624097081e-01  2.2821951462343629e-01  2.2769903607552353e-01  2.2719477139213315e-01  2.2672096668178426e-01  2.2629132718751885e-01  2.2591853461502234e-01  2.2561359305415002e-01  2.2538406515574119e-01  2.2522800864277343e-01  2.2512837786393630e-01  2.7392419876045432e-01  2.7393403731963917e-01  2.2521921425036834e-01  2.2540044294847791e-01  2.2560648211364309e-01  2.2588281176890052e-01  2.2624249244923239e-01  2.2667954113014732e-01  2.2718177646890159e-01  2.2773452907459046e-01  2.2832187825644656e-01  2.2892728907114626e-01  2.2953414937473066e-01  2.3012624713469537e-01  2.3068818981224598e-01  2.3120575781735622e-01  2.3166618982000056e-01  2.3205840334900849e-01  2.3237315789106805e-01  2.3260316989263713e-01  2.3274318959893975e-01  2.3279004880283169e-01  2.3274268677389873e-01  2.3260215896380954e-01  2.3237163000083361e-01  2.3205634933191549e-01  2.3166360477130007e-01  2.3120264654367914e-01  2.3068457265834524e-01  2.3012216553387430e-01  2.2952967044431732e-01  2.2892250855188470e-01  2.2831692109953944e-01  2.2772954692319380e-01  2.2717693905390840e-01  2.2667501958625560e-01  2.2623837969125582e-01  2.2587890913017289e-01  2.2560136845896048e-01  2.2538925656321279e-01  2.2519719523214282e-01  2.7392871687501874e-01  2.7394704847875290e-01  2.2534800971893448e-01  2.2565226017408047e-01  2.2590561077390500e-01  2.2620176474099712e-01  2.2657631035432513e-01  2.2702894851246053e-01  2.2754838596739790e-01  2.2811970765171083e-01  2.2872647266390103e-01  2.2935158155905341e-01  2.2997787884300544e-01  2.3058865513548787e-01  2.3116807880967427e-01  2.3170155420006480e-01  2.3217600697875129e-01  2.3258010158048492e-01  2.3290439922821873e-01  2.3314146714470571e-01  2.3328594991315724e-01  2.3333461284744456e-01  2.3328636517930523e-01  2.3314226801541418e-01  2.3290552868233610e-01  2.3258147970158566e-01  2.3217753732384994e-01  2.3170313168358367e-01  2.3116959851482721e-01  2.3059002139348497e-01  2.2997901375225618e-01  2.2935243206609296e-01  2.2872701518716479e-01  2.2811994954611706e-01  2.2754835886713970e-01  2.2702868921867000e-01  2.2657576812835079e-01  2.2620046741567337e-01  2.2590136513970971e-01  2.2563764715046547e-01  2.2531531169869565e-01  2.7393847565681340e-01  2.7396578724127091e-01  2.2553223095492214e-01  2.2600889282095493e-01  2.2632172499603390e-01  2.2663431483606855e-01  2.2701485779169617e-01  2.2747132451615684e-01  2.2799408698043330e-01  2.2856842700597294e-01  2.2917780521186390e-01  2.2980500534617124e-01  2.3043279960020810e-01  2.3104446748392765e-01  2.3162422633568969e-01  2.3215757972080203e-01  2.3263158805594703e-01  2.3303506872125063e-01  2.3335873630283321e-01  2.3359529524616268e-01  2.3373949718404016e-01  2.3378817374521188e-01  2.3374025326726783e-01  2.3359676667883367e-01  2.3336084432708559e-01  2.3303770185595346e-01  2.3263460969452707e-01  2.3216083765579737e-01  2.3162756356129519e-01  2.3104773352513364e-01  2.3043586142201425e-01  2.2980775679941023e-01  2.2918017367412319e-01  2.2857037631238131e-01  2.2799561159673731e-01  2.2747242334826534e-01  2.2701541911110890e-01  2.2663364913033873e-01  2.2631680303982363e-01  2.2598955733828657e-01  2.2548766837110396e-01  2.7395375370881647e-01  2.7399080169121542e-01  2.2577730944028451e-01  2.2648249238790488e-01  2.2687263822394227e-01  2.2720437439299321e-01  2.2758941426501178e-01  2.2804681594988485e-01  2.2856923838309817e-01  2.2914231227909851e-01  2.2974949771952607e-01  2.3037357472445594e-01  2.3099738169477030e-01  2.3160434759182752e-01  2.3217891448642869e-01  2.3270686821727449e-01  2.3317558544186448e-01  2.3357420759232084e-01  2.3389375513808042e-01  2.3412719653084368e-01  2.3426948578141554e-01  2.3431758050113793e-01  2.3427044956797766e-01  2.3412907603933650e-01  2.3389645721296073e-01  2.3357759982999574e-01  2.3317950462659082e-01  2.3271113101701024e-01  2.3218332974656866e-01  2.3160872944748079e-01  2.3100156243288586e-01  2.3037741622626226e-01  2.2975289995383524e-01  2.2914521719333716e-01  2.2857162396657232e-01  2.2804866190454481e-01  2.2759055409647089e-01  2.2720389207961958e-01  2.2686658578689672e-01  2.2645770492362285e-01  2.2571954896060642e-01  2.7397495220017570e-01  2.7402289568854099e-01  2.2609092019818838e-01  2.2708813066375336e-01  2.2757675049223200e-01  2.2793221943322584e-01  2.2832189715429402e-01  2.2877912046156584e-01  2.2929952955566549e-01  2.2986923925802213e-01  2.3047175450043933e-01  2.3108990378060656e-01  2.3170666895368242e-01  2.3230572845292544e-01  2.3287186590266434e-01  2.3339127551478184e-01  2.3385177768389340e-01  2.3424295929963754e-01  2.3455625531780430e-01  2.3478498846459916e-01  2.3492438271991789e-01  2.3497156357242252e-01  2.3492555481733124e-01  2.3478727785184589e-01  2.3455955549307972e-01  2.3424711822658226e-01  2.3385660680595760e-01  2.3339656131880698e-01  2.3287738347180348e-01  2.3231125622282739e-01  2.3171200357329605e-01  2.3109487372666826e-01  2.3047623071794712e-01  2.2987314041743095e-01  2.2930281537223537e-01  2.2878174877930793e-01  2.2832363481429918e-01  2.2793188353630037e-01  2.2756935181969470e-01  2.2705713460904531e-01  2.2601821068354783e-01  2.7400272752326188e-01  2.7406313299921237e-01  2.2648319649927051e-01  2.2784529513744131e-01  2.2845691374642169e-01  2.2884168910761549e-01  2.2923641218935226e-01  2.2969236748667904e-01  2.3020901376554842e-01  2.3077313450319581e-01  2.3136834384088517e-01  2.3197758419869360e-01  2.3258407015134860e-01  2.3317184119422762e-01  2.3372614941054168e-01  2.3423373098971703e-01  2.3468298199395693e-01  2.3506405760850735e-01  2.3536891497619550e-01  2.3559131903441524e-01  2.3572682862779226e-01  2.3577277680633169e-01  2.3572825552708088e-01  2.3559411092817373e-01  2.3537295117783427e-01  2.3506916489168483e-01  2.3468894385258784e-01  2.3424029976443628e-01  2.3373306085795345e-01  2.3317883081398694e-01  2.3259089017710588e-01  2.3198401978356387e-01  2.3137422638396996e-01  2.3077834900822697e-01  2.3021349135558294e-01  2.2969603254507670e-01  2.2923894564585293e-01  2.2884158976590885e-01  2.2844799381031766e-01  2.2780717114472404e-01  2.2639327001631365e-01  2.7403798841284821e-01  2.7411287364770753e-01  2.2696711027490818e-01  2.2877892733403729e-01  2.2954218663551917e-01  2.2996273442255227e-01  2.3036276827856578e-01  2.3081582136923601e-01  2.3132619306963817e-01  2.3188159242259393e-01  2.3246585449966389e-01  2.3306214386100652e-01  2.3365403830593412e-01  2.3422608917893298e-01  2.3476417902992364e-01  2.3525574908674590e-01  2.3568992605912353e-01  2.3605757302177258e-01  2.3635128821638143e-01  2.3656537358677349e-01  2.3669579147838171e-01  2.3674012393747212e-01  2.3669754481834468e-01  2.3656881081205183e-01  2.3635627337332488e-01  2.3606390959944001e-01  2.3569736603811872e-01  2.3526400510419682e-01  2.3477293952400413e-01  2.3423503601482731e-01  2.3366286592150098e-01  2.3307057843864493e-01  2.3247367074572958e-01  2.3188862400047555e-01  2.3133232492423528e-01  2.3082092515014546e-01  2.3036640925247434e-01  2.2996302259270621e-01  2.2953153354203590e-01  2.2873250722793720e-01  2.2685708726459208e-01  2.7408191492081713e-01  2.7417383825644887e-01  2.2755907377411455e-01  2.2992061876061431e-01  2.3086936507746664e-01  2.3133317413384924e-01  2.3173840784180658e-01  2.3218597742784711e-01  2.3268629656030865e-01  2.3322836230365870e-01  2.3379641670745754e-01  2.3437402317650161e-01  2.3494531880117200e-01  2.3549557770166307e-01  2.3601152677817958e-01  2.3648151721389629e-01  2.3689559281246073e-01  2.3724548602433676e-01  2.3752456909887662e-01  2.3772778384209539e-01  2.3785156890158254e-01  2.3789379862024082e-01  2.3785374312123087e-01  2.3773205520152196e-01  2.3753078592913682e-01  2.3725342717623205e-01  2.3690497571732338e-01  2.3649200925068736e-01  2.3602276009961043e-01  2.3550716747264677e-01  2.3495688417155713e-01  2.3438520965111848e-01  2.3380691720981464e-01  2.3323793197757967e-01  2.3269474597362880e-01  2.3219309472579758e-01  2.3174359815296791e-01  2.3133406260270289e-01  2.3085670495844321e-01  2.2986441736896385e-01  2.2742532641010171e-01  2.7413600811572503e-01  2.7424819583384397e-01  2.2827977002576849e-01  2.3131023630834330e-01  2.3248493190676014e-01  2.3300072142926948e-01  2.3341038612744000e-01  2.3384843127064570e-01  2.3433301028585615e-01  2.3485492920169573e-01  2.3539913807221494e-01  2.3594988045334953e-01  2.3649214533863547e-01  2.3701222493452456e-01  2.3749797314433371e-01  2.3793890791043551e-01  2.3832621239859253e-01  2.3865267209681612e-01  2.3891257794452608e-01  2.3910161938221586e-01  2.3921678529695337e-01  2.3925628546881197e-01  2.3921950071045925e-01  2.3910696625991573e-01  2.3892038998897649e-01  2.3866270415978980e-01  2.3833814642402934e-01  2.3795236205644407e-01  2.3751251477698149e-01  2.3702738802401374e-01  2.3650745218109170e-01  2.3596486685953474e-01  2.3541337931842349e-01  2.3486806075967792e-01  2.3434472347053073e-01  2.3385838071484738e-01  2.3341774790838371e-01  2.3300250199495831e-01  2.3246990092553030e-01  2.3124236262841275e-01  2.2811773662044604e-01  2.7420216360070887e-01  2.7433868167943420e-01  2.2915527817188550e-01  2.3299813143704878e-01  2.3444767887353660e-01  2.3502565604096770e-01  2.3543790517652030e-01  2.3586016943531543e-01  2.3632046806190718e-01  2.3681218258206693e-01  2.3732145362514045e-01  2.3783364595075923e-01  2.3833503296063255e-01  2.3881333520458520e-01  2.3925790310792180e-01  2.3965973748962949e-01  2.4001141841997362e-01  2.4030698467097372e-01  2.4054179437856860e-01  2.4071238906011433e-01  2.4081637609837178e-01  2.4085233930819694e-01  2.4081978336583956e-01  2.4071911498360088e-01  2.4055166189408883e-01  2.4031972907880747e-01  2.4002668956776363e-01  2.3967710450881058e-01  2.3927686304151685e-01  2.3883332685397585e-01  2.3835545691133692e-01  2.3785389089319520e-01  2.3734092684986882e-01  2.3683033793485064e-01  2.3633680613098573e-01  2.3587412932652124e-01  2.3544832491541168e-01  2.3502873226935522e-01  2.3442978474077408e-01  2.3291616284155947e-01  2.2895921075670855e-01  2.7428277093096065e-01  2.7444875613217773e-01  2.3021859753592999e-01  2.3504815527406017e-01  2.3683230195195223e-01  2.3748447203034795e-01  2.3789572263383882e-01  2.3829257818448979e-01  2.3871577906163019e-01  2.3916243699921169e-01  2.3962065537528521e-01  2.4007760516122689e-01  2.4052147706302940e-01  2.4094198224661070e-01  2.4133044054108319e-01  2.4167971168907953e-01  2.4198405557583383e-01  2.4223896553607493e-01  2.4244100210861735e-01  2.4258764431812208e-01  2.4267716831806191e-01  2.4270855840615996e-01  2.4268145271622774e-01  2.4259612437028674e-01  2.4245349841317201e-01  2.4225520476365447e-01  2.4200366673784787e-01  2.4170222345795309e-01  2.4135528160015629e-01  2.4096848700426346e-01  2.4054889914430530e-01  2.4010514050385678e-01  2.3964747447553103e-01  2.3918771995555627e-01  2.3873872217015341e-01  2.3831226924188567e-01  2.3791048471495793e-01  2.3748941067702178e-01  2.3681086416049271e-01  2.3494895566651114e-01  2.2998121662704241e-01  2.7438084713323235e-01  2.7458281965533982e-01  2.3151172871947495e-01  2.3754181617196976e-01  2.3973439520880122e-01  2.4047493241295351e-01  2.4087881311729675e-01  2.4123546245006469e-01  2.4160228980617296e-01  2.4198191732426230e-01  2.4236564820747716e-01  2.4274351536366195e-01  2.4310654079936905e-01  2.4344718014834998e-01  2.4375930591211062e-01  2.4403805745624391e-01  2.4427965485843339e-01  2.4448121576281215e-01  2.4464059339987154e-01  2.4475624373944022e-01  2.4482712385268113e-01  2.4485262058737506e-01  2.4483250783819763e-01  2.4476693089163121e-01  2.4465641740203659e-01  2.4450191588744297e-01  2.4430486370862806e-01  2.4406728692761009e-01  2.4379193370483898e-01  2.4348244008308256e-01  2.4314352106278475e-01  2.4278116914529163e-01  2.4240281979935047e-01  2.4201737930567668e-01  2.4163475464559464e-01  2.4126343997949395e-01  2.4089981724019471e-01  2.4048254780948200e-01  2.3970845070109872e-01  2.3742126785290218e-01  2.3122374645123656e-01  2.7450021692953236e-01  2.7474650606682050e-01  2.3308854341775620e-01  2.4058408736523576e-01  2.4327749467566173e-01  2.4412318326704652e-01  2.4450882592577874e-01  2.4480245472293627e-01  2.4508378893143803e-01  2.4536376915296138e-01  2.4563888359774796e-01  2.4590363845533794e-01  2.4615318043579401e-01  2.4638368381067102e-01  2.4659224758775772e-01  2.4677670799677368e-01  2.4693546317252932e-01  2.4706733285743199e-01  2.4717145470715263e-01  2.4724721196264257e-01  2.4729418566263919e-01  2.4731212456397705e-01  2.4730092769256132e-01  2.4726063621025787e-01  2.4719143348991746e-01  2.4709365470074982e-01  2.4696780935430274e-01  2.4681462261618192e-01  2.4663510302205582e-01  2.4643064507212697e-01  2.4620317381133863e-01  2.4595533252217786e-01  2.4569069020176806e-01  2.4541386541269547e-01  2.4513012400460377e-01  2.4484258348046650e-01  2.4453895307038676e-01  2.4413468489331097e-01  2.4324564860594161e-01  2.4043668700198537e-01  2.3273799691455754e-01  2.7464575754956116e-01  2.7494708330213580e-01  2.3501878267157353e-01  2.4431164562929550e-01  2.4762319778787942e-01  2.4859394353463643e-01  2.4894314704122264e-01  2.4913832557542107e-01  2.4928987429185040e-01  2.4942158015123772e-01  2.4953830116226511e-01  2.4964143763924790e-01  2.4973202984710213e-01  2.4981114996097431e-01  2.4987980685918396e-01  2.4993883726998595e-01  2.4998885872764476e-01  2.5003027594321070e-01  2.5006331918149555e-01  2.5008809552900546e-01  2.5010463925569559e-01  2.5011295187126859e-01  2.5011302600132218e-01  2.5010484992461335e-01  2.5008839148985418e-01  2.5006356220527892e-01  2.5003016433740521e-01  2.4998782701685002e-01  2.4993594137063363e-01  2.4987361028193378e-01  2.4979963536700842e-01  2.4971256714551690e-01  2.4961082957217223e-01  2.4949284684666481e-01  2.4935664842298169e-01  2.4919657819301205e-01  2.4898689678285421e-01  2.4861120550326882e-01  2.4758338973167920e-01  2.4412988440904809e-01  2.3459009057095909e-01  2.7482373280409578e-01  2.7519400048551501e-01  2.3739368807316336e-01  2.4890476597838024e-01  2.5298602080806437e-01  2.5410539260992837e-01  2.5438777587614908e-01  2.5442885893800993e-01  2.5438264683109341e-01  2.5429321908039992e-01  2.5417888312864279e-01  2.5405146870932915e-01  2.5392018484656548e-01  2.5379225422757723e-01  2.5367308333452082e-01  2.5356648087408856e-01  2.5347495020588573e-01  2.5340000537488439e-01  2.5334246823244377e-01  2.5330272193435849e-01  2.5328090949007087e-01  2.5327707362852891e-01  2.5329123764035422e-01  2.5332342767161414e-01  2.5337363619632219e-01  2.5344172541436577e-01  2.5352726866861586e-01  2.5362932917828934e-01  2.5374617913418962e-01  2.5387497160607697e-01  2.5401139356972946e-01  2.5414934735501671e-01  2.5428072611745184e-01  2.5439526184251748e-01  2.5447986966709296e-01  2.5451461141230169e-01  2.5445237694919776e-01  2.5413149944990698e-01  2.5293519319387514e-01  2.4867815402754456e-01  2.3686628389794118e-01  2.7504224911721953e-01  2.7549962568011038e-01  2.4033396668112711e-01  2.5460486611132593e-01  2.5965579040367304e-01  2.6095140129386912e-01  2.6111581033142300e-01  2.6091405186465050e-01  2.6056464878074420e-01  2.6014439473712053e-01  2.5969300930752526e-01  2.5923764620026291e-01  2.5879827149357315e-01  2.5838919274048910e-01  2.5802007223748424e-01  2.5769693708323033e-01  2.5742314905644836e-01  2.5720025649733486e-01  2.5702869056326860e-01  2.5690830180270474e-01  2.5683874998486023e-01  2.5681976487105673e-01  2.5685129338279167e-01  2.5693354303346738e-01  2.5706692403641457e-01  2.5725188473852073e-01  2.5748862749048645e-01  2.5777668616361515e-01  2.5811434412635770e-01  2.5849787804032220e-01  2.5892062965998069e-01  2.5937195055498818e-01  2.5983611635100107e-01  2.6029123242706126e-01  2.6070765238454707e-01  2.6104242043582293e-01  2.6121348552557128e-01  2.6099186263594459e-01  2.5958936290008094e-01  2.5431832823015493e-01  2.3968035343339403e-01  2.7531187940249646e-01  2.7588014990723536e-01  2.4400119456106314e-01  2.6174115025628969e-01  2.6803245249866681e-01  2.6953550528769032e-01  2.6949407606421361e-01  2.6890520095141979e-01  2.6808723993252637e-01  2.6717048660646686e-01  2.6622806484443845e-01  2.6530853320928494e-01  2.6444475062408107e-01  2.6365782146085015e-01  2.6296007766317153e-01  2.6235764177012338e-01  2.6185254302490274e-01  2.6144436636571911e-01  2.6113147620906352e-01  2.6091188728425457e-01  2.6078385737849880e-01  2.6074626478070884e-01  2.6079881552572415e-01  2.6094210676989910e-01  2.6117755358592853e-01  2.6150716746659763e-01  2.6193315527855537e-01  2.6245728693587844e-01  2.6307996095864078e-01  2.6379888331246953e-01  2.6460727412780566e-01  2.6549156436185234e-01  2.6642857958218058e-01  2.6738227082801214e-01  2.6829953946638752e-01  2.6910064720631005e-01  2.6964532684833814e-01  2.6960013479480044e-01  2.6794391456213812e-01  2.6137277941402709e-01  2.4318408335462721e-01  2.7564646271326965e-01  2.7635675137920446e-01  2.4861475167671973e-01  2.7077227025123934e-01  2.7868243369360618e-01  2.8042392879080946e-01  2.8002096990186531e-01  2.7880525197708411e-01  2.7725678951284838e-01  2.755935372