<?xml version="1.0"?>
<VTKFile type="UnstructuredGrid"  version="0.1"  >
<UnstructuredGrid>
<Piece  NumberOfPoints="1681" NumberOfCells="3200">
<Points>
<DataArray  type="Float64"  NumberOfComponents="3"  format="ascii">0 0 0  0.025 0 0  0.05 0 0  0.075 0 0  0.1 0 0  0.125 0 0  0.15 0 0  0.175 0 0  0.2 0 0  0.225 0 0  0.25 0 0  0.275 0 0  0.3 0 0  0.325 0 0  0.35 0 0  0.375 0 0  0.4 0 0  0.425 0 0  0.45 0 0  0.475 0 0  0.5 0 0  0.525 0 0  0.55 0 0  0.575 0 0  0.6 0 0  0.625 0 0  0.65 0 0  0.675 0 0  0.7 0 0  0.725 0 0  0.75 0 0  0.775 0 0  0.8 0 0  0.825 0 0  0.85 0 0  0.875 0 0  0.9 0 0  0.925 0 0  0.95 0 0  0.975 0 0  1 0 0  0 0.025 0  0.025 0.025 0  0.05 0.025 0  0.075 0.025 0  0.1 0.025 0  0.125 0.025 0  0.15 0.025 0  0.175 0.025 0  0.2 0.025 0  0.225 0.025 0  0.25 0.025 0  0.275 0.025 0  0.3 0.025 0  0.325 0.025 0  0.35 0.025 0  0.375 0.025 0  0.4 0.025 0  0.425 0.025 0  0.45 0.025 0  0.475 0.025 0  0.5 0.025 0  0.525 0.025 0  0.55 0.025 0  0.575 0.025 0  0.6 0.025 0  0.625 0.025 0  0.65 0.025 0  0.675 0.025 0  0.7 0.025 0  0.725 0.025 0  0.75 0.025 0  0.775 0.025 0  0.8 0.025 0  0.825 0.025 0  0.85 0.025 0  0.875 0.025 0  0.9 0.025 0  0.925 0.025 0  0.95 0.025 0  0.975 0.025 0  1 0.025 0  0 0.05 0  0.025 0.05 0  0.05 0.05 0  0.075 0.05 0  0.1 0.05 0  0.125 0.05 0  0.15 0.05 0  0.175 0.05 0  0.2 0.05 0  0.225 0.05 0  0.25 0.05 0  0.275 0.05 0  0.3 0.05 0  0.325 0.05 0  0.35 0.05 0  0.375 0.05 0  0.4 0.05 0  0.425 0.05 0  0.45 0.05 0  0.475 0.05 0  0.5 0.05 0  0.525 0.05 0  0.55 0.05 0  0.575 0.05 0  0.6 0.05 0  0.625 0.05 0  0.65 0.05 0  0.675 0.05 0  0.7 0.05 0  0.725 0.05 0  0.75 0.05 0  0.775 0.05 0  0.8 0.05 0  0.825 0.05 0  0.85 0.05 0  0.875 0.05 0  0.9 0.05 0  0.925 0.05 0  0.95 0.05 0  0.975 0.05 0  1 0.05 0  0 0.075 0  0.025 0.075 0  0.05 0.075 0  0.075 0.075 0  0.1 0.075 0  0.125 0.075 0  0.15 0.075 0  0.175 0.075 0  0.2 0.075 0  0.225 0.075 0  0.25 0.075 0  0.275 0.075 0  0.3 0.075 0  0.325 0.075 0  0.35 0.075 0  0.375 0.075 0  0.4 0.075 0  0.425 0.075 0  0.45 0.075 0  0.475 0.075 0  0.5 0.075 0  0.525 0.075 0  0.55 0.075 0  0.575 0.075 0  0.6 0.075 0  0.625 0.075 0  0.65 0.075 0  0.675 0.075 0  0.7 0.075 0  0.725 0.075 0  0.75 0.075 0  0.775 0.075 0  0.8 0.075 0  0.825 0.075 0  0.85 0.075 0  0.875 0.075 0  0.9 0.075 0  0.925 0.075 0  0.95 0.075 0  0.975 0.075 0  1 0.075 0  0 0.1 0  0.025 0.1 0  0.05 0.1 0  0.075 0.1 0  0.1 0.1 0  0.125 0.1 0  0.15 0.1 0  0.175 0.1 0  0.2 0.1 0  0.225 0.1 0  0.25 0.1 0  0.275 0.1 0  0.3 0.1 0  0.325 0.1 0  0.35 0.1 0  0.375 0.1 0  0.4 0.1 0  0.425 0.1 0  0.45 0.1 0  0.475 0.1 0  0.5 0.1 0  0.525 0.1 0  0.55 0.1 0  0.575 0.1 0  0.6 0.1 0  0.625 0.1 0  0.65 0.1 0  0.675 0.1 0  0.7 0.1 0  0.725 0.1 0  0.75 0.1 0  0.775 0.1 0  0.8 0.1 0  0.825 0.1 0  0.85 0.1 0  0.875 0.1 0  0.9 0.1 0  0.925 0.1 0  0.95 0.1 0  0.975 0.1 0  1 0.1 0  0 0.125 0  0.025 0.125 0  0.05 0.125 0  0.075 0.125 0  0.1 0.125 0  0.125 0.125 0  0.15 0.125 0  0.175 0.125 0  0.2 0.125 0  0.225 0.125 0  0.25 0.125 0  0.275 0.125 0  0.3 0.125 0  0.325 0.125 0  0.35 0.125 0  0.375 0.125 0  0.4 0.125 0  0.425 0.125 0  0.45 0.125 0  0.475 0.125 0  0.5 0.125 0  0.525 0.125 0  0.55 0.125 0  0.575 0.125 0  0.6 0.125 0  0.625 0.125 0  0.65 0.125 0  0.675 0.125 0  0.7 0.125 0  0.725 0.125 0  0.75 0.125 0  0.775 0.125 0  0.8 0.125 0  0.825 0.125 0  0.85 0.125 0  0.875 0.125 0  0.9 0.125 0  0.925 0.125 0  0.95 0.125 0  0.975 0.125 0  1 0.125 0  0 0.15 0  0.025 0.15 0  0.05 0.15 0  0.075 0.15 0  0.1 0.15 0  0.125 0.15 0  0.15 0.15 0  0.175 0.15 0  0.2 0.15 0  0.225 0.15 0  0.25 0.15 0  0.275 0.15 0  0.3 0.15 0  0.325 0.15 0  0.35 0.15 0  0.375 0.15 0  0.4 0.15 0  0.425 0.15 0  0.45 0.15 0  0.475 0.15 0  0.5 0.15 0  0.525 0.15 0  0.55 0.15 0  0.575 0.15 0  0.6 0.15 0  0.625 0.15 0  0.65 0.15 0  0.675 0.15 0  0.7 0.15 0  0.725 0.15 0  0.75 0.15 0  0.775 0.15 0  0.8 0.15 0  0.825 0.15 0  0.85 0.15 0  0.875 0.15 0  0.9 0.15 0  0.925 0.15 0  0.95 0.15 0  0.975 0.15 0  1 0.15 0  0 0.175 0  0.025 0.175 0  0.05 0.175 0  0.075 0.175 0  0.1 0.175 0  0.125 0.175 0  0.15 0.175 0  0.175 0.175 0  0.2 0.175 0  0.225 0.175 0  0.25 0.175 0  0.275 0.175 0  0.3 0.175 0  0.325 0.175 0  0.35 0.175 0  0.375 0.175 0  0.4 0.175 0  0.425 0.175 0  0.45 0.175 0  0.475 0.175 0  0.5 0.175 0  0.525 0.175 0  0.55 0.175 0  0.575 0.175 0  0.6 0.175 0  0.625 0.175 0  0.65 0.175 0  0.675 0.175 0  0.7 0.175 0  0.725 0.175 0  0.75 0.175 0  0.775 0.175 0  0.8 0.175 0  0.825 0.175 0  0.85 0.175 0  0.875 0.175 0  0.9 0.175 0  0.925 0.175 0  0.95 0.175 0  0.975 0.175 0  1 0.175 0  0 0.2 0  0.025 0.2 0  0.05 0.2 0  0.075 0.2 0  0.1 0.2 0  0.125 0.2 0  0.15 0.2 0  0.175 0.2 0  0.2 0.2 0  0.225 0.2 0  0.25 0.2 0  0.275 0.2 0  0.3 0.2 0  0.325 0.2 0  0.35 0.2 0  0.375 0.2 0  0.4 0.2 0  0.425 0.2 0  0.45 0.2 0  0.475 0.2 0  0.5 0.2 0  0.525 0.2 0  0.55 0.2 0  0.575 0.2 0  0.6 0.2 0  0.625 0.2 0  0.65 0.2 0  0.675 0.2 0  0.7 0.2 0  0.725 0.2 0  0.75 0.2 0  0.775 0.2 0  0.8 0.2 0  0.825 0.2 0  0.85 0.2 0  0.875 0.2 0  0.9 0.2 0  0.925 0.2 0  0.95 0.2 0  0.975 0.2 0  1 0.2 0  0 0.225 0  0.025 0.225 0  0.05 0.225 0  0.075 0.225 0  0.1 0.225 0  0.125 0.225 0  0.15 0.225 0  0.175 0.225 0  0.2 0.225 0  0.225 0.225 0  0.25 0.225 0  0.275 0.225 0  0.3 0.225 0  0.325 0.225 0  0.35 0.225 0  0.375 0.225 0  0.4 0.225 0  0.425 0.225 0  0.45 0.225 0  0.475 0.225 0  0.5 0.225 0  0.525 0.225 0  0.55 0.225 0  0.575 0.225 0  0.6 0.225 0  0.625 0.225 0  0.65 0.225 0  0.675 0.225 0  0.7 0.225 0  0.725 0.225 0  0.75 0.225 0  0.775 0.225 0  0.8 0.225 0  0.825 0.225 0  0.85 0.225 0  0.875 0.225 0  0.9 0.225 0  0.925 0.225 0  0.95 0.225 0  0.975 0.225 0  1 0.225 0  0 0.25 0  0.025 0.25 0  0.05 0.25 0  0.075 0.25 0  0.1 0.25 0  0.125 0.25 0  0.15 0.25 0  0.175 0.25 0  0.2 0.25 0  0.225 0.25 0  0.25 0.25 0  0.275 0.25 0  0.3 0.25 0  0.325 0.25 0  0.35 0.25 0  0.375 0.25 0  0.4 0.25 0  0.425 0.25 0  0.45 0.25 0  0.475 0.25 0  0.5 0.25 0  0.525 0.25 0  0.55 0.25 0  0.575 0.25 0  0.6 0.25 0  0.625 0.25 0  0.65 0.25 0  0.675 0.25 0  0.7 0.25 0  0.725 0.25 0  0.75 0.25 0  0.775 0.25 0  0.8 0.25 0  0.825 0.25 0  0.85 0.25 0  0.875 0.25 0  0.9 0.25 0  0.925 0.25 0  0.95 0.25 0  0.975 0.25 0  1 0.25 0  0 0.275 0  0.025 0.275 0  0.05 0.275 0  0.075 0.275 0  0.1 0.275 0  0.125 0.275 0  0.15 0.275 0  0.175 0.275 0  0.2 0.275 0  0.225 0.275 0  0.25 0.275 0  0.275 0.275 0  0.3 0.275 0  0.325 0.275 0  0.35 0.275 0  0.375 0.275 0  0.4 0.275 0  0.425 0.275 0  0.45 0.275 0  0.475 0.275 0  0.5 0.275 0  0.525 0.275 0  0.55 0.275 0  0.575 0.275 0  0.6 0.275 0  0.625 0.275 0  0.65 0.275 0  0.675 0.275 0  0.7 0.275 0  0.725 0.275 0  0.75 0.275 0  0.775 0.275 0  0.8 0.275 0  0.825 0.275 0  0.85 0.275 0  0.875 0.275 0  0.9 0.275 0  0.925 0.275 0  0.95 0.275 0  0.975 0.275 0  1 0.275 0  0 0.3 0  0.025 0.3 0  0.05 0.3 0  0.075 0.3 0  0.1 0.3 0  0.125 0.3 0  0.15 0.3 0  0.175 0.3 0  0.2 0.3 0  0.225 0.3 0  0.25 0.3 0  0.275 0.3 0  0.3 0.3 0  0.325 0.3 0  0.35 0.3 0  0.375 0.3 0  0.4 0.3 0  0.425 0.3 0  0.45 0.3 0  0.475 0.3 0  0.5 0.3 0  0.525 0.3 0  0.55 0.3 0  0.575 0.3 0  0.6 0.3 0  0.625 0.3 0  0.65 0.3 0  0.675 0.3 0  0.7 0.3 0  0.725 0.3 0  0.75 0.3 0  0.775 0.3 0  0.8 0.3 0  0.825 0.3 0  0.85 0.3 0  0.875 0.3 0  0.9 0.3 0  0.925 0.3 0  0.95 0.3 0  0.975 0.3 0  1 0.3 0  0 0.325 0  0.025 0.325 0  0.05 0.325 0  0.075 0.325 0  0.1 0.325 0  0.125 0.325 0  0.15 0.325 0  0.175 0.325 0  0.2 0.325 0  0.225 0.325 0  0.25 0.325 0  0.275 0.325 0  0.3 0.325 0  0.325 0.325 0  0.35 0.325 0  0.375 0.325 0  0.4 0.325 0  0.425 0.325 0  0.45 0.325 0  0.475 0.325 0  0.5 0.325 0  0.525 0.325 0  0.55 0.325 0  0.575 0.325 0  0.6 0.325 0  0.625 0.325 0  0.65 0.325 0  0.675 0.325 0  0.7 0.325 0  0.725 0.325 0  0.75 0.325 0  0.775 0.325 0  0.8 0.325 0  0.825 0.325 0  0.85 0.325 0  0.875 0.325 0  0.9 0.325 0  0.925 0.325 0  0.95 0.325 0  0.975 0.325 0  1 0.325 0  0 0.35 0  0.025 0.35 0  0.05 0.35 0  0.075 0.35 0  0.1 0.35 0  0.125 0.35 0  0.15 0.35 0  0.175 0.35 0  0.2 0.35 0  0.225 0.35 0  0.25 0.35 0  0.275 0.35 0  0.3 0.35 0  0.325 0.35 0  0.35 0.35 0  0.375 0.35 0  0.4 0.35 0  0.425 0.35 0  0.45 0.35 0  0.475 0.35 0  0.5 0.35 0  0.525 0.35 0  0.55 0.35 0  0.575 0.35 0  0.6 0.35 0  0.625 0.35 0  0.65 0.35 0  0.675 0.35 0  0.7 0.35 0  0.725 0.35 0  0.75 0.35 0  0.775 0.35 0  0.8 0.35 0  0.825 0.35 0  0.85 0.35 0  0.875 0.35 0  0.9 0.35 0  0.925 0.35 0  0.95 0.35 0  0.975 0.35 0  1 0.35 0  0 0.375 0  0.025 0.375 0  0.05 0.375 0  0.075 0.375 0  0.1 0.375 0  0.125 0.375 0  0.15 0.375 0  0.175 0.375 0  0.2 0.375 0  0.225 0.375 0  0.25 0.375 0  0.275 0.375 0  0.3 0.375 0  0.325 0.375 0  0.35 0.375 0  0.375 0.375 0  0.4 0.375 0  0.425 0.375 0  0.45 0.375 0  0.475 0.375 0  0.5 0.375 0  0.525 0.375 0  0.55 0.375 0  0.575 0.375 0  0.6 0.375 0  0.625 0.375 0  0.65 0.375 0  0.675 0.375 0  0.7 0.375 0  0.725 0.375 0  0.75 0.375 0  0.775 0.375 0  0.8 0.375 0  0.825 0.375 0  0.85 0.375 0  0.875 0.375 0  0.9 0.375 0  0.925 0.375 0  0.95 0.375 0  0.975 0.375 0  1 0.375 0  0 0.4 0  0.025 0.4 0  0.05 0.4 0  0.075 0.4 0  0.1 0.4 0  0.125 0.4 0  0.15 0.4 0  0.175 0.4 0  0.2 0.4 0  0.225 0.4 0  0.25 0.4 0  0.275 0.4 0  0.3 0.4 0  0.325 0.4 0  0.35 0.4 0  0.375 0.4 0  0.4 0.4 0  0.425 0.4 0  0.45 0.4 0  0.475 0.4 0  0.5 0.4 0  0.525 0.4 0  0.55 0.4 0  0.575 0.4 0  0.6 0.4 0  0.625 0.4 0  0.65 0.4 0  0.675 0.4 0  0.7 0.4 0  0.725 0.4 0  0.75 0.4 0  0.775 0.4 0  0.8 0.4 0  0.825 0.4 0  0.85 0.4 0  0.875 0.4 0  0.9 0.4 0  0.925 0.4 0  0.95 0.4 0  0.975 0.4 0  1 0.4 0  0 0.425 0  0.025 0.425 0  0.05 0.425 0  0.075 0.425 0  0.1 0.425 0  0.125 0.425 0  0.15 0.425 0  0.175 0.425 0  0.2 0.425 0  0.225 0.425 0  0.25 0.425 0  0.275 0.425 0  0.3 0.425 0  0.325 0.425 0  0.35 0.425 0  0.375 0.425 0  0.4 0.425 0  0.425 0.425 0  0.45 0.425 0  0.475 0.425 0  0.5 0.425 0  0.525 0.425 0  0.55 0.425 0  0.575 0.425 0  0.6 0.425 0  0.625 0.425 0  0.65 0.425 0  0.675 0.425 0  0.7 0.425 0  0.725 0.425 0  0.75 0.425 0  0.775 0.425 0  0.8 0.425 0  0.825 0.425 0  0.85 0.425 0  0.875 0.425 0  0.9 0.425 0  0.925 0.425 0  0.95 0.425 0  0.975 0.425 0  1 0.425 0  0 0.45 0  0.02
[...]
<PointData  Scalars="ControlVisualisation"> 
<DataArray  type="Float64"  Name="ControlVisualisation"  format="ascii">2.2352253594503399e-01  1.4654984489208497e-01  1.4664452757697530e-01  1.4709730307708493e-01  1.4793283173085112e-01  1.4903520498054978e-01  1.5025237493761850e-01  1.5145535469350671e-01  1.5255999310500667e-01  1.5352402927039668e-01  1.5433518761133724e-01  1.5499921488065899e-01  1.5553100306739093e-01  1.5594889403623527e-01  1.5627135557918251e-01  1.5651520261606910e-01  1.5669475017039713e-01  1.5682149302944565e-01  1.5690405753320544e-01  1.5694826959621713e-01  1.5695724595755386e-01  1.5693145620488577e-01  1.5686873076718014e-01  1.5676421148022940e-01  1.5661026180606966e-01  1.5639637842790760e-01  1.5610918029202131e-01  1.5573260396349189e-01  1.5524851373317713e-01  1.5463806370428659e-01  1.5388433416297476e-01  1.5297696101620659e-01  1.5191974139530129e-01  1.5074154228272352e-01  1.4950899119699168e-01  1.4833572740363599e-01  1.4737078233338907e-01  1.4675514105790305e-01  1.4653516298895400e-01  1.4656646742979132e-01  3.3695160406541236e-01  1.4654382313148059e-01  6.8233181988820418e-02  6.8692636324868245e-02  6.9766668537958820e-02  7.1552935917525651e-02  7.3963499304492905e-02  7.6827775704329776e-02  7.9958806056129539e-02  8.3175338924067088e-02  8.6314417577467023e-02  8.9244650355057548e-02  9.1875468398780302e-02  9.4158125245093510e-02  9.6079350744099457e-02  9.7651313249954658e-02  9.8901258420908383e-02  9.9862763221131717e-02  1.0056924721230082e-01  1.0104960605177490e-01  1.0132551118937722e-01  1.0140988143715957e-01  1.0130613352907236e-01  1.0100797546611776e-01  1.0049967960795381e-01  9.9756948878782503e-02  9.8748662437379259e-02  9.7439937859314846e-02  9.5797026390274514e-02  9.3794458717912671e-02  9.1424440353872816e-02  8.8707534439483843e-02  8.5702280487600202e-02  8.2510134841775579e-02  7.9272027786118568e-02  7.6157950816800393e-02  7.3354338156619486e-02  7.1050028637287890e-02  6.9410391187003748e-02  6.8490487600671363e-02  6.8152091755408165e-02  1.4656572208658852e-01  1.4657927302476359e-01  6.8671515165794936e-02  7.0252162807394755e-02  7.3150308949091372e-02  7.7925116945343001e-02  8.5049723895104096e-02  9.4872594065560978e-02  1.0735037155365337e-01  1.2184968450249015e-01  1.3730353687066785e-01  1.5257158148724170e-01  1.6673723848277286e-01  1.7922864394065408e-01  1.8979768847050177e-01  1.9843361935819023e-01  2.0526779432164746e-01  2.1049589390451581e-01  2.1432362350176834e-01  2.1693268835422150e-01  2.1846129213510115e-01  2.1899389892181631e-01  2.1855647150275634e-01  2.1711500577053783e-01  2.1457669809457736e-01  2.1079455691629065e-01  2.0557781901103692e-01  1.9871218970527452e-01  1.8999544500344570e-01  1.7929435877789618e-01  1.6662612114059963e-01  1.5225719847671271e-01  1.3679131280621959e-01  1.2118546679605416e-01  1.0661501067842719e-01  9.4159129953025389e-02  8.4426107302464498e-02  7.7421516340999169e-02  7.2770536527096849e-02  6.9962331407513123e-02  6.8462879617113323e-02  1.4651291827725896e-01  1.4686429398775924e-01  6.9786298671431046e-02  7.3656796233105032e-02  7.9655452077676589e-02  8.9246140264355761e-02  1.0408068184937661e-01  1.2502952358948499e-01  1.5137358340599466e-01  1.8093872041887313e-01  2.1105788353428859e-01  2.3947839657584633e-01  2.6476417767729227e-01  2.8627008324890246e-01  3.0392640414908345e-01  3.1800360544216422e-01  3.2892840677292501e-01  3.3716217993400549e-01  3.4312923662959771e-01  3.4717854230566025e-01  3.4956535131726774e-01  3.5044347304172663e-01  3.4986245756136869e-01  3.4776667853871107e-01  3.4399537163439631e-01  3.3828456782504718e-01  3.3027397174756717e-01  3.1952459965887392e-01  3.0555673723771104e-01  2.8792226738814791e-01  2.6632891171186945e-01  2.4083010723824164e-01  2.1207148318195110e-01  1.8151925906451988e-01  1.5149805925441343e-01  1.2477265759752437e-01  1.0358939534777226e-01  8.8683252841089188e-02  7.9082722649043563e-02  7.3084693478525517e-02  6.9316192421703199e-02  1.4661704455608293e-01  1.4752405819718409e-01  7.2160879811568254e-02  8.2497536479618036e-02  9.8007658438054285e-02  1.2061133400250981e-01  1.5143936530468013e-01  1.8889732667552767e-01  2.2935529666109392e-01  2.6907851283677764e-01  3.0541811324381096e-01  3.3699624265888806e-01  3.6341407203239662e-01  3.8488023039840019e-01  4.0191510822801607e-01  4.1515472778886109e-01  4.2523451477603447e-01  4.3272676138727523e-01  4.3811064450396137e-01  4.4176037433042092e-01  4.4394240838708832e-01  4.4481631027315993e-01  4.4443616013751053e-01  4.4275091947415479e-01  4.3960320581056023e-01  4.3472684034048631e-01  4.2774455925767263e-01  4.1816873838207180e-01  4.0541030444912629e-01  3.8880476671969844e-01  3.6767027237906358e-01  3.4142034678447764e-01  3.0976280857982114e-01  2.7301028528149024e-01  2.3249819961846474e-01  1.9092283725265488e-01  1.5223913803886371e-01  1.2037120885465599e-01  9.7079948826717194e-02  8.1341883438508525e-02  7.1321776965264871e-02  1.4701744972162034e-01  1.4893158737872092e-01  7.9669009421734896e-02  1.1773991472676143e-01  1.7468355536236338e-01  2.3237101232855650e-01  2.8533928529352781e-01  3.3164494517189519e-01  3.7046568812276592e-01  4.0209749398230527e-01  4.2742250673354459e-01  4.4745267618494122e-01  4.6312561816685921e-01  4.7525202712898879e-01  4.8451870809028669e-01  4.9150317057738296e-01  4.9668675714951210e-01  5.0046430945026199e-01  5.0315119611985026e-01  5.0498863417633544e-01  5.0614779570618051e-01  5.0673281895850331e-01  5.0678264466734746e-01  5.0627154109465822e-01  5.0510820125093514e-01  5.0313332853802928e-01  5.0011560970502744e-01  4.9574584550549805e-01  4.8962871001510283e-01  4.8127113543687428e-01  4.7006586652397814e-01  4.5526872890441822e-01  4.3597279023096847e-01  4.1109202319025356e-01  3.7941517633729127e-01  3.3980668300164152e-01  2.9180049827684096e-01  2.3589350451229543e-01  1.7431825715049865e-01  1.1394222330686310e-01  7.6348538372344829e-02  1.4751547702158571e-01  1.7237300940493736e-01  1.3571695456206345e-01  3.5302373949653909e-01  4.9755262823775137e-01  5.5072285167365098e-01  5.6949809466710744e-01  5.7527409633463045e-01  5.7532293904023679e-01  5.7275080800216960e-01  5.6913168143700832e-01  5.6528250276883185e-01  5.6160155006292223e-01  5.5826273236386348e-01  5.5532942312449984e-01  5.5281776314028985e-01  5.5072902687999459e-01  5.4906397841294585e-01  5.4782750350544118e-01  5.4702857431422092e-01  5.4667847740727704e-01  5.4678887999593484e-01  5.4737048989482140e-01  5.4843259562550872e-01  5.4998349553042725e-01  5.5203159543516489e-01  5.5458663631372207e-01  5.5765996817088903e-01  5.6126186815629064e-01  5.6539247797479986e-01  5.7002079157168861e-01  5.7504326414934770e-01  5.8021068767493345e-01  5.8500682081901523e-01  5.8847756434533904e-01  5.8895477799274143e-01  5.8351098710969573e-01  5.6494612715558612e-01  5.1149806403230202e-01  3.5411812193201103e-01  1.1965675598419831e-01  1.5341939979506300e-01  6.5830943421476573e-01  8.5324193976451257e-01  9.6724382432867040e-01  9.3788393929965930e-01  8.9406538417216608e-01  8.5145720801284874e-01  8.1066337648659303e-01  7.7159753140980614e-01  7.3515503680279948e-01  7.0240794449672272e-01  6.7399311063121226e-01  6.5002579096229562e-01  6.3025212128929264e-01  6.1423039503352761e-01  6.0146583635377915e-01  5.9149074033524718e-01  5.8390377191930021e-01  5.7838416590786235e-01  5.7469275562133992e-01  5.7266753907518431e-01  5.7221828892381865e-01  5.7332260376794564e-01  5.7602448121973426e-01  5.8043561435950297e-01  5.8673883755586687e-01  5.9519214678638388e-01  6.0613014869327420e-01  6.1995731629227080e-01  6.3712389578573692e-01  6.5807130811611203e-01  6.8313261742832332e-01  7.1238295842119759e-01  7.4547611444548534e-01  7.8160588729675329e-01  8.1984702692489431e-01  8.6011584507964345e-01  9.0356361494007964e-01  9.4972249271138587e-01  9.8359087496633379e-01  9.0810737525649809e-01  3.9100986048755437e-01  9.7073481394470396e-01  9.7202031289861646e-01  9.6791239870704604e-01  9.6319848932062080e-01  9.5712226017864843e-01  9.4502443199519193e-01  9.2171828393647115e-01  8.8688029681281599e-01  8.4444764321064136e-01  7.9962235073295063e-01  7.5670478335033464e-01  7.1832197249904461e-01  6.8558674351723958e-01  6.5860260137195814e-01  6.3694336348977876e-01  6.1998292236493779e-01  6.0708352365680129e-01  5.9768816145070336e-01  5.9135837351892362e-01  5.8778504016192867e-01  5.8678821007808701e-01  5.8831439039943823e-01  5.9243517027119519e-01  5.9934813251695052e-01  6.0937854122922408e-01  6.2297715559572875e-01  6.4070449225563852e-01  6.6318365580890715e-01  6.9099203444295265e-01  7.2445048902573905e-01  7.6327304568552412e-01  8.0609848934119421e-01  8.5008890876259124e-01  8.9100535968948658e-01  9.2421516699183093e-01  9.4655474906199899e-01  9.5828424311646265e-01  9.6389127697628507e-01  9.7049790632733002e-01  9.7279087612686921e-01  9.6798067498917628e-01  9.8164800952986631e-01  9.8914972100948473e-01  9.7809850801532694e-01  9.6685692643361854e-01  9.5816789141697700e-01  9.5447421834146196e-01  9.4883026787570568e-01  9.3073785228875239e-01  8.9748109211588034e-01  8.5371015628231073e-01  8.0622353932472790e-01  7.6054334365257825e-01  7.1990136514740533e-01  6.8558863083991284e-01  6.5768749377299573e-01  6.3569255436799910e-01  6.1890502388247026e-01  6.0664376932013409e-01  5.9834338201083892e-01  5.9359275924841426e-01  5.9214654164787073e-01  5.9392663523288092e-01  5.9902179358026386e-01  6.0768741154105976e-01  6.2034288250351932e-01  6.3755784886060785e-01  6.6000903390528709e-01  6.8837382183002982e-01  7.2310598399368664e-01  7.6402574058602613e-01  8.0969501163136048e-01  8.5672916851108938e-01  8.9958278248023482e-01  9.3174473729114338e-01  9.4912390783838108e-01  9.5467344027717549e-01  9.5863002847364098e-01  9.6819668303868656e-01  9.8164086711142173e-01  9.9031710208997858e-01  9.7443474024035459e-01  9.8597804046921178e-01  9.9685147888913928e-01  9.8466705699607537e-01  9.7231025831974593e-01  9.6152884262853833e-01  9.5587210386231414e-01  9.5299634009981449e-01  9.4126469772247090e-01  9.1350298461771229e-01  8.7199398003359230e-01  8.2366821025416548e-01  7.7523564094160302e-01  7.3110291344070155e-01  6.9333205239148787e-01  6.6238796929851296e-01  6.3789649146609628e-01  6.1916074514671127e-01  6.0544917312645752e-01  5.9613471235511417e-01  5.9075309317994940e-01  5.8902291149928565e-01  5.9085050783878956e-01  5.9633041403698372e-01  6.0574442611947832e-01  6.1955612340864041e-01  6.3838993657531640e-01  6.6297159116949822e-01  6.9398724450733162e-01  7.3179381814342981e-01  7.7590288120164030e-01  8.2422936323824181e-01  8.7236347144683246e-01  9.1364145721575130e-01  9.4123412251526117e-01  9.5293389347275692e-01  9.5584115673782377e-01  9.6151438241132559e-01  9.7234358554162892e-01  9.8471736203349003e-01  9.9680143815716149e-01  9.8588971013265181e-01  9.7458296557271018e-01  9.9052580709823901e-01  9.8175711985674230e-01  9.6864268496129180e-01  9.5892492645232064e-01  9.5470110479104853e-01  9.5016383205775434e-01  9.3459964427711517e-01  9.0344794616087454e-01  8.5997640132829589e-01  8.1089716412707324e-01  7.6242460242011567e-01  7.1857832014538814e-01  6.8119564415365019e-01  6.5063203765169475e-01  6.2646684878604497e-01  6.0798570595218115e-01  5.9445078243329152e-01  5.8523197890156953e-01  5.7986213531436381e-01  5.7805615169650304e-01  5.7971567779291211e-01  5.8492957305027748e-01  5.9397316233947395e-01  6.0730358027203579e-01  6.2554152452191858e-01  6.4941872358426789e-01  6.7965285082895055e-01  7.1668871538524626e-01  7.6023258313576991e-01  8.0855927131138272e-01  8.5779109815033139e-01  9.0178722180090498e-01  9.3368348618173258e-01  9.4980961260589769e-01  9.5446639594966820e-01  9.5843877459508353e-01  9.6732983155013907e-01  9.7834296485286509e-01  9.8932771931424968e-01  9.8172888055686203e-01  9.6842341662562148e-01  9.7307121502730065e-01  9.7016294794923497e-01  9.6273652361912554e-01  9.5717754699844293e-01  9.4858106307454293e-01  9.3099763310764827e-01  9.0126798088855375e-01  8.6080087778548697e-01  8.1411696128958511e-01  7.6643392291573087e-01  7.2184983484251641e-01  6.8271877405357517e-01  6.4989803947593094e-01  6.2329487982016407e-01  6.0235059994464013e-01  5.8635921608702291e-01  5.7464369156994843e-01  5.6664084406752468e-01  5.6193651312096660e-01  5.6027713176609883e-01  5.6157205525267007e-01  5.6589352847902386e-01  5.7347643261471837e-01  5.8471618144218329e-01  6.0015869078266726e-01  6.2046950694472436e-01  6.4635831296063873e-01  6.7842017680846900e-01  7.1684321777391991e-01  7.6094968141550934e-01  8.0863763051229054e-01  8.5601969998960492e-01  8.9780996376012356e-01  9.2895104078835422e-01  9.4736828369564730e-01  9.5626154230410298e-01  9.6205332282742329e-01  9.6769725140285501e-01  9.7231307895526453e-01  9.7090576371353110e-01  3.9742644798113391e-01  9.3358076073101370e-01  9.9698743970971626e-01  9.6352544520357375e-01  9.2429862119737505e-01  8.8635619171019842e-01  8.4834775513202909e-01  8.0852779832186583e-01  7.6727826023893964e-01  7.2657325584596055e-01  6.8857512949117894e-01  6.5481073131505152e-01  6.2598255240387612e-01  6.0213944534646890e-01  5.8293661373152195e-01  5.6785292142957877e-01  5.5633470100123950e-01  5.4787785954643975e-01  5.4206934357407532e-01  5.3860537661731145e-01  5.3729799602920059e-01  5.3807661891329284e-01  5.4098806377900699e-01  5.4619617138338650e-01  5.5398029095686807e-01  5.6472983098597818e-01  5.7892923304814392e-01  5.9712362148229803e-01  6.1985010752212988e-01  6.4751547143224641e-01  6.8020517540703263e-01  7.1743786465080428e-01  7.5795527274906849e-01  7.9975414192441030e-01  8.4063962296154637e-01  8.7940537142790776e-01  9.1698716887525200e-01  9.5515808929146151e-01  9.8464968025235322e-01  8.8811283299742405e-01  6.6417771652570234e-01  1.5596740667656475e-01  1.3675774301804511e-01  4.3844069776178185e-01  6.0659072198552388e-01  6.4894114044243234e-01  6.5450777173744878e-01  6.4734765522704996e-01  6.3417830697063660e-01  6.1784894363484721e-01  6.0045270904426129e-01  5.8352609076053796e-01  5.6806004880260441e-01  5.5457034122285476e-01  5.4322496091479200e-01  5.3396916552400264e-01  5.2662694833325741e-01  5.2097365818521690e-01  5.1678365431392093e-01  5.1385944660974325e-01  5.1204834042124137e-01  5.1125122311354854e-01  5.1142661489619534e-01  5.1259176983637100e-01  5.1482146874066126e-01  5.1824410369806173e-01  5.2303360156917311e-01  5.2939458311816423e-01  5.3753690253782105e-01  5.4763454595961658e-01  5.5976334962314889e-01  5.7381335579607695e-01  5.8937684450132721e-01  6.0562362439556905e-01  6.2118465220787566e-01  6.3402840527004689e-01  6.4097833676742988e-01  6.3493156740871226e-01  5.9201331155218040e-01  4.3602209112699808e-01  1.5588011690761250e-01  1.7598631786058333e-01  1.4910929267180936e-01  8.0570722351458748e-02  1.3907470407103120e-01  2.2636786005694562e-01  3.0090920872253257e-01  3.5741759563046899e-01  3.9876064995943278e-01  4.2801733864337710e-01  4.4789957660780405e-01  4.6100242556913795e-01  4.6945604248999234e-01  4.7485999516191363e-01  4.7833019487710904e-01  4.8060304669740112e-01  4.8213822117089500e-01  4.8320527756758808e-01  4.8394970346150312e-01  4.8444046935383700e-01  4.8470261549482790e-01  4.8473851821371977e-01  4.8454090832970870e-01  4.8409988585621633e-01  4.8340530050452168e-01  4.8244501355202124e-01  4.8119872765139388e-01  4.7962624781257657e-01  4.7764822077964864e-01  4.7511665962234340e-01  4.7177208236430057e-01  4.6718428356090058e-01  4.6067549218286208e-01  4.5122986056309705e-01  4.3740623522332206e-01  4.1729823488108359e-01  3.8861835024711039e-01  3.4893075223955955e-01  2.9574187621924092e-01  2.2623938685198619e-01  1.4400536432732527e-01  8.4736410948181157e-02  1.5081090672091427e-01  1.4828331734487013e-01  7.3840495276576851e-02  8.9815711408167076e-02  1.1411121601713953e-01  1.4652693055197960e-01  1.8593633302092133e-01  2.2885993730791301e-01  2.7086273501445879e-01  3.0875806257394761e-01  3.4120333446459883e-01  3.6812483222088066e-01  3.9007695793624514e-01  4.0779977578678756e-01  4.2200543732717316e-01  4.3329646463329780e-01  4.4215011217011746e-01  4.4892898492085020e-01  4.5389915864883817e-01  4.5724761079687043e-01  4.5909612378542702e-01  4.5951108242835098e-01  4.5850939954496789e-01  4.5606094052354340e-01  4.5208767841403491e-01  4.4645960079915281e-01  4.3898725141580580e-01  4.2941091689249389e-01  4.1738723255485388e-01  4.0247611453411852e-01  3.8413582223324344e-01  3.6174390361805325e-01  3.3467958319471502e-01  3.0252821645099276e-01  2.6547963903421856e-01  2.2491024677042418e-01  1.8381138025584687e-01  1.4622017565821049e-01  1.1519067808808661e-01  9.1404375314490249e-02  7.4924712973452171e-02  1.4901433709631862e-01  1.4748790000291487e-01  7.0929035872112689e-02  7.7178537446291925e-02  8.6061754812756547e-02  9.9686941373649363e-02  1.2026666432379313e-01  1.4851312664086427e-01  1.8282544328617825e-01  2.2016542501482975e-01  2.5742703029199865e-01  2.9231906590797463e-01  3.2353790533938098e-01  3.5055613085199794e-01  3.7333925017807795e-01  3.9211362898952368e-01  4.0721259469060644e-01  4.1898506221181614e-01  4.2774578275882341e-01  4.3375034723993561e-01  4.3718385529045944e-01  4.3815658164199189e-01  4.3670295509677787e-01  4.3278208439189009e-01  4.2627939380817687e-01  4.1701005990899270e-01  4.0472621337631709e-01  3.8913163469735806e-01  3.6991029056313846e-01  3.4677878580487886e-01  3.1957724716629554e-01  2.8841567049594219e-01  2.5388516610028444e-01  2.1730648013064360e-01  1.8089388055351147e-01  1.4757048812463183e-01  1.2015143187219082e-01  1.0008170386449289e-01  8.6729748058222589e-02  7.7968983549697835e-02  7.1605066057172040e-02  1.4798213109408054e-01  1.4696712961927430e-01  6.9395999012147672e-02  7.2300000214846019e-02  7.6825610593491786e-02  8.4341679187491664e-02  9.6535486136457155e-02  1.1503142887536241e-01  1.4049321163795575e-01  1.7195329990647801e-01  2.0711247752746267e-01  2.4325823677285846e-01  2.7804675331069195e-01  3.0985502933064646e-01  3.3777888927374589e-01  3.6146364488224131e-01  3.8090585266648369e-01  3.9628845232767895e-01  4.0786426550602156e-01  4.1588150755171682e-01  4.2053968664214209e-01  4.2196549586862370e-01  4.2020144487260813e-01  4.1520316033265736e-01  4.0684411977584767e-01  3.9492922588603280e-01  3.7922135740694934e-01  3.5948794373782622e-01  3.3557718620984600e-01  3.0753387751738026e-01  2.7575825566785189e-01  2.4118992462862152e-01  2.0545365876541855e-01  1.7083832697386528e-01  1.3994338574360174e-01  1.1493624239829500e-01  9.6715901816035177e-02  8.4638825240409749e-02  7.7150616967684701e-02  7.2657053164330285e-02  6.9755762734180091e-02  1.4728869549341145e-01  1.4667697872699254e-01  6.8566315350074902e-02  7.0048291488027298e-02  7.3120130540392209e-02  7.8597931446609121e-02  8.7591655066340840e-02  1.0162608737553905e-01  1.2204369535888157e-01  1.4905137429321588e-01  1.8134386700208699e-01  2.1656275036659564e-01  2.5212208283233584e-01  2.8585876264153698e-01  3.1630200336224112e-01  3.4264612680307605e-01  3.6458511222004875e-01  3.8212527839439653e-01  3.9543048104040784e-01  4.0471261814398785e-01  4.1016173499459219e-01  4.1190531201093150e-01  4.0998777615137633e-01  4.0436468217003130e-01  3.9490974814132662e-01  3.8143663324485910e-01  3.6374099734537346e-01  3.4167157402747361e-01  3.1524003956373059e-01  2.8477419737518622e-01  2.5109996105823712e-01  2.1569692070618246e-01  1.8071327594938752e-01  1.4868978433293428e-01  1.2192284051948923e-01  1.0166821462723505e-01  8.7711040032502602e-02  7.8740569490039061e-02  7.3262801628213498e-02  7.0199135697910656e-02  6.8733638488878701e-02  1.4683972436956358e-01  1.4663278316236608e-01  6.8350016259705271e-02  6.9413919596227919e-02  7.2115672335422876e-02  7.7084897844992312e-02  8.5241334152023590e-02  9.8013918766533231e-02  1.1684778421102190e-01  1.422722720