<?xml version="1.0"?>
<VTKFile type="UnstructuredGrid"  version="0.1"  >
<UnstructuredGrid>
<Piece  NumberOfPoints="1681" NumberOfCells="3200">
<Points>
<DataArray  type="Float64"  NumberOfComponents="3"  format="ascii">0 0 0  0.025 0 0  0.05 0 0  0.075 0 0  0.1 0 0  0.125 0 0  0.15 0 0  0.175 0 0  0.2 0 0  0.225 0 0  0.25 0 0  0.275 0 0  0.3 0 0  0.325 0 0  0.35 0 0  0.375 0 0  0.4 0 0  0.425 0 0  0.45 0 0  0.475 0 0  0.5 0 0  0.525 0 0  0.55 0 0  0.575 0 0  0.6 0 0  0.625 0 0  0.65 0 0  0.675 0 0  0.7 0 0  0.725 0 0  0.75 0 0  0.775 0 0  0.8 0 0  0.825 0 0  0.85 0 0  0.875 0 0  0.9 0 0  0.925 0 0  0.95 0 0  0.975 0 0  1 0 0  0 0.025 0  0.025 0.025 0  0.05 0.025 0  0.075 0.025 0  0.1 0.025 0  0.125 0.025 0  0.15 0.025 0  0.175 0.025 0  0.2 0.025 0  0.225 0.025 0  0.25 0.025 0  0.275 0.025 0  0.3 0.025 0  0.325 0.025 0  0.35 0.025 0  0.375 0.025 0  0.4 0.025 0  0.425 0.025 0  0.45 0.025 0  0.475 0.025 0  0.5 0.025 0  0.525 0.025 0  0.55 0.025 0  0.575 0.025 0  0.6 0.025 0  0.625 0.025 0  0.65 0.025 0  0.675 0.025 0  0.7 0.025 0  0.725 0.025 0  0.75 0.025 0  0.775 0.025 0  0.8 0.025 0  0.825 0.025 0  0.85 0.025 0  0.875 0.025 0  0.9 0.025 0  0.925 0.025 0  0.95 0.025 0  0.975 0.025 0  1 0.025 0  0 0.05 0  0.025 0.05 0  0.05 0.05 0  0.075 0.05 0  0.1 0.05 0  0.125 0.05 0  0.15 0.05 0  0.175 0.05 0  0.2 0.05 0  0.225 0.05 0  0.25 0.05 0  0.275 0.05 0  0.3 0.05 0  0.325 0.05 0  0.35 0.05 0  0.375 0.05 0  0.4 0.05 0  0.425 0.05 0  0.45 0.05 0  0.475 0.05 0  0.5 0.05 0  0.525 0.05 0  0.55 0.05 0  0.575 0.05 0  0.6 0.05 0  0.625 0.05 0  0.65 0.05 0  0.675 0.05 0  0.7 0.05 0  0.725 0.05 0  0.75 0.05 0  0.775 0.05 0  0.8 0.05 0  0.825 0.05 0  0.85 0.05 0  0.875 0.05 0  0.9 0.05 0  0.925 0.05 0  0.95 0.05 0  0.975 0.05 0  1 0.05 0  0 0.075 0  0.025 0.075 0  0.05 0.075 0  0.075 0.075 0  0.1 0.075 0  0.125 0.075 0  0.15 0.075 0  0.175 0.075 0  0.2 0.075 0  0.225 0.075 0  0.25 0.075 0  0.275 0.075 0  0.3 0.075 0  0.325 0.075 0  0.35 0.075 0  0.375 0.075 0  0.4 0.075 0  0.425 0.075 0  0.45 0.075 0  0.475 0.075 0  0.5 0.075 0  0.525 0.075 0  0.55 0.075 0  0.575 0.075 0  0.6 0.075 0  0.625 0.075 0  0.65 0.075 0  0.675 0.075 0  0.7 0.075 0  0.725 0.075 0  0.75 0.075 0  0.775 0.075 0  0.8 0.075 0  0.825 0.075 0  0.85 0.075 0  0.875 0.075 0  0.9 0.075 0  0.925 0.075 0  0.95 0.075 0  0.975 0.075 0  1 0.075 0  0 0.1 0  0.025 0.1 0  0.05 0.1 0  0.075 0.1 0  0.1 0.1 0  0.125 0.1 0  0.15 0.1 0  0.175 0.1 0  0.2 0.1 0  0.225 0.1 0  0.25 0.1 0  0.275 0.1 0  0.3 0.1 0  0.325 0.1 0  0.35 0.1 0  0.375 0.1 0  0.4 0.1 0  0.425 0.1 0  0.45 0.1 0  0.475 0.1 0  0.5 0.1 0  0.525 0.1 0  0.55 0.1 0  0.575 0.1 0  0.6 0.1 0  0.625 0.1 0  0.65 0.1 0  0.675 0.1 0  0.7 0.1 0  0.725 0.1 0  0.75 0.1 0  0.775 0.1 0  0.8 0.1 0  0.825 0.1 0  0.85 0.1 0  0.875 0.1 0  0.9 0.1 0  0.925 0.1 0  0.95 0.1 0  0.975 0.1 0  1 0.1 0  0 0.125 0  0.025 0.125 0  0.05 0.125 0  0.075 0.125 0  0.1 0.125 0  0.125 0.125 0  0.15 0.125 0  0.175 0.125 0  0.2 0.125 0  0.225 0.125 0  0.25 0.125 0  0.275 0.125 0  0.3 0.125 0  0.325 0.125 0  0.35 0.125 0  0.375 0.125 0  0.4 0.125 0  0.425 0.125 0  0.45 0.125 0  0.475 0.125 0  0.5 0.125 0  0.525 0.125 0  0.55 0.125 0  0.575 0.125 0  0.6 0.125 0  0.625 0.125 0  0.65 0.125 0  0.675 0.125 0  0.7 0.125 0  0.725 0.125 0  0.75 0.125 0  0.775 0.125 0  0.8 0.125 0  0.825 0.125 0  0.85 0.125 0  0.875 0.125 0  0.9 0.125 0  0.925 0.125 0  0.95 0.125 0  0.975 0.125 0  1 0.125 0  0 0.15 0  0.025 0.15 0  0.05 0.15 0  0.075 0.15 0  0.1 0.15 0  0.125 0.15 0  0.15 0.15 0  0.175 0.15 0  0.2 0.15 0  0.225 0.15 0  0.25 0.15 0  0.275 0.15 0  0.3 0.15 0  0.325 0.15 0  0.35 0.15 0  0.375 0.15 0  0.4 0.15 0  0.425 0.15 0  0.45 0.15 0  0.475 0.15 0  0.5 0.15 0  0.525 0.15 0  0.55 0.15 0  0.575 0.15 0  0.6 0.15 0  0.625 0.15 0  0.65 0.15 0  0.675 0.15 0  0.7 0.15 0  0.725 0.15 0  0.75 0.15 0  0.775 0.15 0  0.8 0.15 0  0.825 0.15 0  0.85 0.15 0  0.875 0.15 0  0.9 0.15 0  0.925 0.15 0  0.95 0.15 0  0.975 0.15 0  1 0.15 0  0 0.175 0  0.025 0.175 0  0.05 0.175 0  0.075 0.175 0  0.1 0.175 0  0.125 0.175 0  0.15 0.175 0  0.175 0.175 0  0.2 0.175 0  0.225 0.175 0  0.25 0.175 0  0.275 0.175 0  0.3 0.175 0  0.325 0.175 0  0.35 0.175 0  0.375 0.175 0  0.4 0.175 0  0.425 0.175 0  0.45 0.175 0  0.475 0.175 0  0.5 0.175 0  0.525 0.175 0  0.55 0.175 0  0.575 0.175 0  0.6 0.175 0  0.625 0.175 0  0.65 0.175 0  0.675 0.175 0  0.7 0.175 0  0.725 0.175 0  0.75 0.175 0  0.775 0.175 0  0.8 0.175 0  0.825 0.175 0  0.85 0.175 0  0.875 0.175 0  0.9 0.175 0  0.925 0.175 0  0.95 0.175 0  0.975 0.175 0  1 0.175 0  0 0.2 0  0.025 0.2 0  0.05 0.2 0  0.075 0.2 0  0.1 0.2 0  0.125 0.2 0  0.15 0.2 0  0.175 0.2 0  0.2 0.2 0  0.225 0.2 0  0.25 0.2 0  0.275 0.2 0  0.3 0.2 0  0.325 0.2 0  0.35 0.2 0  0.375 0.2 0  0.4 0.2 0  0.425 0.2 0  0.45 0.2 0  0.475 0.2 0  0.5 0.2 0  0.525 0.2 0  0.55 0.2 0  0.575 0.2 0  0.6 0.2 0  0.625 0.2 0  0.65 0.2 0  0.675 0.2 0  0.7 0.2 0  0.725 0.2 0  0.75 0.2 0  0.775 0.2 0  0.8 0.2 0  0.825 0.2 0  0.85 0.2 0  0.875 0.2 0  0.9 0.2 0  0.925 0.2 0  0.95 0.2 0  0.975 0.2 0  1 0.2 0  0 0.225 0  0.025 0.225 0  0.05 0.225 0  0.075 0.225 0  0.1 0.225 0  0.125 0.225 0  0.15 0.225 0  0.175 0.225 0  0.2 0.225 0  0.225 0.225 0  0.25 0.225 0  0.275 0.225 0  0.3 0.225 0  0.325 0.225 0  0.35 0.225 0  0.375 0.225 0  0.4 0.225 0  0.425 0.225 0  0.45 0.225 0  0.475 0.225 0  0.5 0.225 0  0.525 0.225 0  0.55 0.225 0  0.575 0.225 0  0.6 0.225 0  0.625 0.225 0  0.65 0.225 0  0.675 0.225 0  0.7 0.225 0  0.725 0.225 0  0.75 0.225 0  0.775 0.225 0  0.8 0.225 0  0.825 0.225 0  0.85 0.225 0  0.875 0.225 0  0.9 0.225 0  0.925 0.225 0  0.95 0.225 0  0.975 0.225 0  1 0.225 0  0 0.25 0  0.025 0.25 0  0.05 0.25 0  0.075 0.25 0  0.1 0.25 0  0.125 0.25 0  0.15 0.25 0  0.175 0.25 0  0.2 0.25 0  0.225 0.25 0  0.25 0.25 0  0.275 0.25 0  0.3 0.25 0  0.325 0.25 0  0.35 0.25 0  0.375 0.25 0  0.4 0.25 0  0.425 0.25 0  0.45 0.25 0  0.475 0.25 0  0.5 0.25 0  0.525 0.25 0  0.55 0.25 0  0.575 0.25 0  0.6 0.25 0  0.625 0.25 0  0.65 0.25 0  0.675 0.25 0  0.7 0.25 0  0.725 0.25 0  0.75 0.25 0  0.775 0.25 0  0.8 0.25 0  0.825 0.25 0  0.85 0.25 0  0.875 0.25 0  0.9 0.25 0  0.925 0.25 0  0.95 0.25 0  0.975 0.25 0  1 0.25 0  0 0.275 0  0.025 0.275 0  0.05 0.275 0  0.075 0.275 0  0.1 0.275 0  0.125 0.275 0  0.15 0.275 0  0.175 0.275 0  0.2 0.275 0  0.225 0.275 0  0.25 0.275 0  0.275 0.275 0  0.3 0.275 0  0.325 0.275 0  0.35 0.275 0  0.375 0.275 0  0.4 0.275 0  0.425 0.275 0  0.45 0.275 0  0.475 0.275 0  0.5 0.275 0  0.525 0.275 0  0.55 0.275 0  0.575 0.275 0  0.6 0.275 0  0.625 0.275 0  0.65 0.275 0  0.675 0.275 0  0.7 0.275 0  0.725 0.275 0  0.75 0.275 0  0.775 0.275 0  0.8 0.275 0  0.825 0.275 0  0.85 0.275 0  0.875 0.275 0  0.9 0.275 0  0.925 0.275 0  0.95 0.275 0  0.975 0.275 0  1 0.275 0  0 0.3 0  0.025 0.3 0  0.05 0.3 0  0.075 0.3 0  0.1 0.3 0  0.125 0.3 0  0.15 0.3 0  0.175 0.3 0  0.2 0.3 0  0.225 0.3 0  0.25 0.3 0  0.275 0.3 0  0.3 0.3 0  0.325 0.3 0  0.35 0.3 0  0.375 0.3 0  0.4 0.3 0  0.425 0.3 0  0.45 0.3 0  0.475 0.3 0  0.5 0.3 0  0.525 0.3 0  0.55 0.3 0  0.575 0.3 0  0.6 0.3 0  0.625 0.3 0  0.65 0.3 0  0.675 0.3 0  0.7 0.3 0  0.725 0.3 0  0.75 0.3 0  0.775 0.3 0  0.8 0.3 0  0.825 0.3 0  0.85 0.3 0  0.875 0.3 0  0.9 0.3 0  0.925 0.3 0  0.95 0.3 0  0.975 0.3 0  1 0.3 0  0 0.325 0  0.025 0.325 0  0.05 0.325 0  0.075 0.325 0  0.1 0.325 0  0.125 0.325 0  0.15 0.325 0  0.175 0.325 0  0.2 0.325 0  0.225 0.325 0  0.25 0.325 0  0.275 0.325 0  0.3 0.325 0  0.325 0.325 0  0.35 0.325 0  0.375 0.325 0  0.4 0.325 0  0.425 0.325 0  0.45 0.325 0  0.475 0.325 0  0.5 0.325 0  0.525 0.325 0  0.55 0.325 0  0.575 0.325 0  0.6 0.325 0  0.625 0.325 0  0.65 0.325 0  0.675 0.325 0  0.7 0.325 0  0.725 0.325 0  0.75 0.325 0  0.775 0.325 0  0.8 0.325 0  0.825 0.325 0  0.85 0.325 0  0.875 0.325 0  0.9 0.325 0  0.925 0.325 0  0.95 0.325 0  0.975 0.325 0  1 0.325 0  0 0.35 0  0.025 0.35 0  0.05 0.35 0  0.075 0.35 0  0.1 0.35 0  0.125 0.35 0  0.15 0.35 0  0.175 0.35 0  0.2 0.35 0  0.225 0.35 0  0.25 0.35 0  0.275 0.35 0  0.3 0.35 0  0.325 0.35 0  0.35 0.35 0  0.375 0.35 0  0.4 0.35 0  0.425 0.35 0  0.45 0.35 0  0.475 0.35 0  0.5 0.35 0  0.525 0.35 0  0.55 0.35 0  0.575 0.35 0  0.6 0.35 0  0.625 0.35 0  0.65 0.35 0  0.675 0.35 0  0.7 0.35 0  0.725 0.35 0  0.75 0.35 0  0.775 0.35 0  0.8 0.35 0  0.825 0.35 0  0.85 0.35 0  0.875 0.35 0  0.9 0.35 0  0.925 0.35 0  0.95 0.35 0  0.975 0.35 0  1 0.35 0  0 0.375 0  0.025 0.375 0  0.05 0.375 0  0.075 0.375 0  0.1 0.375 0  0.125 0.375 0  0.15 0.375 0  0.175 0.375 0  0.2 0.375 0  0.225 0.375 0  0.25 0.375 0  0.275 0.375 0  0.3 0.375 0  0.325 0.375 0  0.35 0.375 0  0.375 0.375 0  0.4 0.375 0  0.425 0.375 0  0.45 0.375 0  0.475 0.375 0  0.5 0.375 0  0.525 0.375 0  0.55 0.375 0  0.575 0.375 0  0.6 0.375 0  0.625 0.375 0  0.65 0.375 0  0.675 0.375 0  0.7 0.375 0  0.725 0.375 0  0.75 0.375 0  0.775 0.375 0  0.8 0.375 0  0.825 0.375 0  0.85 0.375 0  0.875 0.375 0  0.9 0.375 0  0.925 0.375 0  0.95 0.375 0  0.975 0.375 0  1 0.375 0  0 0.4 0  0.025 0.4 0  0.05 0.4 0  0.075 0.4 0  0.1 0.4 0  0.125 0.4 0  0.15 0.4 0  0.175 0.4 0  0.2 0.4 0  0.225 0.4 0  0.25 0.4 0  0.275 0.4 0  0.3 0.4 0  0.325 0.4 0  0.35 0.4 0  0.375 0.4 0  0.4 0.4 0  0.425 0.4 0  0.45 0.4 0  0.475 0.4 0  0.5 0.4 0  0.525 0.4 0  0.55 0.4 0  0.575 0.4 0  0.6 0.4 0  0.625 0.4 0  0.65 0.4 0  0.675 0.4 0  0.7 0.4 0  0.725 0.4 0  0.75 0.4 0  0.775 0.4 0  0.8 0.4 0  0.825 0.4 0  0.85 0.4 0  0.875 0.4 0  0.9 0.4 0  0.925 0.4 0  0.95 0.4 0  0.975 0.4 0  1 0.4 0  0 0.425 0  0.025 0.425 0  0.05 0.425 0  0.075 0.425 0  0.1 0.425 0  0.125 0.425 0  0.15 0.425 0  0.175 0.425 0  0.2 0.425 0  0.225 0.425 0  0.25 0.425 0  0.275 0.425 0  0.3 0.425 0  0.325 0.425 0  0.35 0.425 0  0.375 0.425 0  0.4 0.425 0  0.425 0.425 0  0.45 0.425 0  0.475 0.425 0  0.5 0.425 0  0.525 0.425 0  0.55 0.425 0  0.575 0.425 0  0.6 0.425 0  0.625 0.425 0  0.65 0.425 0  0.675 0.425 0  0.7 0.425 0  0.725 0.425 0  0.75 0.425 0  0.775 0.425 0  0.8 0.425 0  0.825 0.425 0  0.85 0.425 0  0.875 0.425 0  0.9 0.425 0  0.925 0.425 0  0.95 0.425 0  0.975 0.425 0  1 0.425 0  0 0.45 0  0.02
[...]
<PointData  Scalars="ControlVisualisation"> 
<DataArray  type="Float64"  Name="ControlVisualisation"  format="ascii">4.5337751871380984e-02  2.3008827719538549e-02  2.2988320895642872e-02  2.3043247542392134e-02  2.3193876389053424e-02  2.3402710016262228e-02  2.3612727453735396e-02  2.3773096704415533e-02  2.3857334988857674e-02  2.3867482094161972e-02  2.3825478430944604e-02  2.3759809639856702e-02  2.3694774119119938e-02  2.3645338863227720e-02  2.3616888942192618e-02  2.3607688774525300e-02  2.3612044871166839e-02  2.3622992270183635e-02  2.3634112323227506e-02  2.3640560797865213e-02  2.3639559765389579e-02  2.3630596702973117e-02  2.3615479613065121e-02  2.3598273477555786e-02  2.3585013318762026e-02  2.3582969982638539e-02  2.3599179823436386e-02  2.3638029249251614e-02  2.3698034910357043e-02  2.3768663974085644e-02  2.3828965807145996e-02  2.3850404549099605e-02  2.3805554326273362e-02  2.3681418054515669e-02  2.3491482287906550e-02  2.3277634900815532e-02  2.3096848517051499e-02  2.2998171992699303e-02  2.2995037321186237e-02  2.3023191728748081e-02  1.4998699112114422e-01  2.3007269480544133e-02  1.4452051322655587e-02  1.4441249484736742e-02  1.4508464240152199e-02  1.4679116815010881e-02  1.4914126774326176e-02  1.5132319607199508e-02  1.5242382442028576e-02  1.5179802462040162e-02  1.4934802206302732e-02  1.4553913453299082e-02  1.4115593106196742e-02  1.3697425763860566e-02  1.3352845005126863e-02  1.3104052029224905e-02  1.2947398420989333e-02  1.2863920193401306e-02  1.2829336807247045e-02  1.2820975674445135e-02  1.2821494101448130e-02  1.2820387359490776e-02  1.2814404837733826e-02  1.2807635691034967e-02  1.2811502268084543e-02  1.2844341934937676e-02  1.2929721706010970e-02  1.3092284235402669e-02  1.3350164433938631e-02  1.3704371159937553e-02  1.4128241794772352e-02  1.4563331845028879e-02  1.4929227725144569e-02  1.5149805584591303e-02  1.5186856510250903e-02  1.5060848013269783e-02  1.4842783125766304e-02  1.4622124379700063e-02  1.4471713002195833e-02  1.4422499604337009e-02  1.4458796820013319e-02  2.3022909907831925e-02  2.2974681078637812e-02  1.4448769333838537e-02  1.4667603007464653e-02  1.5127136983709374e-02  1.5835711670011080e-02  1.6829882433159638e-02  1.8072682344598447e-02  1.9451841451353369e-02  2.0807984799109544e-02  2.2001591872023173e-02  2.2973540137186395e-02  2.3751931182407229e-02  2.4404787287890320e-02  2.4982240969596781e-02  2.5491360136516122e-02  2.5910386796898416e-02  2.6218535956190347e-02  2.6415724904268634e-02  2.6523422263050045e-02  2.6572752038071926e-02  2.6589929929347805e-02  2.6585621741846310e-02  2.6550633549454181e-02  2.6458572132557340e-02  2.6275612365590319e-02  2.5975468673330789e-02  2.5552924469560683e-02  2.5025136791458964e-02  2.4413639808157063e-02  2.3715392397904274e-02  2.2888377746635141e-02  2.1875251429005375e-02  2.0657679359959508e-02  1.9300375350794784e-02  1.7941330066979348e-02  1.6730853164745627e-02  1.5764960499051812e-02  1.5064301432037980e-02  1.4595547553413277e-02  1.4422613593377438e-02  2.2989078378719958e-02  2.3005197799887384e-02  1.4575218055955982e-02  1.5299664200946576e-02  1.6317627554373215e-02  1.7579713504016926e-02  1.9468822461721255e-02  2.2551450208272220e-02  2.7654329422396019e-02  3.5551801299188140e-02  4.6185092099540734e-02  5.8263989973105473e-02  6.9856702277452373e-02  7.9372946634618885e-02  8.6108320913756406e-02  9.0189103332911830e-02  9.2220986722877901e-02  9.2937536027150588e-02  9.2976535096811294e-02  9.2791918670764292e-02  9.2658188198575339e-02  9.2715031653371430e-02  9.3009742405389978e-02  9.3511292512230865e-02  9.4087219065642699e-02  9.4452175393284155e-02  9.4116017752411935e-02  9.2378538515954789e-02  8.8430043129069838e-02  8.1604509611716086e-02  7.1768525043884840e-02  5.9691617476511846e-02  4.7080773898612413e-02  3.5987060031597171e-02  2.7781584676138792e-02  2.2535050306853203e-02  1.9431637867695369e-02  1.7566510158996067e-02  1.6299772066474809e-02  1.5222133443863351e-02  1.4509319875275810e-02  2.2969856882934729e-02  2.3165707862361905e-02  1.5002741685819491e-02  1.6871935873155650e-02  1.9410488599126058e-02  2.2531146252412530e-02  2.8062656967248831e-02  3.8992311702467926e-02  5.8045594665082169e-02  8.5373704566462760e-02  1.1782222779718307e-01  1.5055260051333141e-01  1.7951426777936377e-01  2.0279200641274717e-01  2.2036871248052275e-01  2.3323009751887394e-01  2.4259491595753119e-01  2.4948685869418419e-01  2.5459055969619532e-01  2.5827815074294769e-01  2.6070890027527976e-01  2.6193566467994950e-01  2.6198001710286717e-01  2.6085740637883192e-01  2.5854565920626799e-01  2.5489952924572656e-01  2.4952722696378180e-01  2.4166763142789485e-01  2.3014089316713149e-01  2.1348411964383548e-01  1.9040957688484017e-01  1.6067588732308938e-01  1.2618000352479875e-01  9.1355677453787240e-02  6.1656004690732021e-02  4.0667761950409061e-02  2.8461236489046214e-02  2.2242373933332431e-02  1.8969883421685353e-02  1.6564753957698752e-02  1.4831450159190164e-02  2.3045763237711937e-02  2.4035492945743690e-02  1.6332277612380156e-02  2.4483583815127885e-02  4.9363486069588250e-02  9.8692651880331966e-02  1.6519195273352297e-01  2.3349027420092738e-01  2.9349194509297277e-01  3.4240908310574192e-01  3.8041645763489979e-01  4.0875904741675817e-01  4.2928855471549671e-01  4.4408070970427765e-01  4.5503458750063858e-01  4.6360361694651114e-01  4.7070881995295522e-01  4.7679439623897968e-01  4.8195958988019999e-01  4.8610923093612224e-01  4.8908576221070621e-01  4.9076576613787831e-01  4.9111730643034274e-01  4.9021915885159600e-01  4.8824142760762917e-01  4.8538296905356226e-01  4.8175930089531666e-01  4.7724181305794450e-01  4.7127262122790864e-01  4.6272121912705771e-01  4.4988775082278532e-01  4.3072363607882180e-01  4.0316587140965360e-01  3.6524785481621735e-01  3.1493697511502261e-01  2.5053310977146048e-01  1.7447849554031836e-01  1.0019360748177004e-01  4.9892935841289246e-02  2.3859553178572107e-02  1.5754869200914814e-02  2.3416685427580679e-02  2.7587108589632404e-02  2.7374920448659124e-02  3.6201905740599710e-01  7.2108645644881553e-01  8.1488958898499320e-01  8.3334328217232922e-01  8.2276723631773263e-01  8.0155738128106446e-01  7.8009423505619502e-01  7.6265065547578081e-01  7.4928834148658341e-01  7.3894441070301975e-01  7.3109664047882983e-01  7.2569995877593219e-01  7.2266519668015272e-01  7.2163834937442128e-01  7.2206741858483159e-01  7.2334827617097452e-01  7.2493920989729221e-01  7.2642754072635263e-01  7.2756307611433824e-01  7.2827302696870877e-01  7.2866594919547234e-01  7.2902549543930106e-01  7.2978759382690916e-01  7.3148532715212822e-01  7.3463838377815149e-01  7.3958223852701699e-01  7.4632486108471829e-01  7.5467919666076888e-01  7.6486917204055727e-01  7.7808214668412912e-01  7.9554665828997062e-01  8.1581906632641277e-01  8.3292435005669574e-01  8.3805827913691178e-01  8.1962467301686737e-01  7.3971545674205930e-01  3.6413452073539543e-01  2.6387314297509023e-02  2.4984899241185878e-02  9.2440371934195686e-01  9.8528933861505485e-01  9.8551267172044521e-01  9.8692812921417883e-01  9.8744434078759813e-01  9.8631582078131030e-01  9.8002026954628274e-01  9.6815963694863905e-01  9.5462036530202765e-01  9.4331255058180408e-01  9.3445124346690822e-01  9.2637410329728354e-01  9.1859039439624279e-01  9.1188253534262276e-01  9.0700706661006181e-01  9.0409324221255360e-01  9.0278819489334161e-01  9.0256037818877877e-01  9.0289798931505416e-01  9.0340339806381276e-01  9.0383618517093400e-01  9.0413396054777317e-01  9.0441866071299115e-01  9.0498693641767014e-01  9.0627789457552188e-01  9.0879981246281505e-01  9.1297564569706269e-01  9.1887153919129716e-01  9.2592869328968375e-01  9.3318312269870174e-01  9.4037978727990634e-01  9.4881710496496796e-01  9.5976454674024880e-01  9.7179698844176909e-01  9.8116222883845505e-01  9.8561593806599845e-01  9.8674180499670228e-01  9.8703153639458163e-01  9.8530784430476392e-01  9.8877221986510000e-01  3.3765323447599349e-01  9.9500020460488769e-01  9.9594263897218849e-01  9.9478190430758462e-01  9.9377304256153931e-01  9.9323761914366782e-01  9.9293870802563733e-01  9.9222095272373778e-01  9.8970780084656396e-01  9.8488318866713864e-01  9.8074773706792184e-01  9.7998265594543965e-01  9.8046461312925459e-01  9.7988622088648925e-01  9.7856983372776452e-01  9.7771670721950155e-01  9.7795515167031055e-01  9.7920538096822163e-01  9.8099420131996540e-01  9.8274135024741927e-01  9.8395079692583853e-01  9.8431867813190010e-01  9.8377571662842223e-01  9.8249696531351127e-01  9.8088994537685636e-01  9.7952799541676783e-01  9.7899470498438301e-01  9.7963204549123872e-01  9.8120565618704714e-01  9.8266799789889281e-01  9.8268892767396543e-01  9.8154894825145700e-01  9.8230489541590282e-01  9.8655627508984911e-01  9.9086677494223996e-01  9.9269265092340619e-01  9.9303684210731913e-01  9.9339538069843902e-01  9.9431635075339353e-01  9.9547106114173523e-01  9.9605502129843260e-01  9.9268021600069101e-01  9.9715781697620409e-01  9.9805802837683877e-01  9.9714256602032869e-01  9.9623983554826778e-01  9.9594872359724673e-01  9.9582631796269616e-01  9.9512687827646518e-01  9.9377343382349870e-01  9.9154663174617697e-01  9.8955961980310458e-01  9.8999788759184804e-01  9.9145802813611916e-01  9.9172355491901332e-01  9.9114177851904950e-01  9.9099627782894339e-01  9.9202520215092937e-01  9.9415255129109470e-01  9.9667087072578076e-01  9.9865157595251530e-01  9.9959910157898246e-01  9.9979011780671789e-01  9.9949092368705694e-01  9.9833372647425267e-01  9.9620504750482797e-01  9.9377899878446874e-01  9.9200207624138681e-01  9.9145456098308171e-01  9.9198968533800491e-01  9.9262547607861162e-01  9.9203295582425066e-01  9.9023875378141057e-01  9.8991566250128926e-01  9.9205970767979190e-01  9.9414427431922936e-01  9.9526136780742303e-01  9.9575086504217469e-01  9.9585423684233843e-01  9.9637803571231820e-01  9.9742459548641116e-01  9.9814476843456434e-01  9.9652592199531809e-01  9.9748018183097398e-01  9.9852018258688990e-01  9.9772680332275088e-01  9.9681646017443204e-01  9.9649956279899388e-01  9.9655449690498199e-01  9.9595898418301865e-01  9.9468343366703094e-01  9.9279067989510761e-01  9.9104521608522311e-01  9.9153960682538089e-01  9.9303031062930835e-01  9.9312568546305924e-01  9.9222601861790127e-01  9.9183501286857445e-01  9.9289853389233051e-01  9.9539222429894036e-01  9.9828958849812821e-01  9.9993184354095244e-01  9.9945306408898726e-01  9.9871839059717038e-01  9.9959027351421559e-01  9.9985503692210698e-01  9.9794014734013869e-01  9.9492202633049731e-01  9.9246696854789807e-01  9.9153449842090813e-01  9.9207333716285817e-01  9.9306898650899555e-01  9.9299051082928713e-01  9.9150664285727286e-01  9.9107301011412052e-01  9.9284454191799665e-01  9.9471227419318065e-01  9.9595102789270296e-01  9.9651948992640382e-01  9.9647701881116879e-01  9.9681779809554771e-01  9.9773207828718136e-01  9.9851952047061143e-01  9.9747566459470072e-01  9.9653593536983931e-01  9.9815074715871754e-01  9.9741220568479139e-01  9.9634672764755983e-01  9.9584340257189297e-01  9.9578723121179646e-01  9.9521478821280718e-01  9.9382847825854315e-01  9.9122930426519829e-01  9.8821404343561692e-01  9.8762599446421639e-01  9.8845581370971636e-01  9.8780336978016892e-01  9.8602967252765228e-01  9.8506400921950121e-01  9.8615440242584274e-01  9.8933296036036389e-01  9.9354427055359540e-01  9.9715826307906041e-01  9.9901252708954724e-01  9.9939758692181035e-01  9.9893009045615333e-01  9.9689051451539368e-01  9.9299941564262495e-01  9.8845103057323180e-01  9.8491056447277681e-01  9.8350856062184056e-01  9.8434749872531102e-01  9.8633829265904782e-01  9.8754015665896311e-01  9.8720895692116806e-01  9.8784174375861022e-01  9.9078883385455319e-01  9.9351260137252184e-01  9.9508202152394742e-01  9.9582652918601056e-01  9.9590035537076027e-01  9.9619771968742199e-01  9.9713315290582827e-01  9.9806380127516492e-01  9.9716120079526238e-01  9.9267229780421096e-01  9.9606965576342255e-01  9.9546986228704804e-01  9.9428627418975302e-01  9.9340586124645502e-01  9.9301671300583483e-01  9.9230942722788218e-01  9.8968381577240094e-01  9.8338816542848528e-01  9.7521905447625057e-01  9.6908471686274045e-01  9.6374776654803573e-01  9.5676683373193394e-01  9.4919077584232281e-01  9.4333001017674967e-01  9.4040955473146293e-01  9.4030896329031466e-01  9.4205730492281725e-01  9.4438340121800790e-01  9.4615939525994763e-01  9.4665279364022659e-01  9.4560696808236289e-01  9.4324397556028428e-01  9.4024767270745058e-01  9.3769532109844600e-01  9.3685796587506653e-01  9.3883626881479643e-01  9.4407127634861432e-01  9.5178385119487929e-01  9.5980812807587756e-01  9.6635876567508683e-01  9.7297919826146495e-01  9.8144093182484082e-01  9.8849395335707901e-01  9.9184930259489368e-01  9.9292576918669406e-01  9.9325676609772551e-01  9.9372263137111894e-01  9.9474589195686924e-01  9.9593724389484606e-01  9.9500696899045993e-01  3.5532430360050871e-01  9.8767275617720418e-01  9.8565851371039082e-01  9.8719098340517220e-01  9.8669835506473502e-01  9.8568529446762987e-01  9.8063000656512578e-01  9.6719132393071772e-01  9.4454603770957846e-01  9.1646695410251044e-01  8.8802564148742280e-01  8.6176752682388402e-01  8.3836285006210121e-01  8.1883758159704600e-01  8.0409470792870519e-01  7.9404749664479213e-01  7.8780119285339112e-01  7.8419048492711807e-01  7.8216071497979611e-01  7.8094390728976903e-01  7.8009653209291685e-01  7.7947389270228751e-01  7.7920557993540107e-01  7.7970380671685913e-01  7.8169270111688549e-01  7.8621294194541491e-01  7.9453557022442844e-01  8.0788655981883672e-01  8.2687840045826577e-01  8.5086637421850642e-01  8.7817588121954959e-01  9.0740546249525944e-01  9.3692897787348950e-01  9.6251325146828293e-01  9.7919908542309786e-01  9.8612569660410909e-01  9.8707202440764918e-01  9.8678704787595872e-01  9.8574878411933453e-01  9.8742391789810779e-01  9.2939760804414662e-01  2.5670990456297827e-02  3.1339764138756145e-02  5.6780139281710706e-01  8.8302688506748384e-01  9.0170160193170201e-01  8.8640805055856908e-01  8.5141157147349966e-01  7.9898867325055112e-01  7.3944155643859166e-01  6.8591322527448295e-01  6.4407709222804621e-01  6.1255454521752217e-01  5.8882649320892377e-01  5.7156708286330971e-01  5.5983782014538774e-01  5.5242603722326111e-01  5.4798796854284837e-01  5.4535880219328969e-01  5.4369697671967998e-01  5.4247878550296147e-01  5.4142919516586718e-01  5.4045229586299803e-01  5.3960000373537231e-01  5.3909559660553708e-01  5.3940699425069438e-01  5.4134541929866231e-01  5.4614115804461905e-01  5.5540394045795138e-01  5.7084709120688781e-01  5.9383355437408758e-01  6.2531408674426769e-01  6.6664181479878315e-01  7.1944137638017014e-01  7.8132743034713692e-01  8.4132432314042505e-01  8.8490055638382026e-01  9.0255577854453439e-01  8.7310823233319990e-01  5.5847262109381191e-01  3.3418074021303881e-02  2.8761855052885719e-02  2.3866211866143565e-02  1.6521977166535241e-02  3.1688230346375135e-02  8.8543291658838896e-02  1.7525149560200537e-01  2.4983245711965674e-01  2.9064345709242628e-01  3.0656905572693810e-01  3.1033570679153205e-01  3.1041810958879790e-01  3.0999748634496205e-01  3.0983720989921093e-01  3.1042630437808866e-01  3.1220237234024784e-01  3.1513164639198771e-01  3.1871134377196203e-01  3.2228374209678423e-01  3.2529624270218915e-01  3.2739303535677311e-01  3.2839024287223217e-01  3.2820761456224401e-01  3.2680673586345110e-01  3.2416398435635901e-01  3.2028965342996474e-01  3.1528981907840736e-01  3.0945283886909269e-01  3.0332248428513026e-01  2.9768699686571853e-01  2.9338499390659467e-01  2.9089565385511318e-01  2.8994778055373083e-01  2.8959583371383213e-01  2.8857220886523222e-01  2.8446867633804335e-01  2.7114227683508668e-01  2.3738732975182281e-01  1.7263691628576019e-01  8.8311842083966127e-02  3.2214145356676646e-02  1.7086771620778967e-02  2.4539373959570877e-02  2.3364318050239696e-02  1.5306494628749237e-02  1.8093345486020856e-02  2.1677723063918138e-02  2.5526191009805330e-02  3.1693391866345719e-02  4.2456443874776539e-02  5.7952901299710202e-02  7.6128210683318293e-02  9.4716994401035495e-02  1.1219793465928755e-01  1.2800832270875365e-01  1.4223311325825780e-01  1.5506314986447009e-01  1.6649355435796495e-01  1.7635688500165461e-01  1.8446392060486083e-01  1.9069491069536285e-01  1.9501565422729489e-01  1.9744736869329610e-01  1.9802179709416554e-01  1.9674341845102122e-01  1.9357214023096458e-01  1.8843300678175939e-01  1.8125340379925650e-01  1.7202233093824876e-01  1.6085777158693984e-01  1.4805086845067111e-01  1.3402865963620844e-01  1.1917502901230408e-01  1.0357087675710100e-01  8.7005240340319714e-02  6.9653195675880977e-02  5.2949819606912599e-02  3.9340690579963124e-02  3.0481634095211423e-02  2.5604653756569094e-02  2.2271650075167494e-02  1.8579068923038129e-02  1.5524743199510395e-02  2.3545575808125500e-02  2.3170444519940162e-02  1.4808754126119292e-02  1.6000967004973533e-02  1.7140587032416763e-02  1.7807827888859123e-02  1.8609110478509546e-02  2.0736881503863880e-02  2.6031337758065612e-02  3.5898420467476849e-02  4.9509907610081366e-02  6.4168460363163551e-02  7.7871591154508035e-02  9.0266276333689499e-02  1.0155176145330025e-01  1.1170162322213767e-01  1.2051129636377442e-01  1.2779627034172625e-01  1.3346024933731365e-01  1.3747730581631726e-01  1.3985614838991600e-01  1.4061204184141329e-01  1.3974931843893407e-01  1.3725298515304510e-01  1.3309028952960847e-01  1.2722683151331274e-01  1.1966373212454078e-01  1.1049533151037735e-01  9.9955453063408528e-02  8.8358859842429333e-02  7.5853704830289317e-02  6.2276641352822223e-02  4.7913115745595689e-02  3.4701198255978019e-02  2.5281473396533624e-02  2.0372756976560987e-02  1.8478100737651708e-02  1.7767554499217790e-02  1.7149191906205046e-02  1.6094521048870179e-02  1.4901956936744469e-02  2.3271773250884295e-02  2.3076042097454209e-02  1.4579195549781697e-02  1.5069093494788141e-02  1.5752189871293516e-02  1.6570787388243736e-02  1.7823917345485746e-02  1.9988719077173100e-02  2.3903000936797040e-02  3.0770667835468873e-02  4.1373225589212054e-02  5.4859921818932351e-02  6.8906210211190755e-02  8.1464407683456641e-02  9.1841222797225480e-02  1.0024042856619729e-01  1.0702969159114739e-01  1.1245960986401596e-01  1.1665729973586460e-01  1.1967063624398340e-01  1.2150485593138893e-01  1.2215045851174851e-01  1.2160147722748202e-01  1.1985982691859602e-01  1.1692454427317728e-01  1.1277042151019320e-01  1.0732331819867710e-01  1.0043520392525271e-01  9.1859687165185708e-02  8.1278143085877039e-02  6.8573361557455567e-02  5.4499162202428515e-02  4.1069342669303482e-02  3.0526626598134540e-02  2.3693313371853340e-02  1.9807203778901168e-02  1.7676561984955378e-02  1.6466201379901090e-02  1.5711183880537261e-02  1.5110594452809954e-02  1.4622000261026447e-02  2.3126000608200786e-02  2.3037387358888658e-02  1.4499114274066374e-02  1.4671770997058029e-02  1.5147315440082069e-02  1.6050704107582650e-02  1.7620490376439951e-02  2.0222880740216144e-02  2.4410852493949160e-02  3.0938617228851373e-02  4.0505994064431686e-02  5.3030526835623155e-02  6.7054828023456137e-02  8.0356351477891705e-02  9.1356310787821970e-02  9.9733089746182349e-02  1.0593757725605714e-01  1.1054288205596524e-01  1.1394758095334208e-01  1.1634814864420776e-01  1.1780590994896935e-01  1.1832227997633205e-01  1.1789111603079294e-01  1.1651595981024437e-01  1.1418896955414386e-01  1.1083649009128471e-01  1.0624539806200864e-01  1.0000356437858418e-01  9.1541205047967297e-02  8.0438897761721959e-02  6.7062679621555002e-02  5.3004015916145848e-02  4.0455064019343512e-02  3.0853750986041262e-02  2.4301203206354073e-02  2.0114016405988002e-02  1.7531553177843086e-02  1.5990531861748501e-02  1.5122906534236813e-02  1.4687949772124910e-02  1.4512548108314581e-02  2.3055998635304296e-02  2.3031634441739349e-02  1.4484010143327741e-02  1.4566419927208044e-02  1.4965414248184464e-02  1.5875643391444257e-02  1.7520154041348109e-02  2.0251010123882404e-02  2.4582498516017102e-02  3.116443154