<?xml version="1.0"?>
<VTKFile type="UnstructuredGrid"  version="0.1"  >
<UnstructuredGrid>
<Piece  NumberOfPoints="1681" NumberOfCells="3200">
<Points>
<DataArray  type="Float64"  NumberOfComponents="3"  format="ascii">0 0 0  0.025 0 0  0.05 0 0  0.075 0 0  0.1 0 0  0.125 0 0  0.15 0 0  0.175 0 0  0.2 0 0  0.225 0 0  0.25 0 0  0.275 0 0  0.3 0 0  0.325 0 0  0.35 0 0  0.375 0 0  0.4 0 0  0.425 0 0  0.45 0 0  0.475 0 0  0.5 0 0  0.525 0 0  0.55 0 0  0.575 0 0  0.6 0 0  0.625 0 0  0.65 0 0  0.675 0 0  0.7 0 0  0.725 0 0  0.75 0 0  0.775 0 0  0.8 0 0  0.825 0 0  0.85 0 0  0.875 0 0  0.9 0 0  0.925 0 0  0.95 0 0  0.975 0 0  1 0 0  0 0.025 0  0.025 0.025 0  0.05 0.025 0  0.075 0.025 0  0.1 0.025 0  0.125 0.025 0  0.15 0.025 0  0.175 0.025 0  0.2 0.025 0  0.225 0.025 0  0.25 0.025 0  0.275 0.025 0  0.3 0.025 0  0.325 0.025 0  0.35 0.025 0  0.375 0.025 0  0.4 0.025 0  0.425 0.025 0  0.45 0.025 0  0.475 0.025 0  0.5 0.025 0  0.525 0.025 0  0.55 0.025 0  0.575 0.025 0  0.6 0.025 0  0.625 0.025 0  0.65 0.025 0  0.675 0.025 0  0.7 0.025 0  0.725 0.025 0  0.75 0.025 0  0.775 0.025 0  0.8 0.025 0  0.825 0.025 0  0.85 0.025 0  0.875 0.025 0  0.9 0.025 0  0.925 0.025 0  0.95 0.025 0  0.975 0.025 0  1 0.025 0  0 0.05 0  0.025 0.05 0  0.05 0.05 0  0.075 0.05 0  0.1 0.05 0  0.125 0.05 0  0.15 0.05 0  0.175 0.05 0  0.2 0.05 0  0.225 0.05 0  0.25 0.05 0  0.275 0.05 0  0.3 0.05 0  0.325 0.05 0  0.35 0.05 0  0.375 0.05 0  0.4 0.05 0  0.425 0.05 0  0.45 0.05 0  0.475 0.05 0  0.5 0.05 0  0.525 0.05 0  0.55 0.05 0  0.575 0.05 0  0.6 0.05 0  0.625 0.05 0  0.65 0.05 0  0.675 0.05 0  0.7 0.05 0  0.725 0.05 0  0.75 0.05 0  0.775 0.05 0  0.8 0.05 0  0.825 0.05 0  0.85 0.05 0  0.875 0.05 0  0.9 0.05 0  0.925 0.05 0  0.95 0.05 0  0.975 0.05 0  1 0.05 0  0 0.075 0  0.025 0.075 0  0.05 0.075 0  0.075 0.075 0  0.1 0.075 0  0.125 0.075 0  0.15 0.075 0  0.175 0.075 0  0.2 0.075 0  0.225 0.075 0  0.25 0.075 0  0.275 0.075 0  0.3 0.075 0  0.325 0.075 0  0.35 0.075 0  0.375 0.075 0  0.4 0.075 0  0.425 0.075 0  0.45 0.075 0  0.475 0.075 0  0.5 0.075 0  0.525 0.075 0  0.55 0.075 0  0.575 0.075 0  0.6 0.075 0  0.625 0.075 0  0.65 0.075 0  0.675 0.075 0  0.7 0.075 0  0.725 0.075 0  0.75 0.075 0  0.775 0.075 0  0.8 0.075 0  0.825 0.075 0  0.85 0.075 0  0.875 0.075 0  0.9 0.075 0  0.925 0.075 0  0.95 0.075 0  0.975 0.075 0  1 0.075 0  0 0.1 0  0.025 0.1 0  0.05 0.1 0  0.075 0.1 0  0.1 0.1 0  0.125 0.1 0  0.15 0.1 0  0.175 0.1 0  0.2 0.1 0  0.225 0.1 0  0.25 0.1 0  0.275 0.1 0  0.3 0.1 0  0.325 0.1 0  0.35 0.1 0  0.375 0.1 0  0.4 0.1 0  0.425 0.1 0  0.45 0.1 0  0.475 0.1 0  0.5 0.1 0  0.525 0.1 0  0.55 0.1 0  0.575 0.1 0  0.6 0.1 0  0.625 0.1 0  0.65 0.1 0  0.675 0.1 0  0.7 0.1 0  0.725 0.1 0  0.75 0.1 0  0.775 0.1 0  0.8 0.1 0  0.825 0.1 0  0.85 0.1 0  0.875 0.1 0  0.9 0.1 0  0.925 0.1 0  0.95 0.1 0  0.975 0.1 0  1 0.1 0  0 0.125 0  0.025 0.125 0  0.05 0.125 0  0.075 0.125 0  0.1 0.125 0  0.125 0.125 0  0.15 0.125 0  0.175 0.125 0  0.2 0.125 0  0.225 0.125 0  0.25 0.125 0  0.275 0.125 0  0.3 0.125 0  0.325 0.125 0  0.35 0.125 0  0.375 0.125 0  0.4 0.125 0  0.425 0.125 0  0.45 0.125 0  0.475 0.125 0  0.5 0.125 0  0.525 0.125 0  0.55 0.125 0  0.575 0.125 0  0.6 0.125 0  0.625 0.125 0  0.65 0.125 0  0.675 0.125 0  0.7 0.125 0  0.725 0.125 0  0.75 0.125 0  0.775 0.125 0  0.8 0.125 0  0.825 0.125 0  0.85 0.125 0  0.875 0.125 0  0.9 0.125 0  0.925 0.125 0  0.95 0.125 0  0.975 0.125 0  1 0.125 0  0 0.15 0  0.025 0.15 0  0.05 0.15 0  0.075 0.15 0  0.1 0.15 0  0.125 0.15 0  0.15 0.15 0  0.175 0.15 0  0.2 0.15 0  0.225 0.15 0  0.25 0.15 0  0.275 0.15 0  0.3 0.15 0  0.325 0.15 0  0.35 0.15 0  0.375 0.15 0  0.4 0.15 0  0.425 0.15 0  0.45 0.15 0  0.475 0.15 0  0.5 0.15 0  0.525 0.15 0  0.55 0.15 0  0.575 0.15 0  0.6 0.15 0  0.625 0.15 0  0.65 0.15 0  0.675 0.15 0  0.7 0.15 0  0.725 0.15 0  0.75 0.15 0  0.775 0.15 0  0.8 0.15 0  0.825 0.15 0  0.85 0.15 0  0.875 0.15 0  0.9 0.15 0  0.925 0.15 0  0.95 0.15 0  0.975 0.15 0  1 0.15 0  0 0.175 0  0.025 0.175 0  0.05 0.175 0  0.075 0.175 0  0.1 0.175 0  0.125 0.175 0  0.15 0.175 0  0.175 0.175 0  0.2 0.175 0  0.225 0.175 0  0.25 0.175 0  0.275 0.175 0  0.3 0.175 0  0.325 0.175 0  0.35 0.175 0  0.375 0.175 0  0.4 0.175 0  0.425 0.175 0  0.45 0.175 0  0.475 0.175 0  0.5 0.175 0  0.525 0.175 0  0.55 0.175 0  0.575 0.175 0  0.6 0.175 0  0.625 0.175 0  0.65 0.175 0  0.675 0.175 0  0.7 0.175 0  0.725 0.175 0  0.75 0.175 0  0.775 0.175 0  0.8 0.175 0  0.825 0.175 0  0.85 0.175 0  0.875 0.175 0  0.9 0.175 0  0.925 0.175 0  0.95 0.175 0  0.975 0.175 0  1 0.175 0  0 0.2 0  0.025 0.2 0  0.05 0.2 0  0.075 0.2 0  0.1 0.2 0  0.125 0.2 0  0.15 0.2 0  0.175 0.2 0  0.2 0.2 0  0.225 0.2 0  0.25 0.2 0  0.275 0.2 0  0.3 0.2 0  0.325 0.2 0  0.35 0.2 0  0.375 0.2 0  0.4 0.2 0  0.425 0.2 0  0.45 0.2 0  0.475 0.2 0  0.5 0.2 0  0.525 0.2 0  0.55 0.2 0  0.575 0.2 0  0.6 0.2 0  0.625 0.2 0  0.65 0.2 0  0.675 0.2 0  0.7 0.2 0  0.725 0.2 0  0.75 0.2 0  0.775 0.2 0  0.8 0.2 0  0.825 0.2 0  0.85 0.2 0  0.875 0.2 0  0.9 0.2 0  0.925 0.2 0  0.95 0.2 0  0.975 0.2 0  1 0.2 0  0 0.225 0  0.025 0.225 0  0.05 0.225 0  0.075 0.225 0  0.1 0.225 0  0.125 0.225 0  0.15 0.225 0  0.175 0.225 0  0.2 0.225 0  0.225 0.225 0  0.25 0.225 0  0.275 0.225 0  0.3 0.225 0  0.325 0.225 0  0.35 0.225 0  0.375 0.225 0  0.4 0.225 0  0.425 0.225 0  0.45 0.225 0  0.475 0.225 0  0.5 0.225 0  0.525 0.225 0  0.55 0.225 0  0.575 0.225 0  0.6 0.225 0  0.625 0.225 0  0.65 0.225 0  0.675 0.225 0  0.7 0.225 0  0.725 0.225 0  0.75 0.225 0  0.775 0.225 0  0.8 0.225 0  0.825 0.225 0  0.85 0.225 0  0.875 0.225 0  0.9 0.225 0  0.925 0.225 0  0.95 0.225 0  0.975 0.225 0  1 0.225 0  0 0.25 0  0.025 0.25 0  0.05 0.25 0  0.075 0.25 0  0.1 0.25 0  0.125 0.25 0  0.15 0.25 0  0.175 0.25 0  0.2 0.25 0  0.225 0.25 0  0.25 0.25 0  0.275 0.25 0  0.3 0.25 0  0.325 0.25 0  0.35 0.25 0  0.375 0.25 0  0.4 0.25 0  0.425 0.25 0  0.45 0.25 0  0.475 0.25 0  0.5 0.25 0  0.525 0.25 0  0.55 0.25 0  0.575 0.25 0  0.6 0.25 0  0.625 0.25 0  0.65 0.25 0  0.675 0.25 0  0.7 0.25 0  0.725 0.25 0  0.75 0.25 0  0.775 0.25 0  0.8 0.25 0  0.825 0.25 0  0.85 0.25 0  0.875 0.25 0  0.9 0.25 0  0.925 0.25 0  0.95 0.25 0  0.975 0.25 0  1 0.25 0  0 0.275 0  0.025 0.275 0  0.05 0.275 0  0.075 0.275 0  0.1 0.275 0  0.125 0.275 0  0.15 0.275 0  0.175 0.275 0  0.2 0.275 0  0.225 0.275 0  0.25 0.275 0  0.275 0.275 0  0.3 0.275 0  0.325 0.275 0  0.35 0.275 0  0.375 0.275 0  0.4 0.275 0  0.425 0.275 0  0.45 0.275 0  0.475 0.275 0  0.5 0.275 0  0.525 0.275 0  0.55 0.275 0  0.575 0.275 0  0.6 0.275 0  0.625 0.275 0  0.65 0.275 0  0.675 0.275 0  0.7 0.275 0  0.725 0.275 0  0.75 0.275 0  0.775 0.275 0  0.8 0.275 0  0.825 0.275 0  0.85 0.275 0  0.875 0.275 0  0.9 0.275 0  0.925 0.275 0  0.95 0.275 0  0.975 0.275 0  1 0.275 0  0 0.3 0  0.025 0.3 0  0.05 0.3 0  0.075 0.3 0  0.1 0.3 0  0.125 0.3 0  0.15 0.3 0  0.175 0.3 0  0.2 0.3 0  0.225 0.3 0  0.25 0.3 0  0.275 0.3 0  0.3 0.3 0  0.325 0.3 0  0.35 0.3 0  0.375 0.3 0  0.4 0.3 0  0.425 0.3 0  0.45 0.3 0  0.475 0.3 0  0.5 0.3 0  0.525 0.3 0  0.55 0.3 0  0.575 0.3 0  0.6 0.3 0  0.625 0.3 0  0.65 0.3 0  0.675 0.3 0  0.7 0.3 0  0.725 0.3 0  0.75 0.3 0  0.775 0.3 0  0.8 0.3 0  0.825 0.3 0  0.85 0.3 0  0.875 0.3 0  0.9 0.3 0  0.925 0.3 0  0.95 0.3 0  0.975 0.3 0  1 0.3 0  0 0.325 0  0.025 0.325 0  0.05 0.325 0  0.075 0.325 0  0.1 0.325 0  0.125 0.325 0  0.15 0.325 0  0.175 0.325 0  0.2 0.325 0  0.225 0.325 0  0.25 0.325 0  0.275 0.325 0  0.3 0.325 0  0.325 0.325 0  0.35 0.325 0  0.375 0.325 0  0.4 0.325 0  0.425 0.325 0  0.45 0.325 0  0.475 0.325 0  0.5 0.325 0  0.525 0.325 0  0.55 0.325 0  0.575 0.325 0  0.6 0.325 0  0.625 0.325 0  0.65 0.325 0  0.675 0.325 0  0.7 0.325 0  0.725 0.325 0  0.75 0.325 0  0.775 0.325 0  0.8 0.325 0  0.825 0.325 0  0.85 0.325 0  0.875 0.325 0  0.9 0.325 0  0.925 0.325 0  0.95 0.325 0  0.975 0.325 0  1 0.325 0  0 0.35 0  0.025 0.35 0  0.05 0.35 0  0.075 0.35 0  0.1 0.35 0  0.125 0.35 0  0.15 0.35 0  0.175 0.35 0  0.2 0.35 0  0.225 0.35 0  0.25 0.35 0  0.275 0.35 0  0.3 0.35 0  0.325 0.35 0  0.35 0.35 0  0.375 0.35 0  0.4 0.35 0  0.425 0.35 0  0.45 0.35 0  0.475 0.35 0  0.5 0.35 0  0.525 0.35 0  0.55 0.35 0  0.575 0.35 0  0.6 0.35 0  0.625 0.35 0  0.65 0.35 0  0.675 0.35 0  0.7 0.35 0  0.725 0.35 0  0.75 0.35 0  0.775 0.35 0  0.8 0.35 0  0.825 0.35 0  0.85 0.35 0  0.875 0.35 0  0.9 0.35 0  0.925 0.35 0  0.95 0.35 0  0.975 0.35 0  1 0.35 0  0 0.375 0  0.025 0.375 0  0.05 0.375 0  0.075 0.375 0  0.1 0.375 0  0.125 0.375 0  0.15 0.375 0  0.175 0.375 0  0.2 0.375 0  0.225 0.375 0  0.25 0.375 0  0.275 0.375 0  0.3 0.375 0  0.325 0.375 0  0.35 0.375 0  0.375 0.375 0  0.4 0.375 0  0.425 0.375 0  0.45 0.375 0  0.475 0.375 0  0.5 0.375 0  0.525 0.375 0  0.55 0.375 0  0.575 0.375 0  0.6 0.375 0  0.625 0.375 0  0.65 0.375 0  0.675 0.375 0  0.7 0.375 0  0.725 0.375 0  0.75 0.375 0  0.775 0.375 0  0.8 0.375 0  0.825 0.375 0  0.85 0.375 0  0.875 0.375 0  0.9 0.375 0  0.925 0.375 0  0.95 0.375 0  0.975 0.375 0  1 0.375 0  0 0.4 0  0.025 0.4 0  0.05 0.4 0  0.075 0.4 0  0.1 0.4 0  0.125 0.4 0  0.15 0.4 0  0.175 0.4 0  0.2 0.4 0  0.225 0.4 0  0.25 0.4 0  0.275 0.4 0  0.3 0.4 0  0.325 0.4 0  0.35 0.4 0  0.375 0.4 0  0.4 0.4 0  0.425 0.4 0  0.45 0.4 0  0.475 0.4 0  0.5 0.4 0  0.525 0.4 0  0.55 0.4 0  0.575 0.4 0  0.6 0.4 0  0.625 0.4 0  0.65 0.4 0  0.675 0.4 0  0.7 0.4 0  0.725 0.4 0  0.75 0.4 0  0.775 0.4 0  0.8 0.4 0  0.825 0.4 0  0.85 0.4 0  0.875 0.4 0  0.9 0.4 0  0.925 0.4 0  0.95 0.4 0  0.975 0.4 0  1 0.4 0  0 0.425 0  0.025 0.425 0  0.05 0.425 0  0.075 0.425 0  0.1 0.425 0  0.125 0.425 0  0.15 0.425 0  0.175 0.425 0  0.2 0.425 0  0.225 0.425 0  0.25 0.425 0  0.275 0.425 0  0.3 0.425 0  0.325 0.425 0  0.35 0.425 0  0.375 0.425 0  0.4 0.425 0  0.425 0.425 0  0.45 0.425 0  0.475 0.425 0  0.5 0.425 0  0.525 0.425 0  0.55 0.425 0  0.575 0.425 0  0.6 0.425 0  0.625 0.425 0  0.65 0.425 0  0.675 0.425 0  0.7 0.425 0  0.725 0.425 0  0.75 0.425 0  0.775 0.425 0  0.8 0.425 0  0.825 0.425 0  0.85 0.425 0  0.875 0.425 0  0.9 0.425 0  0.925 0.425 0  0.95 0.425 0  0.975 0.425 0  1 0.425 0  0 0.45 0  0.02
[...]
<PointData  Scalars="ControlVisualisation"> 
<DataArray  type="Float64"  Name="ControlVisualisation"  format="ascii">2.6917190678023267e-01  1.9443461299129045e-01  1.9455510831649681e-01  1.9487191566357362e-01  1.9538852792054798e-01  1.9605125058486633e-01  1.9678467715746795e-01  1.9752291860086618e-01  1.9822276613219308e-01  1.9886687724904709e-01  1.9945819478264043e-01  2.0000635234381178e-01  2.0051794088782388e-01  2.0099645329386912e-01  2.0144377336031757e-01  2.0185762741371049e-01  2.0222851458112276e-01  2.0254025177114918e-01  2.0277375866853378e-01  2.0291162091412240e-01  2.0294192956040735e-01  2.0286095243256724e-01  2.0267426073346617e-01  2.0239584918257292e-01  2.0204503521226255e-01  2.0164122707201021e-01  2.0119806007366298e-01  2.0072081770358896e-01  2.0020953281067458e-01  1.9966348738055778e-01  1.9907973192307379e-01  1.9844929495086669e-01  1.9776561543835591e-01  1.9703911976124683e-01  1.9630125230733225e-01  1.9560847749452082e-01  1.9503412320986679e-01  1.9464295121533287e-01  1.9445431067920699e-01  1.9441996463712538e-01  3.7126377775409347e-01  1.9443031004337896e-01  1.1377531719133006e-01  1.1419967615993651e-01  1.1504698008780465e-01  1.1634368021720239e-01  1.1799965831997156e-01  1.1986721664092273e-01  1.2180441609535765e-01  1.2370845377956802e-01  1.2553799474229654e-01  1.2732055288504801e-01  1.2911056828307649e-01  1.3094518799503496e-01  1.3283964137479778e-01  1.3478706260123080e-01  1.3674018884725553e-01  1.3860012608700159e-01  1.4023337636346633e-01  1.4150495073036862e-01  1.4230507773324130e-01  1.4256183490775803e-01  1.4224614703994232e-01  1.4137637762676025e-01  1.4002269272212281e-01  1.3830451189154158e-01  1.3637207923313405e-01  1.3437080816523253e-01  1.3240121572136015e-01  1.3050023315952980e-01  1.2866106752310180e-01  1.2686265954794559e-01  1.2506455472885550e-01  1.2321820016576943e-01  1.2131436657497148e-01  1.1939886808217813e-01  1.1757678737661872e-01  1.1599631867717375e-01  1.1480543651076748e-01  1.1406595938512828e-01  1.1370391978326025e-01  1.9441964191368932e-01  1.9450038898181884e-01  1.1414412628047224e-01  1.1505917461919390e-01  1.1662496350400842e-01  1.1906386115862792e-01  1.2227781373704621e-01  1.2609910472593383e-01  1.3041678149049168e-01  1.3514602825013836e-01  1.4027736213373923e-01  1.4592217265575275e-01  1.5207434839454181e-01  1.5851850303639931e-01  1.6501893977169271e-01  1.7140516170272180e-01  1.7749164456446126e-01  1.8303207402388913e-01  1.8774216555280657e-01  1.9134798425836080e-01  1.9362916175699330e-01  1.9444328760541918e-01  1.9373560227719686e-01  1.9154420912100395e-01  1.8800473407563778e-01  1.8334409427747317e-01  1.7784257048792856e-01  1.7175797536943585e-01  1.6524888264565069e-01  1.5843260520840202e-01  1.5161109565743472e-01  1.4527174032066492e-01  1.3964699038427325e-01  1.3458185194408342e-01  1.2992530734293076e-01  1.2568406415408775e-01  1.2190684198715657e-01  1.1874542678972795e-01  1.1640420440356594e-01  1.1492812203139328e-01  1.1402397822353419e-01  1.9443985203567332e-01  1.9462491208532706e-01  1.1481327179439696e-01  1.1664331004087296e-01  1.1942529131389795e-01  1.2369455445744688e-01  1.2945435830021818e-01  1.3681312501741660e-01  1.4612812816007104e-01  1.5684973968777949e-01  1.6739235417472448e-01  1.7651016046857337e-01  1.8357585124460379e-01  1.8856370949422058e-01  1.9269037623902244e-01  1.9791019614514344e-01  2.0532686093275460e-01  2.1459597483464257e-01  2.2443680706879743e-01  2.3323395894643112e-01  2.3946010538571366e-01  2.4199112406841589e-01  2.4034325789554151e-01  2.3479617197011249e-01  2.2635107868873103e-01  2.1653452408208046e-01  2.0706888631245277e-01  1.9935013033072491e-01  1.9374366961222683e-01  1.8928744464780339e-01  1.8436995593447678e-01  1.7759790491114066e-01  1.6802570239654391e-01  1.5635744181038072e-01  1.4515536425501557e-01  1.3608344039552744e-01  1.2880814994299383e-01  1.2308068352512147e-01  1.1889575151297690e-01  1.1624009146798993e-01  1.1452729016046047e-01  1.9453429838035752e-01  1.9476136708298469e-01  1.1601720768106889e-01  1.2145508037130115e-01  1.2920790505558810e-01  1.4163417407226764e-01  1.5696662043982446e-01  1.7479895420251673e-01  1.9532306351427967e-01  2.1052016761956821e-01  2.1352306408692789e-01  2.1454531706846275e-01  2.2458061491697218e-01  2.4181777753034236e-01  2.6215431951430501e-01  2.8192170430464913e-01  2.9948828389796056e-01  3.1561082631983606e-01  3.3062049954925715e-01  3.4351598195830368e-01  3.5271291102439128e-01  3.5683968920101050e-01  3.5524598947554165e-01  3.4823304396052218e-01  3.3696796980240756e-01  3.2303738708775154e-01  3.0762356708112437e-01  2.9053031741882235e-01  2.7060212450599685e-01  2.4892791721522720e-01  2.2960472679333271e-01  2.1749533636006524e-01  2.1465286911329606e-01  2.1029183763807444e-01  1.9598587013801982e-01  1.7701974597782028e-01  1.5645384227498532e-01  1.3952727938437276e-01  1.2760365465248524e-01  1.2012186310535193e-01  1.1546785570724936e-01  1.9466953244237761e-01  1.9482706147985299e-01  1.2174320813866266e-01  1.4596986998166006e-01  1.8992046500546927e-01  2.3137873081366822e-01  2.7247422762419049e-01  2.6691801476133853e-01  2.6880505124676990e-01  3.1480984790476024e-01  3.7349831884432333e-01  4.0522351958861924e-01  4.1385191418629358e-01  4.2375430752820559e-01  4.3706690957317673e-01  4.5173211184550727e-01  4.6761197718009950e-01  4.8447340125390742e-01  5.0092417526092570e-01  5.1496542559435343e-01  5.2473044535595148e-01  5.2892450648712130e-01  5.2703670033066696e-01  5.1940870559043872e-01  5.0718762056176003e-01  4.9213205602345766e-01  4.7623863914664011e-01  4.6118018967839014e-01  4.4752870427739050e-01  4.3436173778425163e-01  4.2126311387898857e-01  4.1028867302522287e-01  3.8773972342274410e-01  3.3191761888019711e-01  2.7779729388420860e-01  2.6786917579639147e-01  2.6604185952735815e-01  2.4290917360453743e-01  1.8359610351122535e-01  1.3895499055794289e-01  1.1797200107414932e-01  1.9432232350133916e-01  2.1937912044847716e-01  1.7314347373111819e-01  2.7945229166833174e-01  5.5409903099730917e-01  6.0730654258208883e-01  5.5711060510836330e-01  5.9404840205299181e-01  6.0610039884336697e-01  6.1661619894565500e-01  6.2990351569816128e-01  6.4051553058499511e-01  6.4770868487822342e-01  6.5316035254384008e-01  6.5844675451457468e-01  6.6613230343900509e-01  6.7716472543886441e-01  6.9031194230980009e-01  7.0345825327257971e-01  7.1463805472077879e-01  7.2242945177806694e-01  7.2596844429846596e-01  7.2483928579373835e-01  7.1903112911241629e-01  7.0907228677096679e-01  6.9633569543387597e-01  6.8326131192060768e-01  6.7271671785729237e-01  6.6592368315420536e-01  6.6118746541888607e-01  6.5576419799355679e-01  6.4785699239799177e-01  6.3724761454011625e-01  6.2435252367051519e-01  6.0979878403553278e-01  5.9668291573312882e-01  5.6471706459912963e-01  5.5665906226482686e-01  6.0011284479390736e-01  4.1125855618337626e-01  1.6286815678237856e-01  1.9799777121814469e-01  6.5535892315844535e-01  7.9206315174650310e-01  8.8723313090025779e-01  8.7575095947114900e-01  8.5285850687385456e-01  8.4370526937296197e-01  8.4333442204293152e-01  8.2880551689335991e-01  8.1439934428960625e-01  8.0536508888616254e-01  8.0168860250103613e-01  8.0085754238859086e-01  8.0019119037535347e-01  7.9965521569476794e-01  8.0218874410822472e-01  8.0898669867221629e-01  8.1761805890401484e-01  8.2531149389737790e-01  8.3093535874713664e-01  8.3454667030903595e-01  8.3646568741732719e-01  8.3672421131269537e-01  8.3488452689035442e-01  8.3022639667211340e-01  8.2258525451025610e-01  8.1378151602871962e-01  8.0747521142344969e-01  8.0529655345224394e-01  8.0496327034574655e-01  8.0463235129534960e-01  8.0532885323615455e-01  8.0935434167152642e-01  8.1816147995400990e-01  8.3087337246835324e-01  8.4465411947211477e-01  8.5546480499921718e-01  8.5139286681159998e-01  8.4369562218305716e-01  8.6553619117192471e-01  8.5025315793456735e-01  4.9938270724082423e-01  9.1577234280793818e-01  9.4327593171095536e-01  9.3801196122903308e-01  9.3046222355755104e-01  9.2360398908170049e-01  9.1765660088516521e-01  9.1320773749213002e-01  9.0510446842653347e-01  8.9319051778912795e-01  8.8147269768578407e-01  8.7380311677419753e-01  8.7041597581529295e-01  8.6846591214031466e-01  8.6549156589678400e-01  8.6351601581337545e-01  8.6549774877429086e-01  8.6911596534570057e-01  8.7112688361833590e-01  8.7126381413208442e-01  8.7085552313970671e-01  8.7104985229661591e-01  8.7218083463249485e-01  8.7366609805847384e-01  8.7407267339756534e-01  8.7198238119322335e-01  8.6841544215781696e-01  8.6716260932355815e-01  8.6905218827467723e-01  8.7091186805338605e-01  8.7237857522458617e-01  8.7602345837829432e-01  8.8366129257000992e-01  8.9412073945208981e-01  9.0415241389719492e-01  9.1161260437717384e-01  9.1697409890764536e-01  9.2196526124921552e-01  9.2775812204872476e-01  9.3568319931529353e-01  9.4756298874040001e-01  9.0539628794110816e-01  9.5072577468958364e-01  9.6948986105867618e-01  9.6190115022343847e-01  9.5313860243652193e-01  9.4474763234765868e-01  9.3776849972760179e-01  9.3295466796611459e-01  9.2882281099860309e-01  9.2196309143431676e-01  9.1225909589081655e-01  9.0378448166830283e-01  8.9904792335096007e-01  8.9632956406587405e-01  8.9198280706502830e-01  8.8682692592501422e-01  8.8698874678923911e-01  8.9106369474017555e-01  8.9281020941032818e-01  8.9097860485529501e-01  8.8824456330431745e-01  8.8732205870244918e-01  8.8897084620495470e-01  8.9177797423070770e-01  8.9309173149095322e-01  8.9096133003280364e-01  8.8757191825256299e-01  8.8866805897730150e-01  8.9371867647240866e-01  8.9723158401481584e-01  8.9972842722440871e-01  9.0450437259412686e-01  9.1251854452914838e-01  9.2117857150395188e-01  9.2757097490071638e-01  9.3234655929442856e-01  9.3794750581427511e-01  9.4528184142119276e-01  9.5385536819381389e-01  9.6264184248514739e-01  9.6999034475387935e-01  9.4494345839914962e-01  9.5651703140653666e-01  9.7498048647455249e-01  9.6844006966540219e-01  9.6011755583402303e-01  9.5154451035422005e-01  9.4383106474872236e-01  9.3797850733582844e-01  9.3374883346525694e-01  9.2834713492979581e-01  9.2006520109674295e-01  9.1179189513290526e-01  9.0667556215618372e-01  9.0379894538213101e-01  8.9921597376280782e-01  8.9258813305822859e-01  8.9291110507521898e-01  9.0175118713471969e-01  9.0877252824789911e-01  9.0818587055337141e-01  9.0338185877401989e-01  9.0067579327633396e-01  9.0260872005637449e-01  9.0628728631401267e-01  9.0646832399722754e-01  9.0050194124558014e-01  8.9290410260676145e-01  8.9281954035819044e-01  8.9913112172491239e-01  9.0350174945448380e-01  9.0634630774608205e-01  9.1147597955478710e-01  9.1965884450763702e-01  9.2772926758058794e-01  9.3300574021163707e-01  9.3725758871038078e-01  9.4316452536501749e-01  9.5101710389232108e-01  9.5985381371071798e-01  9.6837442948422092e-01  9.7497539742542183e-01  9.5652149732317304e-01  9.4494219131468449e-01  9.7000920996816753e-01  9.6272895456769103e-01  9.5423528328578133e-01  9.4618493991376962e-01  9.3904173997974505e-01  9.3308020964120553e-01  9.2780220727527007e-01  9.2101214615863214e-01  9.1194292574202052e-01  9.0361797266546784e-01  8.9889109493340635e-01  8.9676175046949891e-01  8.9337625478101679e-01  8.8734157142296544e-01  8.8494495563068887e-01  8.8892211309011238e-01  8.9341856388135110e-01  8.9324383739171365e-01  8.8909214731245134e-01  8.8596192407936325e-01  8.8720842712468240e-01  8.9099503045006778e-01  8.9286467432360506e-01  8.9040937727037917e-01  8.8605596031371725e-01  8.8607493709407881e-01  8.9122913406118776e-01  8.9512044960555026e-01  8.9744978064944114e-01  9.0219345752795654e-01  9.1088160932927775e-01  9.2059128766593534e-01  9.2747317373874427e-01  9.3205554689868741e-01  9.3735950965382164e-01  9.4443011627994977e-01  9.5294947756490955e-01  9.6192553044076690e-01  9.6952770110032183e-01  9.5073288396500966e-01  9.0139047392960003e-01  9.4579520542729356e-01  9.3427521203998398e-01  9.2722232358898227e-01  9.2287311326846966e-01  9.1834555757982328e-01  9.1234127704620160e-01  9.0443430494375388e-01  8.9415073281734647e-01  8.8315561090587325e-01  8.7512713411128085e-01  8.7201074275950108e-01  8.7207655958833230e-01  8.7201294636063365e-01  8.7045976395806013e-01  8.6860776786183336e-01  8.6583791048964698e-01  8.6065298691739478e-01  8.5355379966649514e-01  8.4691873890716485e-01  8.4380897593716619e-01  8.4627467096474884e-01  8.5347822112418337e-01  8.6182399741560489e-01  8.6753296939603342e-01  8.6889278333957831e-01  8.6770937544017235e-01  8.6771242091187106e-01  8.6850463255842036e-01  8.6902109969068364e-01  8.7199554787909783e-01  8.8011424728678200e-01  8.9218764047284249e-01  9.0384725730573323e-01  9.1175062190125022e-01  9.1672145608164768e-01  9.2060757460824183e-01  9.2649657922436912e-01  9.3701648558883932e-01  9.4376556650055610e-01  9.1584827586472306e-01  4.9389223928472936e-01  7.9530563466126192e-01  8.3036530949854892e-01  8.6333750494056960e-01  8.6750398830113740e-01  8.5481370391143174e-01  8.4665272592877061e-01  8.3593891392058184e-01  8.2399011552150891e-01  8.1437563552295567e-01  8.1042334182714115e-01  8.1198992374687184e-01  8.1684664924085360e-01  8.2328912420910894e-01  8.2959591073351846e-01  8.3256543922925275e-01  8.2918024995657036e-01  8.1924211785776113e-01  8.0589444378879749e-01  7.9440228796635459e-01  7.8941794271714216e-01  7.9299923210822509e-01  8.0395935117231854e-01  8.1773757249823953e-01  8.2834906348822190e-01  8.3153459862130463e-01  8.2660202108651049e-01  8.1780886205870928e-01  8.1097002564098442e-01  8.0711475685302347e-01  8.0568349424148833e-01  8.0873744270425685e-01  8.1810554255425416e-01  8.3236106691505718e-01  8.4977222553099685e-01  8.7951238200559712e-01  8.6522964229360533e-01  8.3045907012879117e-01  8.3241138254129921e-01  7.8725042327761086e-01  6.5867723019192204e-01  1.9956330466389555e-01  1.6510918287206461e-01  2.9889854844045249e-01  4.5202492962151847e-01  4.8898653290262445e-01  6.0427565258555727e-01  6.1053207991457736e-01  6.3643572666463577e-01  6.5596375018344977e-01  6.7112136670818978e-01  6.8350719002142968e-01  6.9448995895159826e-01  7.0742742165204597e-01  7.2336398608537233e-01  7.3739684343190615e-01  7.4305906182549397e-01  7.3791298200875088e-01  7.2442340619012713e-01  7.0811954083186457e-01  6.9488533814873066e-01  6.8861658024094752e-01  6.9091684026349909e-01  7.0153314154891011e-01  7.1749306103428989e-01  7.3266240787859704e-01  7.4009002757889086e-01  7.3544061525288174e-01  7.1997511096810229e-01  7.0158864866520643e-01  6.8791133905035740e-01  6.7762617639373568e-01  6.6465262542589443e-01  6.4669727818166434e-01  6.2443959559150364e-01  6.0092929097196723e-01  6.2558420846810991e-01  5.0124161235546638e-01  4.9108862837775935e-01  2.9685986767216715e-01  1.7954466353044696e-01  2.2171061473112630e-01  1.9513509292618386e-01  1.2095230852742336e-01  1.4940062474554097e-01  2.1329643297392759e-01  2.6970651270783297e-01  2.6283180463252498e-01  3.1744296982888992e-01  3.9544998198860115e-01  4.1681370105824778e-01  4.4115542296284865e-01  4.6776508408464423e-01  4.9554446377655548e-01  5.2374001166266559e-01  5.4866749912750401e-01  5.6460651838028297e-01  5.6803335219011497e-01  5.6075158966414840e-01  5.4809862048453717e-01  5.3553462179549616e-01  5.2631098574527702e-01  5.2140707498347683e-01  5.2112433042875117e-01  5.2613855635534690e-01  5.3654819258585640e-01  5.4988401991860436e-01  5.6058694032548184e-01  5.6202393127466066e-01  5.4947386260033448e-01  5.2237555971178518e-01  4.8779740708675101e-01  4.5655429030450267e-01  4.3102369561944431e-01  4.0825605607629784e-01  3.7078160719415743e-01  2.8928326096882567e-01  2.4066772399537226e-01  2.6975010557206458e-01  2.3028479400130061e-01  1.5264850294767116e-01  1.2287618039400172e-01  1.9536725422383741e-01  1.9532206589387763e-01  1.1735362677771391e-01  1.2477312386267013e-01  1.3545734346548738e-01  1.5043231132719806e-01  1.6741832423030611e-01  1.9155020424948865e-01  2.1367203952384162e-01  2.2321421246706169e-01  2.3728727341576869e-01  2.6469789235404539e-01  3.0330829147743277e-01  3.4123288680303315e-01  3.5938758725163905e-01  3.6134344154694586e-01  3.5988862481342604e-01  3.5803809047322377e-01  3.5605310752385272e-01  3.5457558155548113e-01  3.5345169821776984e-01  3.5187507751514718e-01  3.4944454574570244e-01  3.4679100207300578e-01  3.4527059161181389e-01  3.4623597915240473e-01  3.5056158082035505e-01  3.5687518946318886e-01  3.5788042119407054e-01  3.3863002232203498e-01  2.9871358943078791e-01  2.5979709143517726e-01  2.3443966989022125e-01  2.2372529784937589e-01  2.1470159092112773e-01  1.9486366016997347e-01  1.6942290075433430e-01  1.5055085867480580e-01  1.3766437170290441e-01  1.2580109054499974e-01  1.1753330940942332e-01  1.9542072795764423e-01  1.9495816109963174e-01  1.1558823429362104e-01  1.1844760811391299e-01  1.2216275516376132e-01  1.2734434660222252e-01  1.3438319838530649e-01  1.4514184909537226e-01  1.6060033446507457e-01  1.7801256651767072e-01  1.9153998257022137e-01  1.9835821685315502e-01  2.0452115960021133e-01  2.1465149348931756e-01  2.2893891449762516e-01  2.4133208970823522e-01  2.4180693158671571e-01  2.4217480458508328e-01  2.4811699806026000e-01  2.5484893927888386e-01  2.5919111013090756e-01  2.5997762798601509e-01  2.5683607344517889e-01  2.5020692790215576e-01  2.4196949147914038e-01  2.3599135539929833e-01  2.3582848244793231e-01  2.3505327919759164e-01  2.2537367106927103e-01  2.1496197293561775e-01  2.0629346306445739e-01  1.9929113103623031e-01  1.9060646779516149e-01  1.7667823932823637e-01  1.6061640729799939e-01  1.4661764729913229e-01  1.3602001159946536e-01  1.2839673978039534e-01  1.2286336768465037e-01  1.1888567976809557e-01  1.1592625247359556e-01  1.9515464259569237e-01  1.9466097488824508e-01  1.1458510330941071e-01  1.1607617199512540e-01  1.1816214426662994e-01  1.2126537769351203e-01  1.2538015539991254e-01  1.3084424152391086e-01  1.3846293082584843e-01  1.4902917191393236e-01  1.6201843323561430e-01  1.7355371873593706e-01  1.7905155821783469e-01  1.8036411096749269e-01  1.8266314815323270e-01  1.8837312267800249e-01  1.9781805208681899e-01  2.0415803093142276e-01  2.0840441596269071e-01  2.1642815990466496e-01  2.2423365613092777e-01  2.2679302877744972e-01  2.2276033926583688e-01  2.1431461827283965e-01  2.0680747970168856e-01  2.0227117901857983e-01  1.9453009332828552e-01  1.8569406804419086e-01  1.8182581900275682e-01  1.8065160648205053e-01  1.7913303056939769e-01  1.7345814369962376e-01  1.6236892558761745e-01  1.4965811768306589e-01  1.3912668790947358e-01  1.3149646728421988e-01  1.2593742565140525e-01  1.2169005374614821e-01  1.1846455309859875e-01  1.1629032412869104e-01  1.1480668789255280e-01  1.9484246515344467e-01  1.9447960869686889e-01  1.1397529425974784e-01  1.1489373217990871e-01  1.1650218013117342e-01  1.1891949309803894e-01  1.2210414578579340e-01  1.2621517031973939e-01  1.3177080469721369e-01  1.3938052556129624e-01  1.4894822866178606e-01  1.5849240826227792e-01  1.6472345189844878e-01  1.6749958907548790e-01  1.7107893399915994e-01  1.7738917443693014e-01  1.8616592469150073e-01  1.9645788839036465e-01  2.0214516703772761e-01  2.0570744929641310e-01  2.1106387052000891e-01  2.1365648255127201e-01  2.1066853244432485e-01  2.0563183830491111e-01  2.0242418355050934e-01  1.9591044317439177e-01  1.8490703775257991e-01  1.7602500865505621e-01  1.6991849056050459e-01  1.6711575430969883e-01  1.6503318444539322e-01  1.5892460347244874e-01  1.4929915657569115e-01  1.3966522534573034e-01  1.3204224369306389e-01  1.2648306746928195e-01  1.2233851011629476e-01  1.1910744255314677e-01  1.1664257423197226e-01  1.1499601614829641e-01  1.1409571426692550e-01  1.9458407257688054e-01  1.9445236145829631e-01  1.1381036826477708e-01  1.1455445745685945e-01  1.1606470643734589e-01  1.1831952280643745e-01  1.2127027032747469e-01  1.2505305773319997e-01  1.3012128479203933e-01  1.370485183