<?xml version="1.0"?>
<VTKFile type="UnstructuredGrid"  version="0.1"  >
<UnstructuredGrid>
<Piece  NumberOfPoints="1681" NumberOfCells="3200">
<Points>
<DataArray  type="Float64"  NumberOfComponents="3"  format="ascii">0 0 0  0.025 0 0  0.05 0 0  0.075 0 0  0.1 0 0  0.125 0 0  0.15 0 0  0.175 0 0  0.2 0 0  0.225 0 0  0.25 0 0  0.275 0 0  0.3 0 0  0.325 0 0  0.35 0 0  0.375 0 0  0.4 0 0  0.425 0 0  0.45 0 0  0.475 0 0  0.5 0 0  0.525 0 0  0.55 0 0  0.575 0 0  0.6 0 0  0.625 0 0  0.65 0 0  0.675 0 0  0.7 0 0  0.725 0 0  0.75 0 0  0.775 0 0  0.8 0 0  0.825 0 0  0.85 0 0  0.875 0 0  0.9 0 0  0.925 0 0  0.95 0 0  0.975 0 0  1 0 0  0 0.025 0  0.025 0.025 0  0.05 0.025 0  0.075 0.025 0  0.1 0.025 0  0.125 0.025 0  0.15 0.025 0  0.175 0.025 0  0.2 0.025 0  0.225 0.025 0  0.25 0.025 0  0.275 0.025 0  0.3 0.025 0  0.325 0.025 0  0.35 0.025 0  0.375 0.025 0  0.4 0.025 0  0.425 0.025 0  0.45 0.025 0  0.475 0.025 0  0.5 0.025 0  0.525 0.025 0  0.55 0.025 0  0.575 0.025 0  0.6 0.025 0  0.625 0.025 0  0.65 0.025 0  0.675 0.025 0  0.7 0.025 0  0.725 0.025 0  0.75 0.025 0  0.775 0.025 0  0.8 0.025 0  0.825 0.025 0  0.85 0.025 0  0.875 0.025 0  0.9 0.025 0  0.925 0.025 0  0.95 0.025 0  0.975 0.025 0  1 0.025 0  0 0.05 0  0.025 0.05 0  0.05 0.05 0  0.075 0.05 0  0.1 0.05 0  0.125 0.05 0  0.15 0.05 0  0.175 0.05 0  0.2 0.05 0  0.225 0.05 0  0.25 0.05 0  0.275 0.05 0  0.3 0.05 0  0.325 0.05 0  0.35 0.05 0  0.375 0.05 0  0.4 0.05 0  0.425 0.05 0  0.45 0.05 0  0.475 0.05 0  0.5 0.05 0  0.525 0.05 0  0.55 0.05 0  0.575 0.05 0  0.6 0.05 0  0.625 0.05 0  0.65 0.05 0  0.675 0.05 0  0.7 0.05 0  0.725 0.05 0  0.75 0.05 0  0.775 0.05 0  0.8 0.05 0  0.825 0.05 0  0.85 0.05 0  0.875 0.05 0  0.9 0.05 0  0.925 0.05 0  0.95 0.05 0  0.975 0.05 0  1 0.05 0  0 0.075 0  0.025 0.075 0  0.05 0.075 0  0.075 0.075 0  0.1 0.075 0  0.125 0.075 0  0.15 0.075 0  0.175 0.075 0  0.2 0.075 0  0.225 0.075 0  0.25 0.075 0  0.275 0.075 0  0.3 0.075 0  0.325 0.075 0  0.35 0.075 0  0.375 0.075 0  0.4 0.075 0  0.425 0.075 0  0.45 0.075 0  0.475 0.075 0  0.5 0.075 0  0.525 0.075 0  0.55 0.075 0  0.575 0.075 0  0.6 0.075 0  0.625 0.075 0  0.65 0.075 0  0.675 0.075 0  0.7 0.075 0  0.725 0.075 0  0.75 0.075 0  0.775 0.075 0  0.8 0.075 0  0.825 0.075 0  0.85 0.075 0  0.875 0.075 0  0.9 0.075 0  0.925 0.075 0  0.95 0.075 0  0.975 0.075 0  1 0.075 0  0 0.1 0  0.025 0.1 0  0.05 0.1 0  0.075 0.1 0  0.1 0.1 0  0.125 0.1 0  0.15 0.1 0  0.175 0.1 0  0.2 0.1 0  0.225 0.1 0  0.25 0.1 0  0.275 0.1 0  0.3 0.1 0  0.325 0.1 0  0.35 0.1 0  0.375 0.1 0  0.4 0.1 0  0.425 0.1 0  0.45 0.1 0  0.475 0.1 0  0.5 0.1 0  0.525 0.1 0  0.55 0.1 0  0.575 0.1 0  0.6 0.1 0  0.625 0.1 0  0.65 0.1 0  0.675 0.1 0  0.7 0.1 0  0.725 0.1 0  0.75 0.1 0  0.775 0.1 0  0.8 0.1 0  0.825 0.1 0  0.85 0.1 0  0.875 0.1 0  0.9 0.1 0  0.925 0.1 0  0.95 0.1 0  0.975 0.1 0  1 0.1 0  0 0.125 0  0.025 0.125 0  0.05 0.125 0  0.075 0.125 0  0.1 0.125 0  0.125 0.125 0  0.15 0.125 0  0.175 0.125 0  0.2 0.125 0  0.225 0.125 0  0.25 0.125 0  0.275 0.125 0  0.3 0.125 0  0.325 0.125 0  0.35 0.125 0  0.375 0.125 0  0.4 0.125 0  0.425 0.125 0  0.45 0.125 0  0.475 0.125 0  0.5 0.125 0  0.525 0.125 0  0.55 0.125 0  0.575 0.125 0  0.6 0.125 0  0.625 0.125 0  0.65 0.125 0  0.675 0.125 0  0.7 0.125 0  0.725 0.125 0  0.75 0.125 0  0.775 0.125 0  0.8 0.125 0  0.825 0.125 0  0.85 0.125 0  0.875 0.125 0  0.9 0.125 0  0.925 0.125 0  0.95 0.125 0  0.975 0.125 0  1 0.125 0  0 0.15 0  0.025 0.15 0  0.05 0.15 0  0.075 0.15 0  0.1 0.15 0  0.125 0.15 0  0.15 0.15 0  0.175 0.15 0  0.2 0.15 0  0.225 0.15 0  0.25 0.15 0  0.275 0.15 0  0.3 0.15 0  0.325 0.15 0  0.35 0.15 0  0.375 0.15 0  0.4 0.15 0  0.425 0.15 0  0.45 0.15 0  0.475 0.15 0  0.5 0.15 0  0.525 0.15 0  0.55 0.15 0  0.575 0.15 0  0.6 0.15 0  0.625 0.15 0  0.65 0.15 0  0.675 0.15 0  0.7 0.15 0  0.725 0.15 0  0.75 0.15 0  0.775 0.15 0  0.8 0.15 0  0.825 0.15 0  0.85 0.15 0  0.875 0.15 0  0.9 0.15 0  0.925 0.15 0  0.95 0.15 0  0.975 0.15 0  1 0.15 0  0 0.175 0  0.025 0.175 0  0.05 0.175 0  0.075 0.175 0  0.1 0.175 0  0.125 0.175 0  0.15 0.175 0  0.175 0.175 0  0.2 0.175 0  0.225 0.175 0  0.25 0.175 0  0.275 0.175 0  0.3 0.175 0  0.325 0.175 0  0.35 0.175 0  0.375 0.175 0  0.4 0.175 0  0.425 0.175 0  0.45 0.175 0  0.475 0.175 0  0.5 0.175 0  0.525 0.175 0  0.55 0.175 0  0.575 0.175 0  0.6 0.175 0  0.625 0.175 0  0.65 0.175 0  0.675 0.175 0  0.7 0.175 0  0.725 0.175 0  0.75 0.175 0  0.775 0.175 0  0.8 0.175 0  0.825 0.175 0  0.85 0.175 0  0.875 0.175 0  0.9 0.175 0  0.925 0.175 0  0.95 0.175 0  0.975 0.175 0  1 0.175 0  0 0.2 0  0.025 0.2 0  0.05 0.2 0  0.075 0.2 0  0.1 0.2 0  0.125 0.2 0  0.15 0.2 0  0.175 0.2 0  0.2 0.2 0  0.225 0.2 0  0.25 0.2 0  0.275 0.2 0  0.3 0.2 0  0.325 0.2 0  0.35 0.2 0  0.375 0.2 0  0.4 0.2 0  0.425 0.2 0  0.45 0.2 0  0.475 0.2 0  0.5 0.2 0  0.525 0.2 0  0.55 0.2 0  0.575 0.2 0  0.6 0.2 0  0.625 0.2 0  0.65 0.2 0  0.675 0.2 0  0.7 0.2 0  0.725 0.2 0  0.75 0.2 0  0.775 0.2 0  0.8 0.2 0  0.825 0.2 0  0.85 0.2 0  0.875 0.2 0  0.9 0.2 0  0.925 0.2 0  0.95 0.2 0  0.975 0.2 0  1 0.2 0  0 0.225 0  0.025 0.225 0  0.05 0.225 0  0.075 0.225 0  0.1 0.225 0  0.125 0.225 0  0.15 0.225 0  0.175 0.225 0  0.2 0.225 0  0.225 0.225 0  0.25 0.225 0  0.275 0.225 0  0.3 0.225 0  0.325 0.225 0  0.35 0.225 0  0.375 0.225 0  0.4 0.225 0  0.425 0.225 0  0.45 0.225 0  0.475 0.225 0  0.5 0.225 0  0.525 0.225 0  0.55 0.225 0  0.575 0.225 0  0.6 0.225 0  0.625 0.225 0  0.65 0.225 0  0.675 0.225 0  0.7 0.225 0  0.725 0.225 0  0.75 0.225 0  0.775 0.225 0  0.8 0.225 0  0.825 0.225 0  0.85 0.225 0  0.875 0.225 0  0.9 0.225 0  0.925 0.225 0  0.95 0.225 0  0.975 0.225 0  1 0.225 0  0 0.25 0  0.025 0.25 0  0.05 0.25 0  0.075 0.25 0  0.1 0.25 0  0.125 0.25 0  0.15 0.25 0  0.175 0.25 0  0.2 0.25 0  0.225 0.25 0  0.25 0.25 0  0.275 0.25 0  0.3 0.25 0  0.325 0.25 0  0.35 0.25 0  0.375 0.25 0  0.4 0.25 0  0.425 0.25 0  0.45 0.25 0  0.475 0.25 0  0.5 0.25 0  0.525 0.25 0  0.55 0.25 0  0.575 0.25 0  0.6 0.25 0  0.625 0.25 0  0.65 0.25 0  0.675 0.25 0  0.7 0.25 0  0.725 0.25 0  0.75 0.25 0  0.775 0.25 0  0.8 0.25 0  0.825 0.25 0  0.85 0.25 0  0.875 0.25 0  0.9 0.25 0  0.925 0.25 0  0.95 0.25 0  0.975 0.25 0  1 0.25 0  0 0.275 0  0.025 0.275 0  0.05 0.275 0  0.075 0.275 0  0.1 0.275 0  0.125 0.275 0  0.15 0.275 0  0.175 0.275 0  0.2 0.275 0  0.225 0.275 0  0.25 0.275 0  0.275 0.275 0  0.3 0.275 0  0.325 0.275 0  0.35 0.275 0  0.375 0.275 0  0.4 0.275 0  0.425 0.275 0  0.45 0.275 0  0.475 0.275 0  0.5 0.275 0  0.525 0.275 0  0.55 0.275 0  0.575 0.275 0  0.6 0.275 0  0.625 0.275 0  0.65 0.275 0  0.675 0.275 0  0.7 0.275 0  0.725 0.275 0  0.75 0.275 0  0.775 0.275 0  0.8 0.275 0  0.825 0.275 0  0.85 0.275 0  0.875 0.275 0  0.9 0.275 0  0.925 0.275 0  0.95 0.275 0  0.975 0.275 0  1 0.275 0  0 0.3 0  0.025 0.3 0  0.05 0.3 0  0.075 0.3 0  0.1 0.3 0  0.125 0.3 0  0.15 0.3 0  0.175 0.3 0  0.2 0.3 0  0.225 0.3 0  0.25 0.3 0  0.275 0.3 0  0.3 0.3 0  0.325 0.3 0  0.35 0.3 0  0.375 0.3 0  0.4 0.3 0  0.425 0.3 0  0.45 0.3 0  0.475 0.3 0  0.5 0.3 0  0.525 0.3 0  0.55 0.3 0  0.575 0.3 0  0.6 0.3 0  0.625 0.3 0  0.65 0.3 0  0.675 0.3 0  0.7 0.3 0  0.725 0.3 0  0.75 0.3 0  0.775 0.3 0  0.8 0.3 0  0.825 0.3 0  0.85 0.3 0  0.875 0.3 0  0.9 0.3 0  0.925 0.3 0  0.95 0.3 0  0.975 0.3 0  1 0.3 0  0 0.325 0  0.025 0.325 0  0.05 0.325 0  0.075 0.325 0  0.1 0.325 0  0.125 0.325 0  0.15 0.325 0  0.175 0.325 0  0.2 0.325 0  0.225 0.325 0  0.25 0.325 0  0.275 0.325 0  0.3 0.325 0  0.325 0.325 0  0.35 0.325 0  0.375 0.325 0  0.4 0.325 0  0.425 0.325 0  0.45 0.325 0  0.475 0.325 0  0.5 0.325 0  0.525 0.325 0  0.55 0.325 0  0.575 0.325 0  0.6 0.325 0  0.625 0.325 0  0.65 0.325 0  0.675 0.325 0  0.7 0.325 0  0.725 0.325 0  0.75 0.325 0  0.775 0.325 0  0.8 0.325 0  0.825 0.325 0  0.85 0.325 0  0.875 0.325 0  0.9 0.325 0  0.925 0.325 0  0.95 0.325 0  0.975 0.325 0  1 0.325 0  0 0.35 0  0.025 0.35 0  0.05 0.35 0  0.075 0.35 0  0.1 0.35 0  0.125 0.35 0  0.15 0.35 0  0.175 0.35 0  0.2 0.35 0  0.225 0.35 0  0.25 0.35 0  0.275 0.35 0  0.3 0.35 0  0.325 0.35 0  0.35 0.35 0  0.375 0.35 0  0.4 0.35 0  0.425 0.35 0  0.45 0.35 0  0.475 0.35 0  0.5 0.35 0  0.525 0.35 0  0.55 0.35 0  0.575 0.35 0  0.6 0.35 0  0.625 0.35 0  0.65 0.35 0  0.675 0.35 0  0.7 0.35 0  0.725 0.35 0  0.75 0.35 0  0.775 0.35 0  0.8 0.35 0  0.825 0.35 0  0.85 0.35 0  0.875 0.35 0  0.9 0.35 0  0.925 0.35 0  0.95 0.35 0  0.975 0.35 0  1 0.35 0  0 0.375 0  0.025 0.375 0  0.05 0.375 0  0.075 0.375 0  0.1 0.375 0  0.125 0.375 0  0.15 0.375 0  0.175 0.375 0  0.2 0.375 0  0.225 0.375 0  0.25 0.375 0  0.275 0.375 0  0.3 0.375 0  0.325 0.375 0  0.35 0.375 0  0.375 0.375 0  0.4 0.375 0  0.425 0.375 0  0.45 0.375 0  0.475 0.375 0  0.5 0.375 0  0.525 0.375 0  0.55 0.375 0  0.575 0.375 0  0.6 0.375 0  0.625 0.375 0  0.65 0.375 0  0.675 0.375 0  0.7 0.375 0  0.725 0.375 0  0.75 0.375 0  0.775 0.375 0  0.8 0.375 0  0.825 0.375 0  0.85 0.375 0  0.875 0.375 0  0.9 0.375 0  0.925 0.375 0  0.95 0.375 0  0.975 0.375 0  1 0.375 0  0 0.4 0  0.025 0.4 0  0.05 0.4 0  0.075 0.4 0  0.1 0.4 0  0.125 0.4 0  0.15 0.4 0  0.175 0.4 0  0.2 0.4 0  0.225 0.4 0  0.25 0.4 0  0.275 0.4 0  0.3 0.4 0  0.325 0.4 0  0.35 0.4 0  0.375 0.4 0  0.4 0.4 0  0.425 0.4 0  0.45 0.4 0  0.475 0.4 0  0.5 0.4 0  0.525 0.4 0  0.55 0.4 0  0.575 0.4 0  0.6 0.4 0  0.625 0.4 0  0.65 0.4 0  0.675 0.4 0  0.7 0.4 0  0.725 0.4 0  0.75 0.4 0  0.775 0.4 0  0.8 0.4 0  0.825 0.4 0  0.85 0.4 0  0.875 0.4 0  0.9 0.4 0  0.925 0.4 0  0.95 0.4 0  0.975 0.4 0  1 0.4 0  0 0.425 0  0.025 0.425 0  0.05 0.425 0  0.075 0.425 0  0.1 0.425 0  0.125 0.425 0  0.15 0.425 0  0.175 0.425 0  0.2 0.425 0  0.225 0.425 0  0.25 0.425 0  0.275 0.425 0  0.3 0.425 0  0.325 0.425 0  0.35 0.425 0  0.375 0.425 0  0.4 0.425 0  0.425 0.425 0  0.45 0.425 0  0.475 0.425 0  0.5 0.425 0  0.525 0.425 0  0.55 0.425 0  0.575 0.425 0  0.6 0.425 0  0.625 0.425 0  0.65 0.425 0  0.675 0.425 0  0.7 0.425 0  0.725 0.425 0  0.75 0.425 0  0.775 0.425 0  0.8 0.425 0  0.825 0.425 0  0.85 0.425 0  0.875 0.425 0  0.9 0.425 0  0.925 0.425 0  0.95 0.425 0  0.975 0.425 0  1 0.425 0  0 0.45 0  0.02
[...]
<PointData  Scalars="ControlVisualisation"> 
<DataArray  type="Float64"  Name="ControlVisualisation"  format="ascii">3.8136408251249670e-01  3.2786556843138254e-01  3.2790444983404154e-01  3.2821791814067697e-01  3.2885318954017828e-01  3.2972940383685273e-01  3.3071919565828906e-01  3.3170544288312231e-01  3.3260806701183426e-01  3.3338592726956362e-01  3.3402734899247621e-01  3.3453881358920096e-01  3.3493593820714840e-01  3.3523749246114998e-01  3.3546191464482600e-01  3.3562554450636756e-01  3.3574190722862507e-01  3.3582157451770778e-01  3.3587229557060139e-01  3.3589921216730922e-01  3.3590505252044067e-01  3.3589024858295891e-01  3.3585295221564365e-01  3.3578894648846142e-01  3.3569146777978981e-01  3.3555098045901588e-01  3.3535498751829845e-01  3.3508802862074788e-01  3.3473212036772304e-01  3.3426804493718332e-01  3.3367808269558796e-01  3.3295092922742203e-01  3.3208960600216536e-01  3.3112225134370171e-01  3.3011330005135997e-01  3.2916866703106329e-01  3.2841857810476638e-01  3.2797171513096163e-01  3.2784205792644516e-01  3.2788824569249436e-01  4.3665767144085155e-01  3.2786068178693806e-01  1.8605370147972228e-01  1.8748299961859460e-01  1.9111664579407717e-01  1.9731989117624343e-01  2.0554625364512125e-01  2.1480662626401562e-01  2.2413447160494229e-01  2.3282053584385090e-01  2.4045958654477259e-01  2.4689667805803428e-01  2.5214509011779651e-01  2.5631309355292836e-01  2.5955077139341376e-01  2.6201610253467167e-01  2.6385568126866771e-01  2.6519522973416254e-01  2.6613602551082993e-01  2.6675449723880912e-01  2.6710319211846578e-01  2.6721201734696076e-01  2.6708913347536339e-01  2.6672119466041933e-01  2.6607285737807052e-01  2.6508568127824994e-01  2.6367678813060658e-01  2.6173799263986530e-01  2.5913664234188455e-01  2.5572014981669849e-01  2.5132722192088830e-01  2.4580989021567631e-01  2.3907138862893723e-01  2.3112465394585574e-01  2.2217045537972471e-01  2.1268298807221944e-01  2.0345592537222384e-01  1.9551441432455477e-01  1.8982611872408850e-01  1.8676799855606505e-01  1.8580749816344574e-01  3.2788768362159526e-01  3.2784696070428854e-01  1.8737276709969874e-01  1.9291241839049234e-01  2.0301782769454257e-01  2.1824371958135028e-01  2.3746075135748401e-01  2.5854552063953601e-01  2.7945169514585244e-01  2.9872642637505892e-01  3.1557925115485408e-01  3.2974145796646276e-01  3.4128331438706316e-01  3.5046060498776954e-01  3.5760705274820936e-01  3.6306714984644184e-01  3.6715841866946997e-01  3.7015295964731781e-01  3.7227056536801845e-01  3.7367804297663509e-01  3.7449124941115314e-01  3.7477768160009439e-01  3.7455837625066868e-01  3.7380848912911790e-01  3.7245636798117226e-01  3.7038132537164881e-01  3.6741077386002730e-01  3.6331802436716215e-01  3.5782300004165035e-01  3.5059949383554145e-01  3.4129454619818100e-01  3.2956782155757797e-01  3.1516169404585370e-01  2.9801297208311839e-01  2.7841244537531390e-01  2.5719928613632992e-01  2.3589962773831191e-01  2.1665199336100729e-01  2.0162103288366523e-01  1.9178181651736095e-01  1.8664932138878026e-01  3.2782374783786200e-01  3.2799051478679642e-01  1.9094168781337947e-01  2.0428690282014844e-01  2.2302147254200402e-01  2.4690835082036519e-01  2.7428390681555020e-01  3.0245757098692178e-01  3.2915193662970177e-01  3.5297811878958940e-01  3.7334169274451151e-01  3.9018599115686980e-01  4.0376374904920032e-01  4.1447594525101294e-01  4.2276963098654335e-01  4.2907797384406188e-01  4.3378821125690603e-01  4.3722709672913057e-01  4.3965660927957528e-01  4.4127504427447173e-01  4.4222028427026960e-01  4.4257323318218816e-01  4.4236021896445005e-01  4.4155374158185196e-01  4.4007136785907436e-01  4.3777295188766202e-01  4.3445678704032303e-01  4.2985587278857068e-01  4.2363631708248017e-01  4.1540109428473265e-01  4.0470414484764772e-01  3.9108211805159182e-01  3.7411491876108172e-01  3.5352891499660166e-01  3.2936494545460582e-01  3.0221691665375672e-01  2.7350218996318831e-01  2.4561001486394557e-01  2.2128283522871944e-01  2.0227621400799711e-01  1.8931866127739547e-01  3.2784787911793123e-01  3.2838289280252791e-01  1.9842064316318289e-01  2.2852618303471137e-01  2.6207503026037415e-01  2.9592943475898781e-01  3.2860396048697588e-01  3.5853310287335532e-01  3.8470411687064521e-01  4.0680731497562128e-01  4.2499735316004095e-01  4.3965765840264748e-01  4.5125954943397611e-01  4.6028727790876584e-01  4.6719857617658739e-01  4.7240379112018166e-01  4.7625581402346773e-01  4.7904677701397974e-01  4.8100889979341716e-01  4.8231752297819630e-01  4.8309483146008741e-01  4.8341318665446859e-01  4.8329735179610628e-01  4.8272520124359303e-01  4.8162676340050925e-01  4.7988168392624797e-01  4.7731544370693513e-01  4.7369495253602839e-01  4.6872448086526636e-01  4.6204328255156363e-01  4.5322679010330241e-01  4.4179389517664319e-01  4.2722499985285622e-01  4.0899825576440707e-01  3.8666742563041312e-01  3.5999911312102351e-01  3.2924709649852479e-01  2.9541664371145365e-01  2.6013673766736772e-01  2.2537302579047599e-01  1.9565990271638786e-01  3.2806362099407765e-01  3.2932458521514102e-01  2.1882529880117615e-01  2.8523812318764580e-01  3.4231835728899612e-01  3.8345761322263572e-01  4.1388797639387875e-01  4.3698744156681452e-01  4.5468998420194229e-01  4.6830982860329151e-01  4.7879848533888369e-01  4.8685266072228472e-01  4.9299242550328937e-01  4.9761976422535370e-01  5.0105660378402606e-01  5.0356648694381700e-01  5.0536612041842210e-01  5.0663166038867691e-01  5.0750264510942011e-01  5.0808494589974551e-01  5.0845318683121909e-01  5.0865264126467713e-01  5.0870046372528588e-01  5.0858611616936911e-01  5.0827090982601120e-01  5.0768665487223241e-01  5.0673344910338247e-01  5.0527659021484450e-01  5.0314237550845897e-01  5.0011203181755337e-01  4.9591207506579016e-01  4.9019786813268590e-01  4.8252614715224523e-01  4.7231038242239426e-01  4.5876144976784722e-01  4.4080198009108817e-01  4.1699243055741958e-01  3.8508477087245974e-01  3.4137021741831619e-01  2.8004987991285807e-01  2.1022967311745466e-01  3.2832083334519779e-01  3.4667166773597180e-01  2.9999245570686145e-01  4.2990331855813368e-01  4.9662480624736305e-01  5.2435422533683673e-01  5.3549569297153565e-01  5.3915701680552774e-01  5.3929873146696872e-01  5.3787078031062341e-01  5.3587300486134792e-01  5.3379627661713824e-01  5.3185639558476794e-01  5.3013088002239350e-01  5.2863597764983916e-01  5.2736647929715463e-01  5.2631381796075305e-01  5.2547259023480652e-01  5.2484164280074685e-01  5.2442309076072668e-01  5.2422091495866141e-01  5.2423982710235273e-01  5.2448462225817982e-01  5.2496004841757471e-01  5.2567116643543188e-01  5.2662414630521659e-01  5.2782735427146987e-01  5.2929231595493731e-01  5.3103353028555622e-01  5.3306494361778400e-01  5.3538891697235291e-01  5.3797070400718694e-01  5.4068852696862313e-01  5.4324621019613450e-01  5.4504296511871619e-01  5.4497323596399749e-01  5.4109871476833105e-01  5.2945014340769425e-01  5.0092722720551852e-01  4.2940088727894421e-01  2.8386158619158403e-01  3.3284645909252275e-01  5.6009128316019885e-01  6.2524908882709662e-01  7.1178390233155553e-01  7.1728487454651935e-01  7.0037291407425317e-01  6.7696504866863449e-01  6.5250154957476436e-01  6.2954577397282230e-01  6.0933998810758094e-01  5.9230100401354435e-01  5.7833745595459451e-01  5.6710834541041799e-01  5.5819319773981724e-01  5.5118440885749298e-01  5.4572844769351825e-01  5.4153810813833525e-01  5.3839054350287885e-01  5.3611969316667629e-01  5.3460765731021809e-01  5.3377718581999722e-01  5.3358616491606670e-01  5.3402437575873107e-01  5.3511256342598001e-01  5.3690379638362840e-01  5.3948707802139040e-01  5.4299306717839657e-01  5.4760141195015999e-01  5.5354835268091962e-01  5.6113152656403187e-01  5.7070580585566633e-01  5.8265931378183322e-01  5.9735317460051840e-01  6.1500834638130020e-01  6.3554692058549345e-01  6.5844623353961418e-01  6.8275897168998789e-01  7.0674483316629577e-01  7.2615770484544562e-01  7.2091892669605717e-01  6.6149463376741813e-01  4.5824903313842902e-01  9.0322721014630658e-01  9.4987230573176573e-01  9.2235550077484674e-01  8.8666761130542193e-01  8.4499198412824983e-01  7.9904741538448731e-01  7.5277414052543978e-01  7.0978558278776949e-01  6.7233449746368412e-01  6.4116347860274314e-01  6.1598082202234727e-01  5.9601807270799056e-01  5.8038963276755884e-01  5.6826948266692923e-01  5.5895773849130415e-01  5.5189267630989092e-01  5.4663998201335562e-01  5.4287504839375789e-01  5.4036549801697975e-01  5.3895683512584425e-01  5.3856217808171958e-01  5.3915623829557269e-01  5.4077348328918950e-01  5.4351043299912216e-01  5.4753210359215243e-01  5.5308257426065632e-01  5.6049928843157648e-01  5.7022960937628198e-01  5.8284556470952786e-01  5.9904729411245128e-01  6.1963551278843554e-01  6.4541710870672375e-01  6.7699471318246851e-01  7.1441467677167236e-01  7.5681187063105160e-01  8.0247097420123070e-01  8.4903982511407938e-01  8.9368461471684535e-01  9.3040933233099921e-01  9.5421994689316769e-01  8.4937776729414360e-01  9.7906097612978282e-01  9.8833170739070431e-01  9.7107623988388025e-01  9.4856542103253794e-01  9.1651124599522471e-01  8.7177584507878492e-01  8.1873742524631243e-01  7.6500168878805996e-01  7.1629541734656044e-01  6.7512274623467616e-01  6.4173055670950185e-01  6.1529870517036755e-01  5.9468384941168351e-01  5.7877160872600419e-01  5.6660659041721695e-01  5.5741989648018075e-01  5.5061653373651631e-01  5.4575120411127409e-01  5.4250424503119921e-01  5.4066201087006860e-01  5.4010290695356089e-01  5.4078917952282690e-01  5.4276430288989863e-01  5.4615587637407526e-01  5.5118409297870874e-01  5.5817587562614412e-01  5.6758440999894944e-01  5.8001244846563715e-01  5.9623414695713173e-01  6.1720170601692759e-01  6.4400482616700527e-01  6.7771672891426094e-01  7.1901261131705030e-01  7.6743636032717855e-01  8.2043072629087088e-01  8.7287086492482924e-01  9.1823216896314186e-01  9.5228828543732191e-01  9.7793662663704561e-01  9.9002017921948926e-01  9.6156620848951868e-01  9.8685737749634628e-01  9.9902019100030404e-01  9.8212605396462727e-01  9.6240544839672093e-01  9.3596725226880084e-01  8.9578336010487292e-01  8.4332681314196256e-01  7.8691034507976299e-01  7.3412899450652580e-01  6.8879613360805148e-01  6.5175485285647783e-01  6.2234441754435998e-01  5.9938837001521283e-01  5.8167644391167761e-01  5.6814977069777317e-01  5.5794787797336309e-01  5.5040097013617251e-01  5.4500544515699401e-01  5.4139817068953866e-01  5.3933515409700727e-01  5.3867623643113771e-01  5.3937601175746441e-01  5.4148081896466549e-01  5.4513171247237735e-01  5.5057348159985764e-01  5.5816983946252874e-01  5.6842452660107157e-01  5.8200660015848560e-01  5.9977408840116575e-01  6.2278017002061625e-01  6.5222351690442237e-01  6.8925936582185521e-01  7.3451585172146494e-01  7.8711945455152976e-01  8.4328663936321546e-01  8.9559457959988409e-01  9.3589181976647662e-01  9.6247967402873036e-01  9.8220204467548555e-01  9.9893556311078446e-01  9.8667339451585356e-01  9.6191095886908107e-01  9.9035603519579940e-01  9.7803695064520046e-01  9.5364908114515246e-01  9.2207829952940590e-01  8.7912614136773559e-01  8.2744627520875402e-01  7.7354862648209366e-01  7.2334616581878808e-01  6.8005482149290852e-01  6.4448182479661054e-01  6.1609195707787512e-01  5.9384277679650066e-01  5.7662613799411944e-01  5.6345213473158418e-01  5.5350392490643441e-01  5.4613794827103646e-01  5.4086550221538965e-01  5.3733119412882857e-01  5.3529431903507019e-01  5.3461517769789701e-01  5.3524680475758879e-01  5.3723210392616705e-01  5.4070634211676272e-01  5.4590502706529065e-01  5.5317717250042608e-01  5.6300355497680288e-01  5.7601820335889009e-01  5.9302775181723710e-01  6.1501468953661531e-01  6.4309164969016952e-01  6.7833652400329791e-01  7.2137918565158343e-01  7.7157597902508168e-01  8.2579998226426277e-01  8.7776867551658500e-01  9.2018975772852940e-01  9.5012025179484494e-01  9.7150063614723825e-01  9.8860448249222088e-01  9.7925127196954898e-01  8.4948038200296050e-01  9.5512123983406494e-01  9.3421926383289844e-01  9.0203668224368316e-01  8.6192636474525131e-01  8.1772360139860822e-01  7.7169904007522350e-01  7.2678603321023283e-01  6.8575577374527708e-01  6.5034584987870903e-01  6.2101856856623672e-01  5.9739618978201969e-01  5.7872928916824407e-01  5.6418885790180950e-01  5.5300807095590965e-01  5.4453562527088661e-01  5.3824621064530920e-01  5.3373332726145506e-01  5.3069683547833535e-01  5.2893083044301281e-01  5.2831416235365569e-01  5.2880446546730320e-01  5.3043596284722694e-01  5.3332109285924456e-01  5.3765589725858853e-01  5.4372893537131384e-01  5.5193302137985467e-01  5.6277792744912647e-01  5.7689958270634933e-01  5.9505576092311974e-01  6.1808730910781751e-01  6.4680461555462854e-01  6.8173320236149415e-01  7.2264793425230123e-01  7.6794806606325339e-01  8.1437244597886838e-01  8.5784490902443977e-01  8.9521639806985587e-01  9.2650194547476539e-01  9.5124699305601979e-01  9.0372168878062864e-01  4.6075905927695626e-01  6.7787448911631365e-01  7.4471707067322623e-01  7.5283575821425386e-01  7.3426866238571731e-01  7.0882226782276714e-01  6.8110117200458253e-01  6.5341578222616303e-01  6.2747747270042364e-01  6.0448783193867595e-01  5.8496771754419419e-01  5.6891192969413840e-01  5.5601456177002673e-01  5.4584644793830217e-01  5.3796218474761259e-01  5.3195468001515289e-01  5.2747828219883375e-01  5.2425530600235060e-01  5.2207490724359396e-01  5.2078923712035563e-01  5.2030944570348348e-01  5.2060280419477523e-01  5.2169151200079356e-01  5.2365334760588655e-01  5.2662401581928819e-01  5.3080068646054213e-01  5.3644564802780514e-01  5.4388798760017520e-01  5.5351941485190670e-01  5.6577730092615608e-01  5.8110322504034717e-01  5.9985896867792621e-01  6.2217689364335071e-01  6.4772841194436437e-01  6.7544189788225295e-01  7.0329273127888625e-01  7.2810640810435234e-01  7.4427665655827902e-01  7.3625589250131696e-01  6.4246744396881550e-01  5.6215112717462079e-01  3.3483788396626979e-01  3.0290619376157107e-01  4.6561310036219666e-01  5.4051689235735123e-01  5.6707649265065596e-01  5.7440640072500981e-01  5.7272511034870788e-01  5.6656624125944255e-01  5.5838629568012210e-01  5.4976759614442061e-01  5.4165785901418440e-01  5.3453800854457545e-01  5.2857482048679094e-01  5.2375074952996403e-01  5.1995521058157834e-01  5.1704247313997265e-01  5.1486516798801185e-01  5.1329208281939476e-01  5.1221668117123209e-01  5.1156057336839278e-01  5.1127453290368230e-01  5.1133854425801462e-01  5.1176163833540655e-01  5.1258175791310456e-01  5.1386546172037029e-01  5.1570680310236994e-01  5.1822409075797016e-01  5.2155233248819299e-01  5.2582786782607815e-01  5.3115998225972672e-01  5.3758239076267833e-01  5.4497610682801245e-01  5.5295551359428141e-01  5.6071092088288632e-01  5.6679137765585785e-01  5.6871434813216504e-01  5.6187872239803049e-01  5.3602451845759091e-01  4.6555782224331699e-01  3.1874870772922836e-01  3.4914914424450583e-01  3.2960556235325572e-01  2.2277112059754978e-01  3.0962058031576667e-01  3.7826012165099271e-01  4.2223557051038907e-01  4.5084058170143537e-01  4.6963623081213873e-01  4.8182365812117195e-01  4.8946580874055035e-01  4.9411833565207142e-01  4.9690325854784906e-01  4.9858243333718888e-01  4.9963638069593996e-01  5.0034758355305919e-01  5.0086899261515561e-01  5.0127444660375897e-01  5.0159253430234663e-01  5.0182803146994293e-01  5.0197481752765261e-01  5.0202330951566299e-01  5.0196450336033605e-01  5.0179193113434895e-01  5.0150224971349455e-01  5.0109471205745304e-01  5.0056936059362267e-01  4.9992334487177509e-01  4.9914423207130365e-01  4.9819850196288556e-01  4.9701261574151850e-01  4.9544330342892701e-01  4.9323355078284381e-01  4.8995221276329576e-01  4.8491967619403631e-01  4.7712929254365283e-01  4.6517286765026394e-01  4.4711888178345893e-01  4.2007304588289529e-01  3.7879330704533087e-01  3.1460225755698307e-01  2.3210194660966224e-01  3.3082192220054107e-01  3.2908688946636977e-01  2.0480647461416052e-01  2.4654552086662709e-01  2.8826170789674688e-01  3.2591013032702898e-01  3.5909321003449451e-01  3.8739057653313602e-01  4.1066567282052263e-01  4.2932385956487390e-01  4.4409283223559859e-01  4.5573883434015033e-01  4.6493572374376974e-01  4.7221897739711538e-01  4.7799335837270884e-01  4.8255679687894326e-01  4.8612584073089127e-01  4.8885655148398155e-01  4.9085993889924268e-01  4.9221264478427651e-01  4.9296400145795632e-01  4.9314043554524850e-01  4.9274790709698130e-01  4.9177279689052372e-01  4.9018141121678921e-01  4.8791804870106747e-01  4.8490134088567421e-01  4.8101832039493947e-01  4.7611540929631918e-01  4.6998537476057256e-01  4.6234961371419836e-01  4.5283666246744797e-01  4.4096205388259702e-01  4.2612387423751258e-01  4.0764391183157178e-01  3.8489908872289824e-01  3.5756219564010727e-01  3.2580024369941740e-01  2.8996062347434781e-01  2.4990549247924296e-01  2.0811725675447451e-01  3.2958722703675675e-01  3.2854592402279836e-01  1.9555721458669068e-01  2.1657102529604205e-01  2.4117420111031662e-01  2.6921957289286247e-01  2.9950853965873120e-01  3.2966667355894724e-01  3.5766837340360513e-01  3.8246334901717777e-01  4.0375215549025351e-01  4.2166865067856518e-01  4.3654091813295526e-01  4.4875165031571779e-01  4.5867163855475301e-01  4.6663107291531941e-01  4.7291019384667682e-01  4.7773834560949974e-01  4.8129636259530617e-01  4.8371986279797069e-01  4.8510237943073203e-01  4.8549785049052502e-01  4.8492226321253118e-01  4.8335438708801759e-01  4.8073561486799016e-01  4.7696900332558595e-01  4.7191768780449767e-01  4.6540296829611949e-01  4.5720259772553334e-01  4.4705030838063498e-01  4.3463874477341036e-01  4.1963040085938924e-01  4.0168607281278035e-01  3.8052884774976403e-01  3.5607250081443520e-01  3.2864477488082267e-01  2.9928430203445333e-01  2.6990356013590422e-01  2.4279653284118352e-01  2.1897781200991295e-01  1.9786221372704380e-01  3.2889259483646233e-01  3.2818095410186948e-01  1.9029082411061632e-01  2.0097538137734289e-01  2.1641671454096617e-01  2.3778136183457588e-01  2.6420132927969708e-01  2.9322479148763725e-01  3.2239231845887878e-01  3.4993091257459469e-01  3.7481851158741342e-01  3.9661903827051320e-01  4.1527248534863548e-01  4.3093294923879161e-01  4.4385894690383654e-01  4.5434440754947453e-01  4.6267774163517711e-01  4.6911860039405839e-01  4.7388556835432905e-01  4.7715029236250839e-01  4.7903519180483356e-01  4.7961294178758967e-01  4.7890664243423148e-01  4.7689010733681075e-01  4.7348812217322789e-01  4.6857690771135840e-01  4.6198542846979029e-01  4.5349867935187160e-01  4.4286473345105226e-01  4.2980826554158852e-01  4.1405464143125575e-01  3.9537072711150373e-01  3.7363144528089315e-01  3.4892370070760115e-01  3.2169796238130532e-01  2.9295905391097937e-01  2.6442501426761722e-01  2.3845603433867893e-01  2.1741012756007588e-01  2.0225233439693344e-01  1.9157713189134482e-01  3.2841258781005417e-01  3.2797194371419108e-01  1.8735668085083970e-01  1.9285256688787836e-01  2.0406121007136580e-01  2.2202843337663788e-01  2.4588223682877144e-01  2.7350674617770948e-01  3.0254743220343078e-01  3.3102080410841722e-01  3.5755669218685665e-01  3.8136980354677796e-01  4.0212517167927797e-01  4.1979228155544929e-01  4.3452230607541864e-01  4.4655821840314741e-01  4.5617382384786131e-01  4.6363484477151384e-01  4.6917551648503514e-01  4.7298539387872834e-01  4.7520250175693968e-01  4.7591015334790132e-01  4.7513572702796453e-01  4.7285046288512672e-01  4.6896999545601969e-01  4.6335595159143933e-01  4.5581958824977675e-01  4.4612919387914290e-01  4.3402389150108273e-01  4.1923759464469401e-01  4.0153811187338745e-01  3.8078754633561585e-01  3.5703014742434425e-01  3.3061048855431063e-01  3.0231382089433262e-01  2.7349103229294219e-01  2.4608265046171882e-01  2.2240013347540175e-01  2.0453495306445918e-01  1.9342312973931894e-01  1.8796332787391368e-01  3.2809116259452520e-01  3.2794005633268819e-01  1.8658714189054174e-01  1.9047005560570585e-01  2.0042619046413243e-01  2.1734634120332583e-01  2.4030024593160518e-01  2.6731474358941565e-01  2.9612622353102058e-01  3.247391127