<?xml version="1.0"?>
<VTKFile type="UnstructuredGrid"  version="0.1"  >
<UnstructuredGrid>
<Piece  NumberOfPoints="1681" NumberOfCells="3200">
<Points>
<DataArray  type="Float64"  NumberOfComponents="3"  format="ascii">0 0 0  0.025 0 0  0.05 0 0  0.075 0 0  0.1 0 0  0.125 0 0  0.15 0 0  0.175 0 0  0.2 0 0  0.225 0 0  0.25 0 0  0.275 0 0  0.3 0 0  0.325 0 0  0.35 0 0  0.375 0 0  0.4 0 0  0.425 0 0  0.45 0 0  0.475 0 0  0.5 0 0  0.525 0 0  0.55 0 0  0.575 0 0  0.6 0 0  0.625 0 0  0.65 0 0  0.675 0 0  0.7 0 0  0.725 0 0  0.75 0 0  0.775 0 0  0.8 0 0  0.825 0 0  0.85 0 0  0.875 0 0  0.9 0 0  0.925 0 0  0.95 0 0  0.975 0 0  1 0 0  0 0.025 0  0.025 0.025 0  0.05 0.025 0  0.075 0.025 0  0.1 0.025 0  0.125 0.025 0  0.15 0.025 0  0.175 0.025 0  0.2 0.025 0  0.225 0.025 0  0.25 0.025 0  0.275 0.025 0  0.3 0.025 0  0.325 0.025 0  0.35 0.025 0  0.375 0.025 0  0.4 0.025 0  0.425 0.025 0  0.45 0.025 0  0.475 0.025 0  0.5 0.025 0  0.525 0.025 0  0.55 0.025 0  0.575 0.025 0  0.6 0.025 0  0.625 0.025 0  0.65 0.025 0  0.675 0.025 0  0.7 0.025 0  0.725 0.025 0  0.75 0.025 0  0.775 0.025 0  0.8 0.025 0  0.825 0.025 0  0.85 0.025 0  0.875 0.025 0  0.9 0.025 0  0.925 0.025 0  0.95 0.025 0  0.975 0.025 0  1 0.025 0  0 0.05 0  0.025 0.05 0  0.05 0.05 0  0.075 0.05 0  0.1 0.05 0  0.125 0.05 0  0.15 0.05 0  0.175 0.05 0  0.2 0.05 0  0.225 0.05 0  0.25 0.05 0  0.275 0.05 0  0.3 0.05 0  0.325 0.05 0  0.35 0.05 0  0.375 0.05 0  0.4 0.05 0  0.425 0.05 0  0.45 0.05 0  0.475 0.05 0  0.5 0.05 0  0.525 0.05 0  0.55 0.05 0  0.575 0.05 0  0.6 0.05 0  0.625 0.05 0  0.65 0.05 0  0.675 0.05 0  0.7 0.05 0  0.725 0.05 0  0.75 0.05 0  0.775 0.05 0  0.8 0.05 0  0.825 0.05 0  0.85 0.05 0  0.875 0.05 0  0.9 0.05 0  0.925 0.05 0  0.95 0.05 0  0.975 0.05 0  1 0.05 0  0 0.075 0  0.025 0.075 0  0.05 0.075 0  0.075 0.075 0  0.1 0.075 0  0.125 0.075 0  0.15 0.075 0  0.175 0.075 0  0.2 0.075 0  0.225 0.075 0  0.25 0.075 0  0.275 0.075 0  0.3 0.075 0  0.325 0.075 0  0.35 0.075 0  0.375 0.075 0  0.4 0.075 0  0.425 0.075 0  0.45 0.075 0  0.475 0.075 0  0.5 0.075 0  0.525 0.075 0  0.55 0.075 0  0.575 0.075 0  0.6 0.075 0  0.625 0.075 0  0.65 0.075 0  0.675 0.075 0  0.7 0.075 0  0.725 0.075 0  0.75 0.075 0  0.775 0.075 0  0.8 0.075 0  0.825 0.075 0  0.85 0.075 0  0.875 0.075 0  0.9 0.075 0  0.925 0.075 0  0.95 0.075 0  0.975 0.075 0  1 0.075 0  0 0.1 0  0.025 0.1 0  0.05 0.1 0  0.075 0.1 0  0.1 0.1 0  0.125 0.1 0  0.15 0.1 0  0.175 0.1 0  0.2 0.1 0  0.225 0.1 0  0.25 0.1 0  0.275 0.1 0  0.3 0.1 0  0.325 0.1 0  0.35 0.1 0  0.375 0.1 0  0.4 0.1 0  0.425 0.1 0  0.45 0.1 0  0.475 0.1 0  0.5 0.1 0  0.525 0.1 0  0.55 0.1 0  0.575 0.1 0  0.6 0.1 0  0.625 0.1 0  0.65 0.1 0  0.675 0.1 0  0.7 0.1 0  0.725 0.1 0  0.75 0.1 0  0.775 0.1 0  0.8 0.1 0  0.825 0.1 0  0.85 0.1 0  0.875 0.1 0  0.9 0.1 0  0.925 0.1 0  0.95 0.1 0  0.975 0.1 0  1 0.1 0  0 0.125 0  0.025 0.125 0  0.05 0.125 0  0.075 0.125 0  0.1 0.125 0  0.125 0.125 0  0.15 0.125 0  0.175 0.125 0  0.2 0.125 0  0.225 0.125 0  0.25 0.125 0  0.275 0.125 0  0.3 0.125 0  0.325 0.125 0  0.35 0.125 0  0.375 0.125 0  0.4 0.125 0  0.425 0.125 0  0.45 0.125 0  0.475 0.125 0  0.5 0.125 0  0.525 0.125 0  0.55 0.125 0  0.575 0.125 0  0.6 0.125 0  0.625 0.125 0  0.65 0.125 0  0.675 0.125 0  0.7 0.125 0  0.725 0.125 0  0.75 0.125 0  0.775 0.125 0  0.8 0.125 0  0.825 0.125 0  0.85 0.125 0  0.875 0.125 0  0.9 0.125 0  0.925 0.125 0  0.95 0.125 0  0.975 0.125 0  1 0.125 0  0 0.15 0  0.025 0.15 0  0.05 0.15 0  0.075 0.15 0  0.1 0.15 0  0.125 0.15 0  0.15 0.15 0  0.175 0.15 0  0.2 0.15 0  0.225 0.15 0  0.25 0.15 0  0.275 0.15 0  0.3 0.15 0  0.325 0.15 0  0.35 0.15 0  0.375 0.15 0  0.4 0.15 0  0.425 0.15 0  0.45 0.15 0  0.475 0.15 0  0.5 0.15 0  0.525 0.15 0  0.55 0.15 0  0.575 0.15 0  0.6 0.15 0  0.625 0.15 0  0.65 0.15 0  0.675 0.15 0  0.7 0.15 0  0.725 0.15 0  0.75 0.15 0  0.775 0.15 0  0.8 0.15 0  0.825 0.15 0  0.85 0.15 0  0.875 0.15 0  0.9 0.15 0  0.925 0.15 0  0.95 0.15 0  0.975 0.15 0  1 0.15 0  0 0.175 0  0.025 0.175 0  0.05 0.175 0  0.075 0.175 0  0.1 0.175 0  0.125 0.175 0  0.15 0.175 0  0.175 0.175 0  0.2 0.175 0  0.225 0.175 0  0.25 0.175 0  0.275 0.175 0  0.3 0.175 0  0.325 0.175 0  0.35 0.175 0  0.375 0.175 0  0.4 0.175 0  0.425 0.175 0  0.45 0.175 0  0.475 0.175 0  0.5 0.175 0  0.525 0.175 0  0.55 0.175 0  0.575 0.175 0  0.6 0.175 0  0.625 0.175 0  0.65 0.175 0  0.675 0.175 0  0.7 0.175 0  0.725 0.175 0  0.75 0.175 0  0.775 0.175 0  0.8 0.175 0  0.825 0.175 0  0.85 0.175 0  0.875 0.175 0  0.9 0.175 0  0.925 0.175 0  0.95 0.175 0  0.975 0.175 0  1 0.175 0  0 0.2 0  0.025 0.2 0  0.05 0.2 0  0.075 0.2 0  0.1 0.2 0  0.125 0.2 0  0.15 0.2 0  0.175 0.2 0  0.2 0.2 0  0.225 0.2 0  0.25 0.2 0  0.275 0.2 0  0.3 0.2 0  0.325 0.2 0  0.35 0.2 0  0.375 0.2 0  0.4 0.2 0  0.425 0.2 0  0.45 0.2 0  0.475 0.2 0  0.5 0.2 0  0.525 0.2 0  0.55 0.2 0  0.575 0.2 0  0.6 0.2 0  0.625 0.2 0  0.65 0.2 0  0.675 0.2 0  0.7 0.2 0  0.725 0.2 0  0.75 0.2 0  0.775 0.2 0  0.8 0.2 0  0.825 0.2 0  0.85 0.2 0  0.875 0.2 0  0.9 0.2 0  0.925 0.2 0  0.95 0.2 0  0.975 0.2 0  1 0.2 0  0 0.225 0  0.025 0.225 0  0.05 0.225 0  0.075 0.225 0  0.1 0.225 0  0.125 0.225 0  0.15 0.225 0  0.175 0.225 0  0.2 0.225 0  0.225 0.225 0  0.25 0.225 0  0.275 0.225 0  0.3 0.225 0  0.325 0.225 0  0.35 0.225 0  0.375 0.225 0  0.4 0.225 0  0.425 0.225 0  0.45 0.225 0  0.475 0.225 0  0.5 0.225 0  0.525 0.225 0  0.55 0.225 0  0.575 0.225 0  0.6 0.225 0  0.625 0.225 0  0.65 0.225 0  0.675 0.225 0  0.7 0.225 0  0.725 0.225 0  0.75 0.225 0  0.775 0.225 0  0.8 0.225 0  0.825 0.225 0  0.85 0.225 0  0.875 0.225 0  0.9 0.225 0  0.925 0.225 0  0.95 0.225 0  0.975 0.225 0  1 0.225 0  0 0.25 0  0.025 0.25 0  0.05 0.25 0  0.075 0.25 0  0.1 0.25 0  0.125 0.25 0  0.15 0.25 0  0.175 0.25 0  0.2 0.25 0  0.225 0.25 0  0.25 0.25 0  0.275 0.25 0  0.3 0.25 0  0.325 0.25 0  0.35 0.25 0  0.375 0.25 0  0.4 0.25 0  0.425 0.25 0  0.45 0.25 0  0.475 0.25 0  0.5 0.25 0  0.525 0.25 0  0.55 0.25 0  0.575 0.25 0  0.6 0.25 0  0.625 0.25 0  0.65 0.25 0  0.675 0.25 0  0.7 0.25 0  0.725 0.25 0  0.75 0.25 0  0.775 0.25 0  0.8 0.25 0  0.825 0.25 0  0.85 0.25 0  0.875 0.25 0  0.9 0.25 0  0.925 0.25 0  0.95 0.25 0  0.975 0.25 0  1 0.25 0  0 0.275 0  0.025 0.275 0  0.05 0.275 0  0.075 0.275 0  0.1 0.275 0  0.125 0.275 0  0.15 0.275 0  0.175 0.275 0  0.2 0.275 0  0.225 0.275 0  0.25 0.275 0  0.275 0.275 0  0.3 0.275 0  0.325 0.275 0  0.35 0.275 0  0.375 0.275 0  0.4 0.275 0  0.425 0.275 0  0.45 0.275 0  0.475 0.275 0  0.5 0.275 0  0.525 0.275 0  0.55 0.275 0  0.575 0.275 0  0.6 0.275 0  0.625 0.275 0  0.65 0.275 0  0.675 0.275 0  0.7 0.275 0  0.725 0.275 0  0.75 0.275 0  0.775 0.275 0  0.8 0.275 0  0.825 0.275 0  0.85 0.275 0  0.875 0.275 0  0.9 0.275 0  0.925 0.275 0  0.95 0.275 0  0.975 0.275 0  1 0.275 0  0 0.3 0  0.025 0.3 0  0.05 0.3 0  0.075 0.3 0  0.1 0.3 0  0.125 0.3 0  0.15 0.3 0  0.175 0.3 0  0.2 0.3 0  0.225 0.3 0  0.25 0.3 0  0.275 0.3 0  0.3 0.3 0  0.325 0.3 0  0.35 0.3 0  0.375 0.3 0  0.4 0.3 0  0.425 0.3 0  0.45 0.3 0  0.475 0.3 0  0.5 0.3 0  0.525 0.3 0  0.55 0.3 0  0.575 0.3 0  0.6 0.3 0  0.625 0.3 0  0.65 0.3 0  0.675 0.3 0  0.7 0.3 0  0.725 0.3 0  0.75 0.3 0  0.775 0.3 0  0.8 0.3 0  0.825 0.3 0  0.85 0.3 0  0.875 0.3 0  0.9 0.3 0  0.925 0.3 0  0.95 0.3 0  0.975 0.3 0  1 0.3 0  0 0.325 0  0.025 0.325 0  0.05 0.325 0  0.075 0.325 0  0.1 0.325 0  0.125 0.325 0  0.15 0.325 0  0.175 0.325 0  0.2 0.325 0  0.225 0.325 0  0.25 0.325 0  0.275 0.325 0  0.3 0.325 0  0.325 0.325 0  0.35 0.325 0  0.375 0.325 0  0.4 0.325 0  0.425 0.325 0  0.45 0.325 0  0.475 0.325 0  0.5 0.325 0  0.525 0.325 0  0.55 0.325 0  0.575 0.325 0  0.6 0.325 0  0.625 0.325 0  0.65 0.325 0  0.675 0.325 0  0.7 0.325 0  0.725 0.325 0  0.75 0.325 0  0.775 0.325 0  0.8 0.325 0  0.825 0.325 0  0.85 0.325 0  0.875 0.325 0  0.9 0.325 0  0.925 0.325 0  0.95 0.325 0  0.975 0.325 0  1 0.325 0  0 0.35 0  0.025 0.35 0  0.05 0.35 0  0.075 0.35 0  0.1 0.35 0  0.125 0.35 0  0.15 0.35 0  0.175 0.35 0  0.2 0.35 0  0.225 0.35 0  0.25 0.35 0  0.275 0.35 0  0.3 0.35 0  0.325 0.35 0  0.35 0.35 0  0.375 0.35 0  0.4 0.35 0  0.425 0.35 0  0.45 0.35 0  0.475 0.35 0  0.5 0.35 0  0.525 0.35 0  0.55 0.35 0  0.575 0.35 0  0.6 0.35 0  0.625 0.35 0  0.65 0.35 0  0.675 0.35 0  0.7 0.35 0  0.725 0.35 0  0.75 0.35 0  0.775 0.35 0  0.8 0.35 0  0.825 0.35 0  0.85 0.35 0  0.875 0.35 0  0.9 0.35 0  0.925 0.35 0  0.95 0.35 0  0.975 0.35 0  1 0.35 0  0 0.375 0  0.025 0.375 0  0.05 0.375 0  0.075 0.375 0  0.1 0.375 0  0.125 0.375 0  0.15 0.375 0  0.175 0.375 0  0.2 0.375 0  0.225 0.375 0  0.25 0.375 0  0.275 0.375 0  0.3 0.375 0  0.325 0.375 0  0.35 0.375 0  0.375 0.375 0  0.4 0.375 0  0.425 0.375 0  0.45 0.375 0  0.475 0.375 0  0.5 0.375 0  0.525 0.375 0  0.55 0.375 0  0.575 0.375 0  0.6 0.375 0  0.625 0.375 0  0.65 0.375 0  0.675 0.375 0  0.7 0.375 0  0.725 0.375 0  0.75 0.375 0  0.775 0.375 0  0.8 0.375 0  0.825 0.375 0  0.85 0.375 0  0.875 0.375 0  0.9 0.375 0  0.925 0.375 0  0.95 0.375 0  0.975 0.375 0  1 0.375 0  0 0.4 0  0.025 0.4 0  0.05 0.4 0  0.075 0.4 0  0.1 0.4 0  0.125 0.4 0  0.15 0.4 0  0.175 0.4 0  0.2 0.4 0  0.225 0.4 0  0.25 0.4 0  0.275 0.4 0  0.3 0.4 0  0.325 0.4 0  0.35 0.4 0  0.375 0.4 0  0.4 0.4 0  0.425 0.4 0  0.45 0.4 0  0.475 0.4 0  0.5 0.4 0  0.525 0.4 0  0.55 0.4 0  0.575 0.4 0  0.6 0.4 0  0.625 0.4 0  0.65 0.4 0  0.675 0.4 0  0.7 0.4 0  0.725 0.4 0  0.75 0.4 0  0.775 0.4 0  0.8 0.4 0  0.825 0.4 0  0.85 0.4 0  0.875 0.4 0  0.9 0.4 0  0.925 0.4 0  0.95 0.4 0  0.975 0.4 0  1 0.4 0  0 0.425 0  0.025 0.425 0  0.05 0.425 0  0.075 0.425 0  0.1 0.425 0  0.125 0.425 0  0.15 0.425 0  0.175 0.425 0  0.2 0.425 0  0.225 0.425 0  0.25 0.425 0  0.275 0.425 0  0.3 0.425 0  0.325 0.425 0  0.35 0.425 0  0.375 0.425 0  0.4 0.425 0  0.425 0.425 0  0.45 0.425 0  0.475 0.425 0  0.5 0.425 0  0.525 0.425 0  0.55 0.425 0  0.575 0.425 0  0.6 0.425 0  0.625 0.425 0  0.65 0.425 0  0.675 0.425 0  0.7 0.425 0  0.725 0.425 0  0.75 0.425 0  0.775 0.425 0  0.8 0.425 0  0.825 0.425 0  0.85 0.425 0  0.875 0.425 0  0.9 0.425 0  0.925 0.425 0  0.95 0.425 0  0.975 0.425 0  1 0.425 0  0 0.45 0  0.02
[...]
<PointData  Scalars="ControlVisualisation"> 
<DataArray  type="Float64"  Name="ControlVisualisation"  format="ascii">3.6361381662409605e-02  2.9159776000818122e-02  2.9180466847622551e-02  2.9215506182565625e-02  2.9260839950188439e-02  2.9324865619426106e-02  2.9415917806757078e-02  2.9533601560945720e-02  2.9665570325327156e-02  2.9792078902240872e-02  2.9895851018644420e-02  2.9970211749078511e-02  3.0020692705024915e-02  3.0060361148575174e-02  3.0102470403872907e-02  3.0154465336827245e-02  3.0215659252137587e-02  3.0278567856853303e-02  3.0332374881650387e-02  3.0366779690807609e-02  3.0375059743988353e-02  3.0355856129872315e-02  3.0313559025046885e-02  3.0257238317934296e-02  3.0198090226348735e-02  3.0145656427515759e-02  3.0103747210992078e-02  3.0067798944055257e-02  3.0025601961726260e-02  2.9962224667017402e-02  2.9867661285938707e-02  2.9743535302450982e-02  2.9604392719245427e-02  2.9471509589965236e-02  2.9362591255317420e-02  2.9283705355949638e-02  2.9230244337280491e-02  2.9192326239576870e-02  2.9164111700501788e-02  2.9157161732398684e-02  5.7456807757320288e-02  2.9160266432828562e-02  1.4514598486157097e-02  1.4651313519126616e-02  1.4913667764764126e-02  1.5308127528590232e-02  1.5825696403893176e-02  1.6451691787070157e-02  1.7160451612597237e-02  1.7900454797582732e-02  1.8595228791065364e-02  1.9170929074480196e-02  1.9592225611547866e-02  1.9878979357446792e-02  2.0091944126376257e-02  2.0298577782593349e-02  2.0541095777397322e-02  2.0822605023481648e-02  2.1112742187471764e-02  2.1364210272795101e-02  2.1530492101998533e-02  2.1579207411768012e-02  2.1499843885601749e-02  2.1306402342716003e-02  2.1035088583001703e-02  2.0736109600440263e-02  2.0458742401490961e-02  2.0231581272807136e-02  2.0045029530924123e-02  1.9847339035257254e-02  1.9562956536668882e-02  1.9129402215960316e-02  1.8532837206256300e-02  1.7817798591351484e-02  1.7063990884937298e-02  1.6347380552176299e-02  1.5718298762923008e-02  1.5208798481678984e-02  1.4838189818424379e-02  1.4606589650419381e-02  1.4488245045274677e-02  2.9157245819774275e-02  2.9182721231291342e-02  1.4644061529950451e-02  1.4960459708645298e-02  1.5483001661968379e-02  1.6298789974005017e-02  1.7337908116931061e-02  1.8477543445687923e-02  1.9588225571115683e-02  2.0547687130825755e-02  2.1273018069846682e-02  2.1784358701051269e-02  2.2261279566260700e-02  2.3029123447950439e-02  2.4440546205638999e-02  2.6697573899191682e-02  2.9725209756268411e-02  3.3177104452114553e-02  3.6555055434091377e-02  3.9358064528975230e-02  4.1189184252091469e-02  4.1802146616834596e-02  4.1110537111741285e-02  3.9189207412439572e-02  3.6279595848848566e-02  3.2784719338922783e-02  2.9222584578938934e-02  2.6115494236713041e-02  2.3834829411343517e-02  2.2473754599387566e-02  2.1830763154926977e-02  2.1524972045272393e-02  2.1178400261212468e-02  2.0564082087973383e-02  1.9647218228186367e-02  1.8516819178383624e-02  1.7324625406347341e-02  1.6243358958381221e-02  1.5429782690112546e-02  1.4932120050915099e-02  1.4603009662622915e-02  2.9165476767111675e-02  2.9222806202099938e-02  1.4888146154625283e-02  1.5465286616578609e-02  1.6272916101352307e-02  1.7407443109309383e-02  1.8455369391979851e-02  1.8930641682332328e-02  1.8517393430547729e-02  1.7097415847112815e-02  1.4819102216259816e-02  1.2870042188336664e-02  1.4339224876745965e-02  2.3026298879842089e-02  4.0610030401175001e-02  6.5526166646015682e-02  9.4298611954866829e-02  1.2320741748151071e-01  1.4908818912602595e-01  1.6950968884738030e-01  1.8276176290472496e-01  1.8781202354285634e-01  1.8426430375323866e-01  1.7234508478888177e-01  1.5293035706237743e-01  1.2759455696315661e-01  9.8662043665453503e-02  6.9252416008331291e-02  4.3180643607584474e-02  2.4227955906295673e-02  1.4384968999466535e-02  1.2239721354419933e-02  1.3963149868546507e-02  1.6339849645149548e-02  1.8077312722460062e-02  1.8828226662622245e-02  1.8530891175044695e-02  1.7423457728901533e-02  1.6211836082271384e-02  1.5389139683967046e-02  1.4802224990320696e-02  2.9195968171775478e-02  2.9254211489182905e-02  1.5221327463803308e-02  1.6233993121309409e-02  1.7375997724139558e-02  1.8593129256411746e-02  1.8625143849360863e-02  1.6951968500997332e-02  1.3769650004214554e-02  1.0622953135983645e-02  1.7977995949793574e-02  5.5398552389180455e-02  1.2878526986688532e-01  2.2018780065569557e-01  3.0787683727620174e-01  3.8120600056248088e-01  4.3900322946114967e-01  4.8364702326272013e-01  5.1750122540254517e-01  5.4185711822437843e-01  5.5710345685856255e-01  5.6321232373484431e-01  5.6012280633907885e-01  5.4789403364739486e-01  5.2659706360293435e-01  4.9593792440771567e-01  4.5470317876189065e-01  4.0040825040289624e-01  3.3003938446563252e-01  2.4330938039722608e-01  1.4898886263613287e-01  6.8737348468073695e-02  2.4259923610538636e-02  1.3261812311787913e-02  1.5215965777366308e-02  1.7490630282134857e-02  1.8055971574185259e-02  1.7426884608246831e-02  1.7094959037552947e-02  1.6416516269852285e-02  1.5174689236186770e-02  2.9232085142096034e-02  2.9296284177164782e-02  1.8014400371428034e-02  1.9445914015923702e-02  1.5241511838906610e-02  2.0706221025107621e-02  2.9558903181692214e-02  4.3591181195889978e-02  1.0075047545836535e-01  2.2798782140313958e-01  3.7580984710442644e-01  4.9482165193667016e-01  5.7435058173991860e-01  6.2340141798172188e-01  6.5358057991164153e-01  6.7362095000014599e-01  6.8888871558644027e-01  7.0201760258820622e-01  7.1367771018495885e-01  7.2335828223029441e-01  7.3009954993258697e-01  7.3306764388706791e-01  7.3191303645543015e-01  7.2691725981313771e-01  7.1893438449683500e-01  7.0909611032672304e-01  6.9825422992446340e-01  6.8621067833247318e-01  6.7085990338530832e-01  6.4734839439909742e-01  6.0730388433852223e-01  5.3861052895410999e-01  4.2860328283150895e-01  2.7884440712163949e-01  1.3277901085860588e-01  5.5463249081535299e-02  3.3349350578653909e-02  2.1844949229572194e-02  2.1084226318373402e-02  1.9204178787519254e-02  1.5806580080778732e-02  2.9098121832018882e-02  3.1561223907105161e-02  2.6818085619166231e-02  6.2242663052008547e-02  4.0350679046492988e-01  7.2396861048246430e-01  8.3819206699145488e-01  8.7799156031437164e-01  8.8903926574501413e-01  8.8595332081630607e-01  8.7366798980084226e-01  8.5427127706586381e-01  8.3032916094161535e-01  8.0580992437195009e-01  7.8501562668754776e-01  7.7084070010721550e-01  7.6390421963023980e-01  7.6293696556210788e-01  7.6573748236009131e-01  7.7001122264623345e-01  7.7387205755510824e-01  7.7606802668752140e-01  7.7606428894433832e-01  7.7410185617621063e-01  7.7128100205280159e-01  7.6960484704585141e-01  7.7179745050284254e-01  7.8064004722774905e-01  7.9771060786703085e-01  8.2199188293449266e-01  8.4953257904096047e-01  8.7501885165877746e-01  8.9430235813046322e-01  9.0567488104778870e-01  9.0883812190153079e-01  9.0196591414465599e-01  8.7510066700677225e-01  7.8598094176598121e-01  4.7535730239923324e-01  6.3044437652302332e-02  2.4710651507090210e-02  3.0017156439454150e-02  8.9954380357867125e-01  9.5973137178228862e-01  9.7994678478942154e-01  9.8189884845168274e-01  9.7828466157357841e-01  9.7666986437872161e-01  9.7523599562905605e-01  9.7250256154866255e-01  9.6706795700556036e-01  9.5691432730055381e-01  9.3867346380452754e-01  9.0953485676338874e-01  8.7173495916255173e-01  8.3342813700341767e-01  8.0295302062909790e-01  7.8338330835984127e-01  7.7287185637728384e-01  7.6804822717252696e-01  7.6632798700053095e-01  7.6633462346197079e-01  7.6744443181881472e-01  7.6931347046167964e-01  7.7175104020483276e-01  7.7505017229670159e-01  7.8069756913709853e-01  7.9194204024283421e-01  8.1296897221195441e-01  8.4555030856330604e-01  8.8506720998927224e-01  9.2159197077567323e-01  9.4743165074336910e-01  9.6224981960157252e-01  9.6990786353680758e-01  9.7369857265759896e-01  9.7552270867377489e-01  9.7659058794839626e-01  9.7747547812796809e-01  9.7852871287043364e-01  9.8020867179045934e-01  9.7381346946007963e-01  1.9100760732695068e-01  9.8239209206844413e-01  9.8826191132481911e-01  9.8714780084208920e-01  9.8574556670863922e-01  9.8488747706850843e-01  9.8526942589605104e-01  9.8650060229753100e-01  9.8734771151645373e-01  9.8590395907850004e-01  9.8042737167342575e-01  9.6852734410878749e-01  9.4511811306605509e-01  9.0609945293410799e-01  8.5673615782332646e-01  8.0987614871648572e-01  7.7387323384698536e-01  7.4829628184021524e-01  7.2963707205604378e-01  7.1613989304409176e-01  7.0813630598520294e-01  7.0651269510527270e-01  7.1147014791469643e-01  7.2215213334376560e-01  7.3722848818581876e-01  7.5645261158513777e-01  7.8236376031857247e-01  8.1929298451515631e-01  8.6710657414164094e-01  9.1564421723651712e-01  9.5176068287405813e-01  9.7201907429033729e-01  9.8166795888634317e-01  9.8561038921540589e-01  9.8625750385317301e-01  9.8555235486315629e-01  9.8497435676586864e-01  9.8495785241746237e-01  9.8517681234087495e-01  9.8656132135359198e-01  9.8942406237803149e-01  9.8306258702581029e-01  9.9094001239755825e-01  9.9455775034387328e-01  9.9232949397402392e-01  9.8964530900822845e-01  9.8604575429661656e-01  9.8420673538441217e-01  9.8595552904825079e-01  9.8920174793355287e-01  9.9136098544099671e-01  9.8978705862989158e-01  9.8193991855776841e-01  9.6295936505469659e-01  9.2492425544892942e-01  8.6731480595935295e-01  8.0377159820704935e-01  7.4832521941538876e-01  7.0375869181912742e-01  6.6750305936689625e-01  6.3920225561517663e-01  6.2119417434594482e-01  6.1598797328664723e-01  6.2439721774054691e-01  6.4497709488287802e-01  6.7472292352002949e-01  7.1124864734154103e-01  7.5555452633968390e-01  8.1095874413080715e-01  8.7425824268842733e-01  9.3034997460331603e-01  9.6604629367085482e-01  9.8314243882492125e-01  9.8977743797878315e-01  9.9063964943185212e-01  9.8842487218330588e-01  9.8579215696318956e-01  9.8494873963821250e-01  9.8704577427497697e-01  9.9005505490448853e-01  9.9261825353352262e-01  9.9468865411299001e-01  9.8917052585498477e-01  9.9242718826876464e-01  9.9611471670048601e-01  9.9409681520422566e-01  9.9182632215880129e-01  9.8798859792361748e-01  9.8453881155242540e-01  9.8522440242508413e-01  9.8881871560481649e-01  9.9224225924962395e-01  9.9253454981176414e-01  9.8681560137505475e-01  9.7033467917007621e-01  9.3362799717663869e-01  8.7241061877301629e-01  7.9939708195484172e-01  7.3129044025508427e-01  6.7285253606196604e-01  6.2271310342530517e-01  5.8232623642449877e-01  5.5604280765173542e-01  5.4779178119847971e-01  5.5891829645623570e-01  5.8755005339690580e-01  6.2921357004613587e-01  6.7921230443685809e-01  7.3634891079002052e-01  8.0286411613687736e-01  8.7466760572703484e-01  9.3501284444961863e-01  9.7105647673222084e-01  9.8711695918220532e-01  9.9259095168889566e-01  9.9217540705669061e-01  9.8875739266539286e-01  9.8526068093791186e-01  9.8464807970930202e-01  9.8804223023716220e-01  9.9181441609129639e-01  9.9408642855092888e-01  9.9610615637418798e-01  9.9241526192160912e-01  9.8920161148328600e-01  9.9475390096346916e-01  9.9278160611831856e-01  9.9042494614968934e-01  9.8748803648522943e-01  9.8528563999508900e-01  9.8623661502042437e-01  9.8931450369679674e-01  9.9216885045389425e-01  9.9203394859308103e-01  9.8633379445533775e-01  9.7048081332457858e-01  9.3503066411079439e-01  8.7622476955662199e-01  8.0661139423836126e-01  7.4025603716683808e-01  6.7961091700827303e-01  6.2404434848506873e-01  5.7749803436294656e-01  5.4654414260681405e-01  5.3638273076259868e-01  5.4881002804051482e-01  5.8168945942908812e-01  6.2930918464881791e-01  6.8444788181944882e-01  7.4283718167416113e-01  8.0590494008513736e-01  8.7320922761153319e-01  9.3201764467052828e-01  9.6878694830261547e-01  9.8578502101411036e-01  9.9221793014851722e-01  9.9278809006455404e-01  9.8992365034740315e-01  9.8634634668405330e-01  9.8464760640450522e-01  9.8662128337995214e-01  9.9006059881458264e-01  9.9251554046659607e-01  9.9461364683293640e-01  9.9095955145084025e-01  9.8309040122878288e-01  9.8963498813226836e-01  9.8706730214407945e-01  9.8589970036141816e-01  9.8579059636090427e-01  9.8606586811679786e-01  9.8724737872086288e-01  9.8896553219308736e-01  9.8963331921313191e-01  9.8723719443371594e-01  9.7999695993245683e-01  9.6304051087598264e-01  9.2859244111866013e-01  8.7790871861089248e-01  8.2318974676793566e-01  7.7064067908974176e-01  7.1776110605412935e-01  6.6489136904565138e-01  6.1859417432256192e-01  5.8712022502399064e-01  5.7633145232740213e-01  5.8824368542824690e-01  6.2076472584479314e-01  6.6774593044586916e-01  7.2026962407726769e-01  7.7089558937576574e-01  8.1924142169380010e-01  8.7003271024810547e-01  9.2025392658808958e-01  9.5748166608233931e-01  9.7736469330877851e-01  9.8645562194479675e-01  9.9009871881066802e-01  9.9001592531336591e-01  9.8803236096127534e-01  9.8615590868935710e-01  9.8555716829740669e-01  9.8636772828093877e-01  9.8784833719833209e-01  9.8867142130864116e-01  9.8248047467611355e-01  2.0590893323203918e-01  9.7559883820226112e-01  9.8136687208014495e-01  9.8046563827173316e-01  9.8112613523774661e-01  9.8172331598587037e-01  9.8198006434370799e-01  9.8154754984712267e-01  9.7939496559112738e-01  9.7446235305208007e-01  9.6425956754533770e-01  9.4314750530113389e-01  9.0927029773572832e-01  8.7135730427090841e-01  8.3682860690394478e-01  8.0192946658044573e-01  7.6121039845462257e-01  7.1677271871491677e-01  6.7652944280691441e-01  6.4870861250876022e-01  6.3868814201382773e-01  6.4830710731183849e-01  6.7588830930003652e-01  7.1610529399750689e-01  7.6041757740414928e-01  7.9995268614162507e-01  8.3141781693547812e-01  8.6074597590816726e-01  8.9533465025075376e-01  9.3098253344614734e-01  9.5677873625399767e-01  9.7064263278150720e-01  9.7762570055121623e-01  9.8108647136965077e-01  9.8215108693965525e-01  9.8187914259594633e-01  9.8121471857385512e-01  9.8218955771514849e-01  9.8142768804864366e-01  9.6619859121785379e-01  9.0388298691759839e-01  3.0124076761105387e-02  2.4527429372673892e-02  1.0590918902691751e-01  8.5294895779096835e-01  9.3538874353081436e-01  9.5407197972679025e-01  9.5879296089875832e-01  9.5818318426963378e-01  9.5296964152994390e-01  9.4080515902298556e-01  9.1813275838051789e-01  8.8732668345117915e-01  8.5921993115640238e-01  8.4119537205727890e-01  8.2829806042479970e-01  8.1063488878452650e-01  7.8412787603539280e-01  7.5254320650979278e-01  7.2316199063985032e-01  7.0250033436732673e-01  6.9454441821949608e-01  7.0065431103044173e-01  7.1974263643762526e-01  7.4811863025346959e-01  7.7941176743434259e-01  8.0587295881317178e-01  8.2227603176195008e-01  8.3103160482061322e-01  8.4258997739579955e-01  8.6609515666693770e-01  8.9826211714023996e-01  9.2685778492189286e-01  9.4476203497036126e-01  9.5343403560057383e-01  9.5579579325618569e-01  9.5088806904329026e-01  9.2619030070392194e-01  8.2092464912309038e-01  1.1189263573695581e-01  2.5868639250492775e-02  3.1828157969945058e-02  2.9144206955445090e-02  1.6287210495050913e-02  1.8893904866190248e-02  2.6251214302403944e-02  4.0219212430034207e-02  1.1935637983026137e-01  3.0085011720945576e-01  4.8333263890866740e-01  5.9268812400347526e-01  6.4485713778066445e-01  6.7199360321113411e-01  6.9562146884717402e-01  7.2307588177417936e-01  7.5032557321377313e-01  7.6926953062478087e-01  7.7504965278438198e-01  7.6876017052198564e-01  7.5552950099620486e-01  7.4122441203278144e-01  7.3033959122503911e-01  7.2544880876536300e-01  7.2742069137920184e-01  7.3562168550498175e-01  7.4778851080365383e-01  7.5974715000234805e-01  7.6562049637554730e-01  7.5938195068938974e-01  7.3792985158174973e-01  7.0389348451261469e-01  6.6467210781896013e-01  6.2593895444267089e-01  5.8306636801154221e-01  5.1708430927839433e-01  4.0156356548128164e-01  2.3495369148098463e-01  9.2782791455244262e-02  3.8920542955722212e-02  2.2386696860007872e-02  1.8876167686640279e-02  1.7605609978372058e-02  2.9322301488726860e-02  2.9240453697935903e-02  1.5556181385599978e-02  1.7217335143751046e-02  1.8085091166613693e-02  1.9449549783185249e-02  2.0468403477381394e-02  1.9485464900103389e-02  2.3439822674992283e-02  4.8702921644671104e-02  1.1429945822406537e-01  2.2000537393162956e-01  3.4485727538507066e-01  4.6458899729208641e-01  5.6304813023342815e-01  6.3418386038123953e-01  6.7974415049549131e-01  7.0559804647140634e-01  7.1839346417166861e-01  7.2355707542778869e-01  7.2467081175862591e-01  7.2364838542930443e-01  7.2110193741066120e-01  7.1652566020631669e-01  7.0816116636566206e-01  6.9260527910516512e-01  6.6445740523409047e-01  6.1663986766039025e-01  5.4232392501309323e-01  4.3916176281502095e-01  3.1494524177791511e-01  1.9049737163948999e-01  9.2986068934000216e-02  3.8518312707980229e-02  1.9870930459159761e-02  1.7660788181969089e-02  1.9143121478650313e-02  2.0134166877504037e-02  1.9191681079783536e-02  1.7312908993678308e-02  1.5653785004012613e-02  2.9256361686974923e-02  2.9213412072762734e-02  1.5067013117216539e-02  1.5988644424645232e-02  1.7215264597264066e-02  1.8729949460440529e-02  1.9420729329307891e-02  1.8364985957443646e-02  1.5934411662987175e-02  1.4026810083431429e-02  1.8816382762683687e-02  4.4968938920728757e-02  1.0996482833125468e-01  2.1414768339988782e-01  3.3520212656465859e-01  4.4734941421920571e-01  5.3689398583353631e-01  6.0196262635491138e-01  6.4616622549700331e-01  6.7393021245427076e-01  6.8859261897507418e-01  6.9205406149970172e-01  6.8491473073831799e-01  6.6658089458088043e-01  6.3520058096625098e-01  5.8756757618869437e-01  5.1951482099477875e-01  4.2789543385561141e-01  3.1542115059432785e-01  1.9698638593415554e-01  9.8672561206961884e-02  4.0323542432841669e-02  1.8347834845101343e-02  1.5017255486117001e-02  1.7081105107593933e-02  1.9137463945939598e-02  1.9628719968473630e-02  1.8697086259721801e-02  1.7239416596043951e-02  1.6088055426656193e-02  1.5193306177492177e-02  2.9242921798381227e-02  2.9184076179704664e-02  1.4767220314807018e-02  1.5282555810593020e-02  1.6029040887783119e-02  1.7153659547945517e-02  1.8247127157048570e-02  1.8681458430935084e-02  1.8055780992342382e-02  1.6663906557083122e-02  1.5879110592901799e-02  1.9466684239898932e-02  3.7349466903631751e-02  8.5360576840221414e-02  1.7126827566059558e-01  2.8201844722874020e-01  3.9375522515321865e-01  4.8896978313289907e-01  5.6100830287792280e-01  6.0980576155851318e-01  6.3733971577252746e-01  6.4529751935142987e-01  6.3428739689052205e-01  6.0370263875508201e-01  5.5193610579115415e-01  4.7729682786655792e-01  3.8051409150264759e-01  2.6928840323237813e-01  1.6185720090316166e-01  8.1027398251708016e-02  3.7074934562285111e-02  2.0690749465477692e-02  1.6933609007664982e-02  1.7170970267266314e-02  1.8182176483533874e-02  1.8670519083529381e-02  1.8251113748028118e-02  1.7221382752780318e-02  1.6123220494452653e-02  1.5352965228194022e-02  1.4844790941221660e-02  2.9206871834214942e-02  2.9164702678485505e-02  1.4579111763712238e-02  1.4889115611898575e-02  1.5408632131497180e-02  1.6139496718257366e-02  1.6902337460605557e-02  1.7468492320081054e-02  1.7731976256587456e-02  1.7842500380891184e-02  1.8147024725194708e-02  1.9244260348373440e-02  2.4031143263403498e-02  4.3092139583087330e-02  9.4176223824139454e-02  1.8403268986768365e-01  2.9595286216686467e-01  4.0470062018451702e-01  4.9362270635938249e-01  5.5669357798179120e-01  5.9349134999294684e-01  6.0501653058321225e-01  5.9176719374521713e-01  5.5326672153543943e-01  4.8860954244842730e-01  3.9849468353715711e-01  2.8949809681900174e-01  1.7887920016806449e-01  9.1672426629638870e-02  4.3019360541854984e-02  2.4853931335471757e-02  1.9866897135101522e-02  1.8393107091290647e-02  1.7876167235657069e-02  1.7709799685308711e-02  1.7468944552323881e-02  1.6941408952939503e-02  1.6199912664227871e-02  1.5462689207546648e-02  1.4922085005423372e-02  1.4619944150617986e-02  2.9177660010306743e-02  2.9162305971486564e-02  1.4527908209755878e-02  1.4770222857287491e-02  1.5238118145367394e-02  1.5851276535408867e-02  1.6468007689336116e-02  1.6964025627298339e-02  1.7358617012370341e-02  1.786777791