<?xml version="1.0"?>
<VTKFile type="UnstructuredGrid"  version="0.1"  >
<UnstructuredGrid>
<Piece  NumberOfPoints="1681" NumberOfCells="3200">
<Points>
<DataArray  type="Float64"  NumberOfComponents="3"  format="ascii">0 0 0  0.025 0 0  0.05 0 0  0.075 0 0  0.1 0 0  0.125 0 0  0.15 0 0  0.175 0 0  0.2 0 0  0.225 0 0  0.25 0 0  0.275 0 0  0.3 0 0  0.325 0 0  0.35 0 0  0.375 0 0  0.4 0 0  0.425 0 0  0.45 0 0  0.475 0 0  0.5 0 0  0.525 0 0  0.55 0 0  0.575 0 0  0.6 0 0  0.625 0 0  0.65 0 0  0.675 0 0  0.7 0 0  0.725 0 0  0.75 0 0  0.775 0 0  0.8 0 0  0.825 0 0  0.85 0 0  0.875 0 0  0.9 0 0  0.925 0 0  0.95 0 0  0.975 0 0  1 0 0  0 0.025 0  0.025 0.025 0  0.05 0.025 0  0.075 0.025 0  0.1 0.025 0  0.125 0.025 0  0.15 0.025 0  0.175 0.025 0  0.2 0.025 0  0.225 0.025 0  0.25 0.025 0  0.275 0.025 0  0.3 0.025 0  0.325 0.025 0  0.35 0.025 0  0.375 0.025 0  0.4 0.025 0  0.425 0.025 0  0.45 0.025 0  0.475 0.025 0  0.5 0.025 0  0.525 0.025 0  0.55 0.025 0  0.575 0.025 0  0.6 0.025 0  0.625 0.025 0  0.65 0.025 0  0.675 0.025 0  0.7 0.025 0  0.725 0.025 0  0.75 0.025 0  0.775 0.025 0  0.8 0.025 0  0.825 0.025 0  0.85 0.025 0  0.875 0.025 0  0.9 0.025 0  0.925 0.025 0  0.95 0.025 0  0.975 0.025 0  1 0.025 0  0 0.05 0  0.025 0.05 0  0.05 0.05 0  0.075 0.05 0  0.1 0.05 0  0.125 0.05 0  0.15 0.05 0  0.175 0.05 0  0.2 0.05 0  0.225 0.05 0  0.25 0.05 0  0.275 0.05 0  0.3 0.05 0  0.325 0.05 0  0.35 0.05 0  0.375 0.05 0  0.4 0.05 0  0.425 0.05 0  0.45 0.05 0  0.475 0.05 0  0.5 0.05 0  0.525 0.05 0  0.55 0.05 0  0.575 0.05 0  0.6 0.05 0  0.625 0.05 0  0.65 0.05 0  0.675 0.05 0  0.7 0.05 0  0.725 0.05 0  0.75 0.05 0  0.775 0.05 0  0.8 0.05 0  0.825 0.05 0  0.85 0.05 0  0.875 0.05 0  0.9 0.05 0  0.925 0.05 0  0.95 0.05 0  0.975 0.05 0  1 0.05 0  0 0.075 0  0.025 0.075 0  0.05 0.075 0  0.075 0.075 0  0.1 0.075 0  0.125 0.075 0  0.15 0.075 0  0.175 0.075 0  0.2 0.075 0  0.225 0.075 0  0.25 0.075 0  0.275 0.075 0  0.3 0.075 0  0.325 0.075 0  0.35 0.075 0  0.375 0.075 0  0.4 0.075 0  0.425 0.075 0  0.45 0.075 0  0.475 0.075 0  0.5 0.075 0  0.525 0.075 0  0.55 0.075 0  0.575 0.075 0  0.6 0.075 0  0.625 0.075 0  0.65 0.075 0  0.675 0.075 0  0.7 0.075 0  0.725 0.075 0  0.75 0.075 0  0.775 0.075 0  0.8 0.075 0  0.825 0.075 0  0.85 0.075 0  0.875 0.075 0  0.9 0.075 0  0.925 0.075 0  0.95 0.075 0  0.975 0.075 0  1 0.075 0  0 0.1 0  0.025 0.1 0  0.05 0.1 0  0.075 0.1 0  0.1 0.1 0  0.125 0.1 0  0.15 0.1 0  0.175 0.1 0  0.2 0.1 0  0.225 0.1 0  0.25 0.1 0  0.275 0.1 0  0.3 0.1 0  0.325 0.1 0  0.35 0.1 0  0.375 0.1 0  0.4 0.1 0  0.425 0.1 0  0.45 0.1 0  0.475 0.1 0  0.5 0.1 0  0.525 0.1 0  0.55 0.1 0  0.575 0.1 0  0.6 0.1 0  0.625 0.1 0  0.65 0.1 0  0.675 0.1 0  0.7 0.1 0  0.725 0.1 0  0.75 0.1 0  0.775 0.1 0  0.8 0.1 0  0.825 0.1 0  0.85 0.1 0  0.875 0.1 0  0.9 0.1 0  0.925 0.1 0  0.95 0.1 0  0.975 0.1 0  1 0.1 0  0 0.125 0  0.025 0.125 0  0.05 0.125 0  0.075 0.125 0  0.1 0.125 0  0.125 0.125 0  0.15 0.125 0  0.175 0.125 0  0.2 0.125 0  0.225 0.125 0  0.25 0.125 0  0.275 0.125 0  0.3 0.125 0  0.325 0.125 0  0.35 0.125 0  0.375 0.125 0  0.4 0.125 0  0.425 0.125 0  0.45 0.125 0  0.475 0.125 0  0.5 0.125 0  0.525 0.125 0  0.55 0.125 0  0.575 0.125 0  0.6 0.125 0  0.625 0.125 0  0.65 0.125 0  0.675 0.125 0  0.7 0.125 0  0.725 0.125 0  0.75 0.125 0  0.775 0.125 0  0.8 0.125 0  0.825 0.125 0  0.85 0.125 0  0.875 0.125 0  0.9 0.125 0  0.925 0.125 0  0.95 0.125 0  0.975 0.125 0  1 0.125 0  0 0.15 0  0.025 0.15 0  0.05 0.15 0  0.075 0.15 0  0.1 0.15 0  0.125 0.15 0  0.15 0.15 0  0.175 0.15 0  0.2 0.15 0  0.225 0.15 0  0.25 0.15 0  0.275 0.15 0  0.3 0.15 0  0.325 0.15 0  0.35 0.15 0  0.375 0.15 0  0.4 0.15 0  0.425 0.15 0  0.45 0.15 0  0.475 0.15 0  0.5 0.15 0  0.525 0.15 0  0.55 0.15 0  0.575 0.15 0  0.6 0.15 0  0.625 0.15 0  0.65 0.15 0  0.675 0.15 0  0.7 0.15 0  0.725 0.15 0  0.75 0.15 0  0.775 0.15 0  0.8 0.15 0  0.825 0.15 0  0.85 0.15 0  0.875 0.15 0  0.9 0.15 0  0.925 0.15 0  0.95 0.15 0  0.975 0.15 0  1 0.15 0  0 0.175 0  0.025 0.175 0  0.05 0.175 0  0.075 0.175 0  0.1 0.175 0  0.125 0.175 0  0.15 0.175 0  0.175 0.175 0  0.2 0.175 0  0.225 0.175 0  0.25 0.175 0  0.275 0.175 0  0.3 0.175 0  0.325 0.175 0  0.35 0.175 0  0.375 0.175 0  0.4 0.175 0  0.425 0.175 0  0.45 0.175 0  0.475 0.175 0  0.5 0.175 0  0.525 0.175 0  0.55 0.175 0  0.575 0.175 0  0.6 0.175 0  0.625 0.175 0  0.65 0.175 0  0.675 0.175 0  0.7 0.175 0  0.725 0.175 0  0.75 0.175 0  0.775 0.175 0  0.8 0.175 0  0.825 0.175 0  0.85 0.175 0  0.875 0.175 0  0.9 0.175 0  0.925 0.175 0  0.95 0.175 0  0.975 0.175 0  1 0.175 0  0 0.2 0  0.025 0.2 0  0.05 0.2 0  0.075 0.2 0  0.1 0.2 0  0.125 0.2 0  0.15 0.2 0  0.175 0.2 0  0.2 0.2 0  0.225 0.2 0  0.25 0.2 0  0.275 0.2 0  0.3 0.2 0  0.325 0.2 0  0.35 0.2 0  0.375 0.2 0  0.4 0.2 0  0.425 0.2 0  0.45 0.2 0  0.475 0.2 0  0.5 0.2 0  0.525 0.2 0  0.55 0.2 0  0.575 0.2 0  0.6 0.2 0  0.625 0.2 0  0.65 0.2 0  0.675 0.2 0  0.7 0.2 0  0.725 0.2 0  0.75 0.2 0  0.775 0.2 0  0.8 0.2 0  0.825 0.2 0  0.85 0.2 0  0.875 0.2 0  0.9 0.2 0  0.925 0.2 0  0.95 0.2 0  0.975 0.2 0  1 0.2 0  0 0.225 0  0.025 0.225 0  0.05 0.225 0  0.075 0.225 0  0.1 0.225 0  0.125 0.225 0  0.15 0.225 0  0.175 0.225 0  0.2 0.225 0  0.225 0.225 0  0.25 0.225 0  0.275 0.225 0  0.3 0.225 0  0.325 0.225 0  0.35 0.225 0  0.375 0.225 0  0.4 0.225 0  0.425 0.225 0  0.45 0.225 0  0.475 0.225 0  0.5 0.225 0  0.525 0.225 0  0.55 0.225 0  0.575 0.225 0  0.6 0.225 0  0.625 0.225 0  0.65 0.225 0  0.675 0.225 0  0.7 0.225 0  0.725 0.225 0  0.75 0.225 0  0.775 0.225 0  0.8 0.225 0  0.825 0.225 0  0.85 0.225 0  0.875 0.225 0  0.9 0.225 0  0.925 0.225 0  0.95 0.225 0  0.975 0.225 0  1 0.225 0  0 0.25 0  0.025 0.25 0  0.05 0.25 0  0.075 0.25 0  0.1 0.25 0  0.125 0.25 0  0.15 0.25 0  0.175 0.25 0  0.2 0.25 0  0.225 0.25 0  0.25 0.25 0  0.275 0.25 0  0.3 0.25 0  0.325 0.25 0  0.35 0.25 0  0.375 0.25 0  0.4 0.25 0  0.425 0.25 0  0.45 0.25 0  0.475 0.25 0  0.5 0.25 0  0.525 0.25 0  0.55 0.25 0  0.575 0.25 0  0.6 0.25 0  0.625 0.25 0  0.65 0.25 0  0.675 0.25 0  0.7 0.25 0  0.725 0.25 0  0.75 0.25 0  0.775 0.25 0  0.8 0.25 0  0.825 0.25 0  0.85 0.25 0  0.875 0.25 0  0.9 0.25 0  0.925 0.25 0  0.95 0.25 0  0.975 0.25 0  1 0.25 0  0 0.275 0  0.025 0.275 0  0.05 0.275 0  0.075 0.275 0  0.1 0.275 0  0.125 0.275 0  0.15 0.275 0  0.175 0.275 0  0.2 0.275 0  0.225 0.275 0  0.25 0.275 0  0.275 0.275 0  0.3 0.275 0  0.325 0.275 0  0.35 0.275 0  0.375 0.275 0  0.4 0.275 0  0.425 0.275 0  0.45 0.275 0  0.475 0.275 0  0.5 0.275 0  0.525 0.275 0  0.55 0.275 0  0.575 0.275 0  0.6 0.275 0  0.625 0.275 0  0.65 0.275 0  0.675 0.275 0  0.7 0.275 0  0.725 0.275 0  0.75 0.275 0  0.775 0.275 0  0.8 0.275 0  0.825 0.275 0  0.85 0.275 0  0.875 0.275 0  0.9 0.275 0  0.925 0.275 0  0.95 0.275 0  0.975 0.275 0  1 0.275 0  0 0.3 0  0.025 0.3 0  0.05 0.3 0  0.075 0.3 0  0.1 0.3 0  0.125 0.3 0  0.15 0.3 0  0.175 0.3 0  0.2 0.3 0  0.225 0.3 0  0.25 0.3 0  0.275 0.3 0  0.3 0.3 0  0.325 0.3 0  0.35 0.3 0  0.375 0.3 0  0.4 0.3 0  0.425 0.3 0  0.45 0.3 0  0.475 0.3 0  0.5 0.3 0  0.525 0.3 0  0.55 0.3 0  0.575 0.3 0  0.6 0.3 0  0.625 0.3 0  0.65 0.3 0  0.675 0.3 0  0.7 0.3 0  0.725 0.3 0  0.75 0.3 0  0.775 0.3 0  0.8 0.3 0  0.825 0.3 0  0.85 0.3 0  0.875 0.3 0  0.9 0.3 0  0.925 0.3 0  0.95 0.3 0  0.975 0.3 0  1 0.3 0  0 0.325 0  0.025 0.325 0  0.05 0.325 0  0.075 0.325 0  0.1 0.325 0  0.125 0.325 0  0.15 0.325 0  0.175 0.325 0  0.2 0.325 0  0.225 0.325 0  0.25 0.325 0  0.275 0.325 0  0.3 0.325 0  0.325 0.325 0  0.35 0.325 0  0.375 0.325 0  0.4 0.325 0  0.425 0.325 0  0.45 0.325 0  0.475 0.325 0  0.5 0.325 0  0.525 0.325 0  0.55 0.325 0  0.575 0.325 0  0.6 0.325 0  0.625 0.325 0  0.65 0.325 0  0.675 0.325 0  0.7 0.325 0  0.725 0.325 0  0.75 0.325 0  0.775 0.325 0  0.8 0.325 0  0.825 0.325 0  0.85 0.325 0  0.875 0.325 0  0.9 0.325 0  0.925 0.325 0  0.95 0.325 0  0.975 0.325 0  1 0.325 0  0 0.35 0  0.025 0.35 0  0.05 0.35 0  0.075 0.35 0  0.1 0.35 0  0.125 0.35 0  0.15 0.35 0  0.175 0.35 0  0.2 0.35 0  0.225 0.35 0  0.25 0.35 0  0.275 0.35 0  0.3 0.35 0  0.325 0.35 0  0.35 0.35 0  0.375 0.35 0  0.4 0.35 0  0.425 0.35 0  0.45 0.35 0  0.475 0.35 0  0.5 0.35 0  0.525 0.35 0  0.55 0.35 0  0.575 0.35 0  0.6 0.35 0  0.625 0.35 0  0.65 0.35 0  0.675 0.35 0  0.7 0.35 0  0.725 0.35 0  0.75 0.35 0  0.775 0.35 0  0.8 0.35 0  0.825 0.35 0  0.85 0.35 0  0.875 0.35 0  0.9 0.35 0  0.925 0.35 0  0.95 0.35 0  0.975 0.35 0  1 0.35 0  0 0.375 0  0.025 0.375 0  0.05 0.375 0  0.075 0.375 0  0.1 0.375 0  0.125 0.375 0  0.15 0.375 0  0.175 0.375 0  0.2 0.375 0  0.225 0.375 0  0.25 0.375 0  0.275 0.375 0  0.3 0.375 0  0.325 0.375 0  0.35 0.375 0  0.375 0.375 0  0.4 0.375 0  0.425 0.375 0  0.45 0.375 0  0.475 0.375 0  0.5 0.375 0  0.525 0.375 0  0.55 0.375 0  0.575 0.375 0  0.6 0.375 0  0.625 0.375 0  0.65 0.375 0  0.675 0.375 0  0.7 0.375 0  0.725 0.375 0  0.75 0.375 0  0.775 0.375 0  0.8 0.375 0  0.825 0.375 0  0.85 0.375 0  0.875 0.375 0  0.9 0.375 0  0.925 0.375 0  0.95 0.375 0  0.975 0.375 0  1 0.375 0  0 0.4 0  0.025 0.4 0  0.05 0.4 0  0.075 0.4 0  0.1 0.4 0  0.125 0.4 0  0.15 0.4 0  0.175 0.4 0  0.2 0.4 0  0.225 0.4 0  0.25 0.4 0  0.275 0.4 0  0.3 0.4 0  0.325 0.4 0  0.35 0.4 0  0.375 0.4 0  0.4 0.4 0  0.425 0.4 0  0.45 0.4 0  0.475 0.4 0  0.5 0.4 0  0.525 0.4 0  0.55 0.4 0  0.575 0.4 0  0.6 0.4 0  0.625 0.4 0  0.65 0.4 0  0.675 0.4 0  0.7 0.4 0  0.725 0.4 0  0.75 0.4 0  0.775 0.4 0  0.8 0.4 0  0.825 0.4 0  0.85 0.4 0  0.875 0.4 0  0.9 0.4 0  0.925 0.4 0  0.95 0.4 0  0.975 0.4 0  1 0.4 0  0 0.425 0  0.025 0.425 0  0.05 0.425 0  0.075 0.425 0  0.1 0.425 0  0.125 0.425 0  0.15 0.425 0  0.175 0.425 0  0.2 0.425 0  0.225 0.425 0  0.25 0.425 0  0.275 0.425 0  0.3 0.425 0  0.325 0.425 0  0.35 0.425 0  0.375 0.425 0  0.4 0.425 0  0.425 0.425 0  0.45 0.425 0  0.475 0.425 0  0.5 0.425 0  0.525 0.425 0  0.55 0.425 0  0.575 0.425 0  0.6 0.425 0  0.625 0.425 0  0.65 0.425 0  0.675 0.425 0  0.7 0.425 0  0.725 0.425 0  0.75 0.425 0  0.775 0.425 0  0.8 0.425 0  0.825 0.425 0  0.85 0.425 0  0.875 0.425 0  0.9 0.425 0  0.925 0.425 0  0.95 0.425 0  0.975 0.425 0  1 0.425 0  0 0.45 0  0.02
[...]
<PointData  Scalars="ControlVisualisation"> 
<DataArray  type="Float64"  Name="ControlVisualisation"  format="ascii">3.1577791341510055e-04  2.1059878889357502e-04  2.1066365780246835e-04  2.1080018987724658e-04  2.1101761801858339e-04  2.1129656073665538e-04  2.1159586327779389e-04  2.1187524182095279e-04  2.1211129522008375e-04  2.1229742616495176e-04  2.1243513415396958e-04  2.1252718875273407e-04  2.1257646199150567e-04  2.1258812779180813e-04  2.1257136518629019e-04  2.1253828046257365e-04  2.1249971016741440e-04  2.1246107846355650e-04  2.1242121382505084e-04  2.1237683422482048e-04  2.1232927999844325e-04  2.1228424119129440e-04  2.1224207617571202e-04  2.1218759992581510e-04  2.1211259658175576e-04  2.1202875990168391e-04  2.1195801875288419e-04  2.1190599061353310e-04  2.1184659983526251e-04  2.1173703956823355e-04  2.1155850691911122e-04  2.1133149664009687e-04  2.1109455977734494e-04  2.1087890088550629e-04  2.1070640285801744e-04  2.1060419783949585e-04  2.1058626766963707e-04  2.1060829201532629e-04  2.1060789944303269e-04  2.1058569849929928e-04  6.3063626665193389e-04  2.1059541765759492e-04  1.0533534807240062e-04  1.0540084407595623e-04  1.0554440936037855e-04  1.0578073579710820e-04  1.0609114703404333e-04  1.0643020763285818e-04  1.0675091614999074e-04  1.0702477500505718e-04  1.0724339991098011e-04  1.0740821667416795e-04  1.0752167348916821e-04  1.0758558192593632e-04  1.0760409736621417e-04  1.0758673519193414e-04  1.0754784980826428e-04  1.0750193973279700e-04  1.0745807843060802e-04  1.0741478680587910e-04  1.0736480421171134e-04  1.0730829410926043e-04  1.0725625042758318e-04  1.0721193935347219e-04  1.0715848951357864e-04  1.0707623149196502e-04  1.0697380825759029e-04  1.0688486686471701e-04  1.0682538328950272e-04  1.0678471757074386e-04  1.0669430768596585e-04  1.0651293686543327e-04  1.0626377570228539e-04  1.0599882615791023e-04  1.0574149410960716e-04  1.0553360487951530e-04  1.0539435524806198e-04  1.0534466943112387e-04  1.0535740213557675e-04  1.0536231416921320e-04  1.0533715471681793e-04  2.1058770068609249e-04  2.1062185425055596e-04  1.0537519010767651e-04  1.0547500243133157e-04  1.0567496724095440e-04  1.0598841146778218e-04  1.0637508856556298e-04  1.0677009604469158e-04  1.0711938747158475e-04  1.0740381753996436e-04  1.0762888947545422e-04  1.0780248036498632e-04  1.0792450474511909e-04  1.0799010897172874e-04  1.0799837462625668e-04  1.0795966239507342e-04  1.0789537769796597e-04  1.0783117395286535e-04  1.0778340409011096e-04  1.0774398287092048e-04  1.0768801008853605e-04  1.0760958137292486e-04  1.0754051343500137e-04  1.0750647524444700e-04  1.0750085114494768e-04  1.0740886536170505e-04  1.0725830911434374e-04  1.0714768812040736e-04  1.0713247617716778e-04  1.0724174798904013e-04  1.0727209413273547e-04  1.0713885956058286e-04  1.0689334679574061e-04  1.0659184965490699e-04  1.0619022275703891e-04  1.0589618560765857e-04  1.0567767560147260e-04  1.0555644152841472e-04  1.0551794839065075e-04  1.0552052337221954e-04  1.0546392861132793e-04  2.1066376218975433e-04  2.1062792943154162e-04  1.0542091375110911e-04  1.0560412354487785e-04  1.0593290378803126e-04  1.0635509913662290e-04  1.0680487916504795e-04  1.0718887678844684e-04  1.0746321922125809e-04  1.0766060183171016e-04  1.0782547258467074e-04  1.0797173188287771e-04  1.0808440232940118e-04  1.0813897916460994e-04  1.0812094401006198e-04  1.0803907314894537e-04  1.0792680869722271e-04  1.0783277597843389e-04  1.0778715100352750e-04  1.0779587532384397e-04  1.0777490139988464e-04  1.0766139037826981e-04  1.0756269708950740e-04  1.0763405408218778e-04  1.0791718423278113e-04  1.0797488946771665e-04  1.0817960921699197e-04  1.0902500604107620e-04  1.1095136520174260e-04  1.1463098869137324e-04  1.1866230741856207e-04  1.2129119391403805e-04  1.2347548241271576e-04  1.2491069165005618e-04  1.2393605543401670e-04  1.2213473771810176e-04  1.1499113143810864e-04  1.0786145468870871e-04  1.0590901290941695e-04  1.0607527601512402e-04  1.0603332705981877e-04  2.1098606322108104e-04  2.1060322804748740e-04  1.0552804507625308e-04  1.0613080604442787e-04  1.0702290259545647e-04  1.0766342675563561e-04  1.0806874514975732e-04  1.0815862537489398e-04  1.0808594278886715e-04  1.0802843068474674e-04  1.0807529770534188e-04  1.0819221864950330e-04  1.0831004009573680e-04  1.0836525443836858e-04  1.0831654405274574e-04  1.0816206301506972e-04  1.0796364176257152e-04  1.0781880333031006e-04  1.0781056303220599e-04  1.0805948065777964e-04  1.0827289626175688e-04  1.0831888443037104e-04  1.0886490211976339e-04  1.1117598671428239e-04  1.1716057333692048e-04  1.2388579059825137e-04  1.3276024970245879e-04  1.5222956193735194e-04  1.9367984193567636e-04  3.0791848506813108e-04  1.1059095479080284e-03  4.9821641860976928e-02  1.0342466208639585e-01  1.4170296709422991e-01  1.4216006033571113e-01  1.0506526582990032e-01  1.3613947959642958e-02  2.6232949660635131e-04  1.4509381651636543e-04  1.1057791269335383e-04  1.0807742345795443e-04  2.1241421878380909e-04  2.2962831426053722e-04  1.1091285050059554e-04  1.1871328780987673e-04  1.2505434406797603e-04  1.2942757905525919e-04  1.2749754515438999e-04  1.2046967329460966e-04  1.1368708751360878e-04  1.1049478060567622e-04  1.0934462728458875e-04  1.0900791899590564e-04  1.0898349501377213e-04  1.0902285990590176e-04  1.0895712909617226e-04  1.0876457976482934e-04  1.0865574440586620e-04  1.0895983281312581e-04  1.1022836425778217e-04  1.1422405520104702e-04  1.2096848155558539e-04  1.2824088886539931e-04  1.4198901164728386e-04  1.7906465287769509e-04  3.1525353397254358e-04  2.2587976691248547e-02  1.6773295060935195e-01  3.3684289469925283e-01  5.3069825840336837e-01  7.2478342670687290e-01  9.2800106441490449e-01  9.9900018560904924e-01  9.9956169027509090e-01  9.9968509381195059e-01  9.9971579636669150e-01  9.9967470056853169e-01  9.9939752924232816e-01  8.9838375392443315e-01  4.4914298326169516e-01  6.2624872018002074e-03  1.2725426024516145e-04  2.4008993015549104e-04  2.4175600041410647e-04  1.9413047021357195e-04  6.0982568213705741e-02  1.7332152356425884e-01  1.6147928788463964e-01  1.0125511604526803e-01  1.9034732855434628e-02  4.0387929843389934e-04  1.9889472652628604e-04  1.5125596346653722e-04  1.3270175131680704e-04  1.2484508355405067e-04  1.2251526930551245e-04  1.2264985692274070e-04  1.2473478326009926e-04  1.2994107099246701e-04  1.4089862233408458e-04  1.6441331758003207e-04  2.3118187402364597e-04  6.6380414160968084e-04  8.4225954338787795e-02  2.5598553825860704e-01  4.6131283544862056e-01  6.9580506403178599e-01  9.8544613236064427e-01  9.9958172840037618e-01  9.9979869344377315e-01  9.9986675806194203e-01  9.9989959204565937e-01  9.9991855399231200e-01  9.9993159566506706e-01  9.9994142085843718e-01  9.9994815013000349e-01  9.9995227883814863e-01  9.9995402898787900e-01  9.9995270034168615e-01  9.9994636961793704e-01  9.9992843982043011e-01  9.9985174638408914e-01  3.2822865198626494e-01  2.5017611378995962e-04  9.9955844281231099e-01  9.9956560507295800e-01  9.9978637222704148e-01  9.9978813669800692e-01  9.9968813020739344e-01  9.9925837844771781e-01  9.2590912674945214e-01  6.7992578124675818e-01  4.4574075102723409e-01  2.5473332583377145e-01  1.2145996632173842e-01  4.9376215952630191e-02  2.0725565512791318e-02  1.6989594061065826e-02  4.7622333304490033e-02  1.1445675523049732e-01  2.3197243909722770e-01  3.8703800608915295e-01  5.8021765881114717e-01  8.2583371015697915e-01  9.9907614627206054e-01  9.9971772532546266e-01  9.9984045985140335e-01  9.9988977848545768e-01  9.9991490052365617e-01  9.9993268532387447e-01  9.9994624567352552e-01  9.9995549065149236e-01  9.9996220447062267e-01  9.9996729038715015e-01  9.9997123327319493e-01  9.9997435584578531e-01  9.9997689610480089e-01  9.9997901640147713e-01  9.9998079821301344e-01  9.9998225531649465e-01  9.9998331890648462e-01  9.9998371853609402e-01  9.9998261897219642e-01  9.9997831663062031e-01  9.9988216463417734e-01  9.9996088899618862e-01  9.9997305018579230e-01  9.9996648942256061e-01  9.9995751220214224e-01  9.9994537432818453e-01  9.9992721074895718e-01  9.9989730668535259e-01  9.9984737160984138e-01  9.9975344968190361e-01  9.9949554943468144e-01  9.9796537483480996e-01  9.3222719423759060e-01  8.8791966026880442e-01  9.0458473422486441e-01  9.8350832221376117e-01  9.9917633939380168e-01  9.9965496056464620e-01  9.9979893550599475e-01  9.9986389166099920e-01  9.9989857261858084e-01  9.9992047115952898e-01  9.9993712587264005e-01  9.9994945717995054e-01  9.9995810143135311e-01  9.9996442710247424e-01  9.9996917912767802e-01  9.9997285218149679e-01  9.9997579450645180e-01  9.9997824464825447e-01  9.9998034922544199e-01  9.9998220315724051e-01  9.9998388034367380e-01  9.9998544689052005e-01  9.9998695927905390e-01  9.9998845649917112e-01  9.9998995374843447e-01  9.9999143155266135e-01  9.9999282410115520e-01  9.9999401824853440e-01  9.9999486443605268e-01  9.9998784101344396e-01  9.9997965486249030e-01  9.9998770718082697e-01  9.9998416713837113e-01  9.9997927542757037e-01  9.9997339235710736e-01  9.9996636041207909e-01  9.9995762727154569e-01  9.9994642165815972e-01  9.9993210994656556e-01  9.9991489682268841e-01  9.9989699018609879e-01  9.9988494238328007e-01  9.9988385783960798e-01  9.9989111985131351e-01  9.9990244806069839e-01  9.9991630724372615e-01  9.9993037306499932e-01  9.9994225316003382e-01  9.9995175456833718e-01  9.9995919730161831e-01  9.9996496060599793e-01  9.9996942954614620e-01  9.9997294964733130e-01  9.9997578375969498e-01  9.9997810813389232e-01  9.9998004182072697e-01  9.9998167914031633e-01  9.9998310169213123e-01  9.9998437856881661e-01  9.9998556337928535e-01  9.9998669856383893e-01  9.9998782129715968e-01  9.9998896667368342e-01  9.9999016470631752e-01  9.9999143236587273e-01  9.9999276185907882e-01  9.9999410855837656e-01  9.9999538530837084e-01  9.9999647028618632e-01  9.9999722242155908e-01  9.9999461242487342e-01  9.9998226568966786e-01  9.9999021703999313e-01  9.9998773559482868e-01  9.9998428279730556e-01  9.9998025566514948e-01  9.9997582245207661e-01  9.9997097389067213e-01  9.9996571642359544e-01  9.9996029951961773e-01  9.9995534127057328e-01  9.9995173516269076e-01  9.9995026372548323e-01  9.9995113791535772e-01  9.9995388957753617e-01  9.9995771246587284e-01  9.9996187109797574e-01  9.9996588720135993e-01  9.9996952400018357e-01  9.9997270159812701e-01  9.9997541551776736e-01  9.9997769815586890e-01  9.9997960416077825e-01  9.9998119948172715e-01  9.9998254848257240e-01  9.9998370459612107e-01  9.9998471058322613e-01  9.9998560362977396e-01  9.9998641889502071e-01  9.9998718998621261e-01  9.9998794811277525e-01  9.9998872239435010e-01  9.9998954099691639e-01  9.9999043091429796e-01  9.9999141422176085e-01  9.9999250002879148e-01  9.9999367263672756e-01  9.9999488062919006e-01  9.9999603065473697e-01  9.9999700041874751e-01  9.9999766929428047e-01  9.9999581735939846e-01  9.9997688784839744e-01  9.9998854356476941e-01  9.9998649814138874e-01  9.9998375533752071e-01  9.9998072598930676e-01  9.9997756211605171e-01  9.9997431293179451e-01  9.9997110975382775e-01  9.9996827619907425e-01  9.9996627639161650e-01  9.9996549929603684e-01  9.9996602958157865e-01  9.9996760993775680e-01  9.9996981049561040e-01  9.9997223142377623e-01  9.9997460183518094e-01  9.9997677924881279e-01  9.9997870919571230e-01  9.9998038562498859e-01  9.9998182371805322e-01  9.9998304694646967e-01  9.9998408280856810e-01  9.9998496112939317e-01  9.9998571154013682e-01  9.9998636109296180e-01  9.9998693384388493e-01  9.9998745213911822e-01  9.9998793816179177e-01  9.9998841464671751e-01  9.9998890497678372e-01  9.9998943330747270e-01  9.9999002461268793e-01  9.9999070361226694e-01  9.9999149125637821e-01  9.9999239773750270e-01  9.9999341282400411e-01  9.9999449561202203e-01  9.9999556619208840e-01  9.9999651595799333e-01  9.9999720791590230e-01  9.9999526981551090e-01  9.9994403573415380e-01  9.9997835381955780e-01  9.9997822667239866e-01  9.9997735820877920e-01  9.9997601521683299e-01  9.9997433633533439e-01  9.9997245567235693e-01  9.9997066795359546e-01  9.9996943292681784e-01  9.9996917069682212e-01  9.9996999867077352e-01  9.9997167864997083e-01  9.9997380505068290e-01  9.9997601763376576e-01  9.9997809179459518e-01  9.9997992639584588e-01  9.9998149823783078e-01  9.9998282261633020e-01  9.9998392897798272e-01  9.9998484863192383e-01  9.9998561016903897e-01  9.9998623896054839e-01  9.9998675787370594e-01  9.9998718768606243e-01  9.9998754719495786e-01  9.9998785357211017e-01  9.9998812318632835e-01  9.9998837256832351e-01  9.9998861910808445e-01  9.9998888148210330e-01  9.9998917985518754e-01  9.9998953567573878e-01  9.9998997061946271e-01  9.9999050355502750e-01  9.9999114499680319e-01  9.9999188943709127e-01  9.9999270562222875e-01  9.9999353298905747e-01  9.9999428507217625e-01  9.9999479109621681e-01  9.9999154807767610e-01  7.5726846848545326e-01  9.9987877251343771e-01  9.9993446860851021e-01  9.9995356534220059e-01  9.9996085311555971e-01  9.9996367392139662e-01  9.9996454216717778e-01  9.9996488763982228e-01  9.9996577409661314e-01  9.9996767826675359e-01  9.9997039049328185e-01  9.9997338545725278e-01  9.9997622791287166e-01  9.9997870055788307e-01  9.9998075041982726e-01  9.9998240706760932e-01  9.9998372868534569e-01  9.9998477582633050e-01  9.9998560133289449e-01  9.9998624795515523e-01  9.9998674924609177e-01  9.9998713158760266e-01  9.9998741619769238e-01  9.9998762062669133e-01  9.9998775977176924e-01  9.9998784667674645e-01  9.9998789333541493e-01  9.9998791137844179e-01  9.9998791251753716e-01  9.9998790881970145e-01  9.9998791238965123e-01  9.9998793429516009e-01  9.9998798217734686e-01  9.9998805496483900e-01  9.9998813317484359e-01  9.9998815891780002e-01  9.9998799530019966e-01  9.9998733056291544e-01  9.9998535233972297e-01  9.9998028136371631e-01  9.9996072079774201e-01  2.3472069516805415e-04  4.0080150540908070e-02  8.8764844257078990e-01  9.9977615024168620e-01  9.9989785887294602e-01  9.9993058562047776e-01  9.9994259340523728e-01  9.9994935588742129e-01  9.9995556738978209e-01  9.9996200517550793e-01  9.9996796420610712e-01  9.9997289914273146e-01  9.9997673605279902e-01  9.9997963614947394e-01  9.9998180589879970e-01  9.9998342420088415e-01  9.9998462822332013e-01  9.9998551842845762e-01  9.9998616721145417e-01  9.9998662655130643e-01  9.9998693389754756e-01  9.9998711647654048e-01  9.9998719433119754e-01  9.9998718233819595e-01  9.9998709144675901e-01  9.9998692952405166e-01  9.9998670203170870e-01  9.9998641203653960e-01  9.9998605970286114e-01  9.9998564096059883e-01  9.9998514471112054e-01  9.9998454674393000e-01  9.9998379682846716e-01  9.9998279487283570e-01  9.9998133126909872e-01  9.9997892797081744e-01  9.9997436543776741e-01  9.9996552804765870e-01  9.9993452820477169e-01  9.9384013411597494e-01  4.9296929378406826e-04  2.1330668073768255e-04  1.2075474109290779e-04  1.2969781262348417e-02  4.4402705714074281e-01  9.9119296380096389e-01  9.9971386193662781e-01  9.9985206094971435e-01  9.9990139291230717e-01  9.9993134644154480e-01  9.9995079502515383e-01  9.9996313668907810e-01  9.9997098018252961e-01  9.9997608880009958e-01  9.9997951172644750e-01  9.9998185740593293e-01  9.9998348494287614e-01  9.9998461301025932e-01  9.9998537918714103e-01  9.9998587250823701e-01  9.9998615181543915e-01  9.9998625639510363e-01  9.9998621229209417e-01  9.9998603616936022e-01  9.9998573736724339e-01  9.9998531859184436e-01  9.9998477603549019e-01  9.9998409901323693e-01  9.9998326796646908e-01  9.9998224986485873e-01  9.9998098783625011e-01  9.9997938912035367e-01  9.9997728806601160e-01  9.9997436379883553e-01  9.9996996154823492e-01  9.9996253785817191e-01  9.9994926427623765e-01  9.9992152369866405e-01  9.9978198496638959e-01  4.3954674109303937e-01  1.5436585422022746e-04  2.1925598187841653e-04  2.1068291114419917e-04  1.0556209392997322e-04  1.1560520460681443e-04  2.8085496416017182e-04  2.0920431600135753e-01  5.8940756706632014e-01  9.1003485572089238e-01  9.9956266591088694e-01  9.9986794978681148e-01  9.9993306051916486e-01  9.9995685020859493e-01  9.9996833378842465e-01  9.9997474863247870e-01  9.9997865004062458e-01  9.9998113754065721e-01  9.9998275032858353e-01  9.9998377826050155e-01  9.9998438760021047e-01  9.9998467776723288e-01  9.9998470921417026e-01  9.9998451760525342e-01  9.9998412135606030e-01  9.9998352541652769e-01  9.9998272232290075e-01  9.9998169025300221e-01  9.9998038818322399e-01  9.9997874953596322e-01  9.9997667274808011e-01  9.9997399114485686e-01  9.9997040337039966e-01  9.9996537359304793e-01  9.9995782362845287e-01  9.9994524430926257e-01  9.9992557728373754e-01  9.9988666759011335e-01  9.9969765857468096e-01  7.2157095341756594e-01  1.1225427244480837e-01  1.6010479310508827e-04  1.0976304081164414e-04  2.1449753991887720e-04  2.1082663432790583e-04  1.0555833616788140e-04  1.0603382048764745e-04  1.1150503775897503e-04  1.7442828691130246e-04  2.9279227948973575e-02  2.8325911050252112e-01  7.3523854349946094e-01  9.9975862518157665e-01  9.9991660399942928e-01  9.9995188366519527e-01  9.9996593726761207e-01  9.9997310415984142e-01  9.9997720958299408e-01  9.9997968272381998e-01  9.9998116614781196e-01  9.9998198354545809e-01  9.9998230867607674e-01  9.9998223606173031e-01  9.9998181305799760e-01  9.9998105453232178e-01  9.9997994846296046e-01  9.9997845401454355e-01  9.9997649847838754e-01  9.9997395998133531e-01  9.9997062792846403e-01  9.9996614055113309e-01  9.9995988474047670e-01  9.9995071203498276e-01  9.9993616527824702e-01  9.9991551550889879e-01  9.9988011503604812e-01  9.9977050996836825e-01  9.9715568427442092e-01  5.4644480218461811e-01  1.6350822208907484e-01  2.6126413766709830e-04  1.3007360739647163e-04  1.1214235861583730e-04  1.0624608377746336e-04  2.1103516678744045e-04  2.1122777272925000e-04  1.0600408651961440e-04  1.0660945005957833e-04  1.0887038584237883e-04  1.2826800638748951e-04  3.7017968949784981e-04  2.9271366292256989e-01  9.1406811489264739e-01  9.9979927439636751e-01  9.9991959257342300e-01  9.9995153152431593e-01  9.9996469202099758e-01  9.9997142867823618e-01  9.9997520571966469e-01  9.9997734290130069e-01  9.9997843173765977e-01  9.9997875894829835e-01  9.9997846060048856e-01  9.9997758448155283e-01  9.9997611257136976e-01  9.9997396798751748e-01  9.9997099536496326e-01  9.9996691119087688e-01  9.9996123539445314e-01  9.9995311273381937e-01  9.9994084336026867e-01  9.9992322461558369e-01  9.9989750855567849e-01  9.9984555678476361e-01  9.9967457448740038e-01  9.7774872208231922e-01  5.7284140348643253e-01  2.8927576012543338e-01  2.5687098491217010e-02  2.0559635624689939e-04  1.3405262824641557e-04  1.1809221998033704e-04  1.0947813643662732e-04  1.0684511854106393e-04  1.0590490868057753e-04  2.1075183768258282e-04  2.1179728597447723e-04  1.0669973074892639e-04  1.0772297425958328e-04  1.1451696764488539e-04  1.6392301481455183e-04  1.2126515671875489e-01  8.0896858113478287e-01  9.9971823831995588e-01  9.9988846768400619e-01  9.9993635258882241e-01  9.9995533079128629e-01  9.9996465716650240e-01  9.9996970749045377e-01  9.9997243349216014e-01  9.9997366749538952e-01  9.9997377738835946e-01  9.9997289357708496e-01  9.9997099359159780e-01  9.9996790247098988e-01  9.9996324113627066e-01  9.9995631391062345e-01  9.9994578157280967e-01  9.9992933158850439e-01  9.9990636908219577e-01  9.9986870160327568e-01  9.9976916857212239e-01  9.9918365781873852e-01  7.6736811450981945e-01  4.5725379435442004e-01  2.1894648915033182e-01  1.2526761528051017e-02  2.2948451684264601e-04  1.4432000277454072e-04  1.2593941642671086e-04  1.1690387758784203e-04  1.0985083608024861e-04  1.0797113134111009e-04  1.0725470710075042e-04  1.0668330362168770e-04  1.0614603372826741e-04  2.1112918471387427e-04  2.1237169999221587e-04  1.0743002903840434e-04  1.0925241680592875e-04  1.3045238009205446e-04  7.2800381281941894e-04  5.7254392306381952e-01  9.9968846476276629e-01  9.9988409068303663e-01  9.999319636