<?xml version="1.0"?>
<VTKFile type="UnstructuredGrid"  version="0.1"  >
<UnstructuredGrid>
<Piece  NumberOfPoints="1681" NumberOfCells="3200">
<Points>
<DataArray  type="Float64"  NumberOfComponents="3"  format="ascii">0 0 0  0.025 0 0  0.05 0 0  0.075 0 0  0.1 0 0  0.125 0 0  0.15 0 0  0.175 0 0  0.2 0 0  0.225 0 0  0.25 0 0  0.275 0 0  0.3 0 0  0.325 0 0  0.35 0 0  0.375 0 0  0.4 0 0  0.425 0 0  0.45 0 0  0.475 0 0  0.5 0 0  0.525 0 0  0.55 0 0  0.575 0 0  0.6 0 0  0.625 0 0  0.65 0 0  0.675 0 0  0.7 0 0  0.725 0 0  0.75 0 0  0.775 0 0  0.8 0 0  0.825 0 0  0.85 0 0  0.875 0 0  0.9 0 0  0.925 0 0  0.95 0 0  0.975 0 0  1 0 0  0 0.025 0  0.025 0.025 0  0.05 0.025 0  0.075 0.025 0  0.1 0.025 0  0.125 0.025 0  0.15 0.025 0  0.175 0.025 0  0.2 0.025 0  0.225 0.025 0  0.25 0.025 0  0.275 0.025 0  0.3 0.025 0  0.325 0.025 0  0.35 0.025 0  0.375 0.025 0  0.4 0.025 0  0.425 0.025 0  0.45 0.025 0  0.475 0.025 0  0.5 0.025 0  0.525 0.025 0  0.55 0.025 0  0.575 0.025 0  0.6 0.025 0  0.625 0.025 0  0.65 0.025 0  0.675 0.025 0  0.7 0.025 0  0.725 0.025 0  0.75 0.025 0  0.775 0.025 0  0.8 0.025 0  0.825 0.025 0  0.85 0.025 0  0.875 0.025 0  0.9 0.025 0  0.925 0.025 0  0.95 0.025 0  0.975 0.025 0  1 0.025 0  0 0.05 0  0.025 0.05 0  0.05 0.05 0  0.075 0.05 0  0.1 0.05 0  0.125 0.05 0  0.15 0.05 0  0.175 0.05 0  0.2 0.05 0  0.225 0.05 0  0.25 0.05 0  0.275 0.05 0  0.3 0.05 0  0.325 0.05 0  0.35 0.05 0  0.375 0.05 0  0.4 0.05 0  0.425 0.05 0  0.45 0.05 0  0.475 0.05 0  0.5 0.05 0  0.525 0.05 0  0.55 0.05 0  0.575 0.05 0  0.6 0.05 0  0.625 0.05 0  0.65 0.05 0  0.675 0.05 0  0.7 0.05 0  0.725 0.05 0  0.75 0.05 0  0.775 0.05 0  0.8 0.05 0  0.825 0.05 0  0.85 0.05 0  0.875 0.05 0  0.9 0.05 0  0.925 0.05 0  0.95 0.05 0  0.975 0.05 0  1 0.05 0  0 0.075 0  0.025 0.075 0  0.05 0.075 0  0.075 0.075 0  0.1 0.075 0  0.125 0.075 0  0.15 0.075 0  0.175 0.075 0  0.2 0.075 0  0.225 0.075 0  0.25 0.075 0  0.275 0.075 0  0.3 0.075 0  0.325 0.075 0  0.35 0.075 0  0.375 0.075 0  0.4 0.075 0  0.425 0.075 0  0.45 0.075 0  0.475 0.075 0  0.5 0.075 0  0.525 0.075 0  0.55 0.075 0  0.575 0.075 0  0.6 0.075 0  0.625 0.075 0  0.65 0.075 0  0.675 0.075 0  0.7 0.075 0  0.725 0.075 0  0.75 0.075 0  0.775 0.075 0  0.8 0.075 0  0.825 0.075 0  0.85 0.075 0  0.875 0.075 0  0.9 0.075 0  0.925 0.075 0  0.95 0.075 0  0.975 0.075 0  1 0.075 0  0 0.1 0  0.025 0.1 0  0.05 0.1 0  0.075 0.1 0  0.1 0.1 0  0.125 0.1 0  0.15 0.1 0  0.175 0.1 0  0.2 0.1 0  0.225 0.1 0  0.25 0.1 0  0.275 0.1 0  0.3 0.1 0  0.325 0.1 0  0.35 0.1 0  0.375 0.1 0  0.4 0.1 0  0.425 0.1 0  0.45 0.1 0  0.475 0.1 0  0.5 0.1 0  0.525 0.1 0  0.55 0.1 0  0.575 0.1 0  0.6 0.1 0  0.625 0.1 0  0.65 0.1 0  0.675 0.1 0  0.7 0.1 0  0.725 0.1 0  0.75 0.1 0  0.775 0.1 0  0.8 0.1 0  0.825 0.1 0  0.85 0.1 0  0.875 0.1 0  0.9 0.1 0  0.925 0.1 0  0.95 0.1 0  0.975 0.1 0  1 0.1 0  0 0.125 0  0.025 0.125 0  0.05 0.125 0  0.075 0.125 0  0.1 0.125 0  0.125 0.125 0  0.15 0.125 0  0.175 0.125 0  0.2 0.125 0  0.225 0.125 0  0.25 0.125 0  0.275 0.125 0  0.3 0.125 0  0.325 0.125 0  0.35 0.125 0  0.375 0.125 0  0.4 0.125 0  0.425 0.125 0  0.45 0.125 0  0.475 0.125 0  0.5 0.125 0  0.525 0.125 0  0.55 0.125 0  0.575 0.125 0  0.6 0.125 0  0.625 0.125 0  0.65 0.125 0  0.675 0.125 0  0.7 0.125 0  0.725 0.125 0  0.75 0.125 0  0.775 0.125 0  0.8 0.125 0  0.825 0.125 0  0.85 0.125 0  0.875 0.125 0  0.9 0.125 0  0.925 0.125 0  0.95 0.125 0  0.975 0.125 0  1 0.125 0  0 0.15 0  0.025 0.15 0  0.05 0.15 0  0.075 0.15 0  0.1 0.15 0  0.125 0.15 0  0.15 0.15 0  0.175 0.15 0  0.2 0.15 0  0.225 0.15 0  0.25 0.15 0  0.275 0.15 0  0.3 0.15 0  0.325 0.15 0  0.35 0.15 0  0.375 0.15 0  0.4 0.15 0  0.425 0.15 0  0.45 0.15 0  0.475 0.15 0  0.5 0.15 0  0.525 0.15 0  0.55 0.15 0  0.575 0.15 0  0.6 0.15 0  0.625 0.15 0  0.65 0.15 0  0.675 0.15 0  0.7 0.15 0  0.725 0.15 0  0.75 0.15 0  0.775 0.15 0  0.8 0.15 0  0.825 0.15 0  0.85 0.15 0  0.875 0.15 0  0.9 0.15 0  0.925 0.15 0  0.95 0.15 0  0.975 0.15 0  1 0.15 0  0 0.175 0  0.025 0.175 0  0.05 0.175 0  0.075 0.175 0  0.1 0.175 0  0.125 0.175 0  0.15 0.175 0  0.175 0.175 0  0.2 0.175 0  0.225 0.175 0  0.25 0.175 0  0.275 0.175 0  0.3 0.175 0  0.325 0.175 0  0.35 0.175 0  0.375 0.175 0  0.4 0.175 0  0.425 0.175 0  0.45 0.175 0  0.475 0.175 0  0.5 0.175 0  0.525 0.175 0  0.55 0.175 0  0.575 0.175 0  0.6 0.175 0  0.625 0.175 0  0.65 0.175 0  0.675 0.175 0  0.7 0.175 0  0.725 0.175 0  0.75 0.175 0  0.775 0.175 0  0.8 0.175 0  0.825 0.175 0  0.85 0.175 0  0.875 0.175 0  0.9 0.175 0  0.925 0.175 0  0.95 0.175 0  0.975 0.175 0  1 0.175 0  0 0.2 0  0.025 0.2 0  0.05 0.2 0  0.075 0.2 0  0.1 0.2 0  0.125 0.2 0  0.15 0.2 0  0.175 0.2 0  0.2 0.2 0  0.225 0.2 0  0.25 0.2 0  0.275 0.2 0  0.3 0.2 0  0.325 0.2 0  0.35 0.2 0  0.375 0.2 0  0.4 0.2 0  0.425 0.2 0  0.45 0.2 0  0.475 0.2 0  0.5 0.2 0  0.525 0.2 0  0.55 0.2 0  0.575 0.2 0  0.6 0.2 0  0.625 0.2 0  0.65 0.2 0  0.675 0.2 0  0.7 0.2 0  0.725 0.2 0  0.75 0.2 0  0.775 0.2 0  0.8 0.2 0  0.825 0.2 0  0.85 0.2 0  0.875 0.2 0  0.9 0.2 0  0.925 0.2 0  0.95 0.2 0  0.975 0.2 0  1 0.2 0  0 0.225 0  0.025 0.225 0  0.05 0.225 0  0.075 0.225 0  0.1 0.225 0  0.125 0.225 0  0.15 0.225 0  0.175 0.225 0  0.2 0.225 0  0.225 0.225 0  0.25 0.225 0  0.275 0.225 0  0.3 0.225 0  0.325 0.225 0  0.35 0.225 0  0.375 0.225 0  0.4 0.225 0  0.425 0.225 0  0.45 0.225 0  0.475 0.225 0  0.5 0.225 0  0.525 0.225 0  0.55 0.225 0  0.575 0.225 0  0.6 0.225 0  0.625 0.225 0  0.65 0.225 0  0.675 0.225 0  0.7 0.225 0  0.725 0.225 0  0.75 0.225 0  0.775 0.225 0  0.8 0.225 0  0.825 0.225 0  0.85 0.225 0  0.875 0.225 0  0.9 0.225 0  0.925 0.225 0  0.95 0.225 0  0.975 0.225 0  1 0.225 0  0 0.25 0  0.025 0.25 0  0.05 0.25 0  0.075 0.25 0  0.1 0.25 0  0.125 0.25 0  0.15 0.25 0  0.175 0.25 0  0.2 0.25 0  0.225 0.25 0  0.25 0.25 0  0.275 0.25 0  0.3 0.25 0  0.325 0.25 0  0.35 0.25 0  0.375 0.25 0  0.4 0.25 0  0.425 0.25 0  0.45 0.25 0  0.475 0.25 0  0.5 0.25 0  0.525 0.25 0  0.55 0.25 0  0.575 0.25 0  0.6 0.25 0  0.625 0.25 0  0.65 0.25 0  0.675 0.25 0  0.7 0.25 0  0.725 0.25 0  0.75 0.25 0  0.775 0.25 0  0.8 0.25 0  0.825 0.25 0  0.85 0.25 0  0.875 0.25 0  0.9 0.25 0  0.925 0.25 0  0.95 0.25 0  0.975 0.25 0  1 0.25 0  0 0.275 0  0.025 0.275 0  0.05 0.275 0  0.075 0.275 0  0.1 0.275 0  0.125 0.275 0  0.15 0.275 0  0.175 0.275 0  0.2 0.275 0  0.225 0.275 0  0.25 0.275 0  0.275 0.275 0  0.3 0.275 0  0.325 0.275 0  0.35 0.275 0  0.375 0.275 0  0.4 0.275 0  0.425 0.275 0  0.45 0.275 0  0.475 0.275 0  0.5 0.275 0  0.525 0.275 0  0.55 0.275 0  0.575 0.275 0  0.6 0.275 0  0.625 0.275 0  0.65 0.275 0  0.675 0.275 0  0.7 0.275 0  0.725 0.275 0  0.75 0.275 0  0.775 0.275 0  0.8 0.275 0  0.825 0.275 0  0.85 0.275 0  0.875 0.275 0  0.9 0.275 0  0.925 0.275 0  0.95 0.275 0  0.975 0.275 0  1 0.275 0  0 0.3 0  0.025 0.3 0  0.05 0.3 0  0.075 0.3 0  0.1 0.3 0  0.125 0.3 0  0.15 0.3 0  0.175 0.3 0  0.2 0.3 0  0.225 0.3 0  0.25 0.3 0  0.275 0.3 0  0.3 0.3 0  0.325 0.3 0  0.35 0.3 0  0.375 0.3 0  0.4 0.3 0  0.425 0.3 0  0.45 0.3 0  0.475 0.3 0  0.5 0.3 0  0.525 0.3 0  0.55 0.3 0  0.575 0.3 0  0.6 0.3 0  0.625 0.3 0  0.65 0.3 0  0.675 0.3 0  0.7 0.3 0  0.725 0.3 0  0.75 0.3 0  0.775 0.3 0  0.8 0.3 0  0.825 0.3 0  0.85 0.3 0  0.875 0.3 0  0.9 0.3 0  0.925 0.3 0  0.95 0.3 0  0.975 0.3 0  1 0.3 0  0 0.325 0  0.025 0.325 0  0.05 0.325 0  0.075 0.325 0  0.1 0.325 0  0.125 0.325 0  0.15 0.325 0  0.175 0.325 0  0.2 0.325 0  0.225 0.325 0  0.25 0.325 0  0.275 0.325 0  0.3 0.325 0  0.325 0.325 0  0.35 0.325 0  0.375 0.325 0  0.4 0.325 0  0.425 0.325 0  0.45 0.325 0  0.475 0.325 0  0.5 0.325 0  0.525 0.325 0  0.55 0.325 0  0.575 0.325 0  0.6 0.325 0  0.625 0.325 0  0.65 0.325 0  0.675 0.325 0  0.7 0.325 0  0.725 0.325 0  0.75 0.325 0  0.775 0.325 0  0.8 0.325 0  0.825 0.325 0  0.85 0.325 0  0.875 0.325 0  0.9 0.325 0  0.925 0.325 0  0.95 0.325 0  0.975 0.325 0  1 0.325 0  0 0.35 0  0.025 0.35 0  0.05 0.35 0  0.075 0.35 0  0.1 0.35 0  0.125 0.35 0  0.15 0.35 0  0.175 0.35 0  0.2 0.35 0  0.225 0.35 0  0.25 0.35 0  0.275 0.35 0  0.3 0.35 0  0.325 0.35 0  0.35 0.35 0  0.375 0.35 0  0.4 0.35 0  0.425 0.35 0  0.45 0.35 0  0.475 0.35 0  0.5 0.35 0  0.525 0.35 0  0.55 0.35 0  0.575 0.35 0  0.6 0.35 0  0.625 0.35 0  0.65 0.35 0  0.675 0.35 0  0.7 0.35 0  0.725 0.35 0  0.75 0.35 0  0.775 0.35 0  0.8 0.35 0  0.825 0.35 0  0.85 0.35 0  0.875 0.35 0  0.9 0.35 0  0.925 0.35 0  0.95 0.35 0  0.975 0.35 0  1 0.35 0  0 0.375 0  0.025 0.375 0  0.05 0.375 0  0.075 0.375 0  0.1 0.375 0  0.125 0.375 0  0.15 0.375 0  0.175 0.375 0  0.2 0.375 0  0.225 0.375 0  0.25 0.375 0  0.275 0.375 0  0.3 0.375 0  0.325 0.375 0  0.35 0.375 0  0.375 0.375 0  0.4 0.375 0  0.425 0.375 0  0.45 0.375 0  0.475 0.375 0  0.5 0.375 0  0.525 0.375 0  0.55 0.375 0  0.575 0.375 0  0.6 0.375 0  0.625 0.375 0  0.65 0.375 0  0.675 0.375 0  0.7 0.375 0  0.725 0.375 0  0.75 0.375 0  0.775 0.375 0  0.8 0.375 0  0.825 0.375 0  0.85 0.375 0  0.875 0.375 0  0.9 0.375 0  0.925 0.375 0  0.95 0.375 0  0.975 0.375 0  1 0.375 0  0 0.4 0  0.025 0.4 0  0.05 0.4 0  0.075 0.4 0  0.1 0.4 0  0.125 0.4 0  0.15 0.4 0  0.175 0.4 0  0.2 0.4 0  0.225 0.4 0  0.25 0.4 0  0.275 0.4 0  0.3 0.4 0  0.325 0.4 0  0.35 0.4 0  0.375 0.4 0  0.4 0.4 0  0.425 0.4 0  0.45 0.4 0  0.475 0.4 0  0.5 0.4 0  0.525 0.4 0  0.55 0.4 0  0.575 0.4 0  0.6 0.4 0  0.625 0.4 0  0.65 0.4 0  0.675 0.4 0  0.7 0.4 0  0.725 0.4 0  0.75 0.4 0  0.775 0.4 0  0.8 0.4 0  0.825 0.4 0  0.85 0.4 0  0.875 0.4 0  0.9 0.4 0  0.925 0.4 0  0.95 0.4 0  0.975 0.4 0  1 0.4 0  0 0.425 0  0.025 0.425 0  0.05 0.425 0  0.075 0.425 0  0.1 0.425 0  0.125 0.425 0  0.15 0.425 0  0.175 0.425 0  0.2 0.425 0  0.225 0.425 0  0.25 0.425 0  0.275 0.425 0  0.3 0.425 0  0.325 0.425 0  0.35 0.425 0  0.375 0.425 0  0.4 0.425 0  0.425 0.425 0  0.45 0.425 0  0.475 0.425 0  0.5 0.425 0  0.525 0.425 0  0.55 0.425 0  0.575 0.425 0  0.6 0.425 0  0.625 0.425 0  0.65 0.425 0  0.675 0.425 0  0.7 0.425 0  0.725 0.425 0  0.75 0.425 0  0.775 0.425 0  0.8 0.425 0  0.825 0.425 0  0.85 0.425 0  0.875 0.425 0  0.9 0.425 0  0.925 0.425 0  0.95 0.425 0  0.975 0.425 0  1 0.425 0  0 0.45 0  0.02
[...]
<PointData  Scalars="ControlVisualisation"> 
<DataArray  type="Float64"  Name="ControlVisualisation"  format="ascii">2.5653353712867516e-01  1.7397962806407880e-01  1.7408098510261436e-01  1.7462834333653168e-01  1.7564106103516766e-01  1.7692952997153055e-01  1.7826232641590134e-01  1.7946201215205768e-01  1.8043425109114250e-01  1.8115351682309777e-01  1.8163552297296878e-01  1.8191390844314453e-01  1.8202595677517380e-01  1.8200572215858751e-01  1.8188165328715619e-01  1.8167646391822348e-01  1.8140791155014460e-01  1.8108980806926850e-01  1.8073296981076700e-01  1.8034600848951240e-01  1.7993595183041539e-01  1.7950871656308875e-01  1.7906946554538988e-01  1.7862287905869442e-01  1.7817336392111721e-01  1.7772521582120934e-01  1.7728274197267541e-01  1.7685034449909376e-01  1.7643256121069967e-01  1.7603406014303169e-01  1.7565958705920756e-01  1.7531386984396471e-01  1.7500149089884881e-01  1.7472674675841829e-01  1.7449353254375882e-01  1.7430530290806778e-01  1.7416516472697791e-01  1.7407562531004400e-01  1.7403589877704928e-01  1.7403252193805388e-01  3.5476001040722738e-01  1.7397189568840343e-01  6.0840528019558873e-02  6.1426834616453665e-02  6.2872960587277885e-02  6.5299890629635315e-02  6.8480376442904889e-02  7.2002678190362962e-02  7.5431799067723307e-02  7.8418747404690112e-02  8.0755330255191604e-02  8.2372807582625926e-02  8.3304665221547086e-02  8.3641082342753678e-02  8.3492551238605009e-02  8.2967434332536089e-02  8.2161099389195455e-02  8.1152456532063308e-02  8.0004413871256369e-02  7.8766004039018039e-02  7.7474942156757792e-02  7.6160026218300605e-02  7.4843161823602941e-02  7.3540985517631621e-02  7.2266147762511862e-02  7.1028341722631894e-02  6.9835153226811331e-02  6.8692778047509187e-02  6.7606620054874528e-02  6.6581760171879140e-02  6.5623278104919580e-02  6.4736416239568204e-02  6.3926592159322837e-02  6.3199287226683179e-02  6.2559855425226060e-02  6.2013316299226073e-02  6.1564172831723572e-02  6.1216193647870960e-02  6.0971481472945191e-02  6.0826717662367684e-02  6.0762846063756544e-02  1.7403251823061860e-01  1.7400522514431072e-01  6.1455684361913329e-02  6.3832087516083519e-02  6.8230039529702927e-02  7.5289298610233618e-02  8.5244588775463051e-02  9.7611969697645309e-02  1.1105007806252599e-01  1.2372209263376945e-01  1.3409385181545436e-01  1.4138561426153395e-01  1.4549930326306051e-01  1.4674765558266728e-01  1.4561989275494874e-01  1.4263967744472222e-01  1.3829591089181087e-01  1.3301630953401913e-01  1.2716196297100890e-01  1.2103033019798187e-01  1.1486047575032042e-01  1.0883809748636042e-01  1.0309996261610610e-01  9.7738358343309323e-02  9.2806383887057892e-02  8.8324566110795755e-02  8.4288639172552707e-02  8.0677733934189949e-02  7.7461963328999434e-02  7.4608547780393136e-02  7.2086058021673283e-02  6.9866821807040666e-02  6.7927863182084242e-02  6.6250864199936893e-02  6.4821597429945296e-02  6.3629154850073963e-02  6.2665037025771503e-02  6.1921754469068821e-02  6.1388995431127802e-02  6.1042968844934951e-02  6.0826713540981063e-02  1.7403582830322092e-01  1.7442915979992976e-01  6.3336968213833611e-02  6.9703394931786428e-02  7.9474612869447708e-02  9.4183285763144969e-02  1.1474875523262622e-01  1.3920816622177967e-01  1.6349157852445384e-01  1.8406451099734644e-01  1.9917030998751514e-01  2.0851400756555757e-01  2.1259942337128424e-01  2.1224657438139644e-01  2.0833128941422457e-01  2.0167076657237282e-01  1.9298647350677406e-01  1.8290208601763830e-01  1.7195401583338166e-01  1.6060365927638728e-01  1.4924643420637171e-01  1.3821566978060637e-01  1.2778132759082117e-01  1.1814530574139964e-01  1.0943677473798270e-01  1.0171187048140332e-01  9.4961077424995211e-02  8.9124576904851122e-02  8.4112215834657986e-02  7.9822905523507487e-02  7.6159243179041658e-02  7.3035834811847569e-02  7.0382217344897552e-02  6.8142346644120722e-02  6.6272476773548999e-02  6.4738553453055028e-02  6.3513322371204051e-02  6.2572203730012405e-02  6.1884254683598941e-02  6.1390832952622716e-02  6.0971901285428107e-02  1.7407534779907274e-01  1.7568293988833056e-01  6.8117554564296870e-02  8.7424553502271365e-02  1.1922824147419575e-01  1.5916731899375575e-01  1.9801897434530286e-01  2.2932562074221091e-01  2.5148610378921454e-01  2.6547008432864222e-01  2.7277973728020261e-01  2.7467762567030152e-01  2.7213844671759552e-01  2.6596701304115167e-01  2.5687385461727003e-01  2.4550047644877782e-01  2.3242748126046717e-01  2.1818176649115845e-01  2.0324425512136615e-01  1.8805587775260402e-01  1.7301996301548470e-01  1.5849979018625229e-01  1.4481057871618522e-01  1.3220642370044852e-01  1.2086501391635505e-01  1.1087572716676583e-01  1.0223790635547103e-01  9.4873534418024763e-02  8.8652319252266368e-02  8.3421299362066312e-02  7.9029941624652711e-02  7.5345608496891758e-02  7.2259465418097496e-02  6.9685922401289610e-02  6.7558968332827943e-02  6.5827505975745257e-02  6.4450026964194121e-02  6.3386767792010371e-02  6.2583021641401712e-02  6.1931370040746579e-02  6.1218914237107368e-02  1.7416490308211083e-01  1.7964051344057338e-01  8.7869226907085124e-02  2.0023480500322838e-01  3.3586198288008184e-01  4.1497147529731793e-01  4.4656907151618691e-01  4.4743482254496864e-01  4.3094914918300919e-01  4.0720033819667917e-01  3.8264854890140337e-01  3.6015259151603962e-01  3.3995376073189654e-01  3.2116709072584160e-01  3.0288110126388001e-01  2.8455559520277451e-01  2.6600159549598607e-01  2.4725887624672724e-01  2.2849865103726311e-01  2.0996446415433490e-01  1.9193622143851707e-01  1.7470467480889365e-01  1.5854894253356319e-01  1.4371322343459403e-01  1.3038224520739919e-01  1.1865905998132484e-01  1.0855233436930975e-01  9.9980256093741907e-02  9.2792548601285219e-02  8.6803573186274380e-02  8.1824700483681082e-02  7.7686720669629838e-02  7.4249864669457585e-02  7.1404373039724855e-02  6.9066018474547713e-02  6.7169638260559009e-02  6.5661115462020012e-02  6.4484587311057523e-02  6.3554672837578499e-02  6.2696066551619134e-02  6.1573886633666232e-02  1.7430632500260451e-01  2.3964757820072141e-01  3.6547303155056637e-01  7.9514705985327605e-01  9.1746632393976157e-01  9.2020092630552697e-01  8.8326190784030734e-01  8.1677465428783014e-01  7.3448440908997159e-01  6.4831636900688749e-01  5.6646767983110946e-01  4.9547083698886729e-01  4.3835204518378179e-01  3.9387972381070424e-01  3.5850338663635345e-01  3.2873904171033663e-01  3.0222195086804249e-01  2.7764763832786610e-01  2.5439963770621110e-01  2.3225243250885197e-01  2.1119691897662876e-01  1.9134256991024340e-01  1.7285711987170618e-01  1.5592252346139976e-01  1.4069733503729825e-01  1.2728324619319439e-01  1.1569977845750420e-01  1.0587474339247882e-01  9.7655819146963266e-02  9.0840202559940325e-02  8.5210730802711854e-02  8.0565457202525559e-02  7.6733892358440081e-02  7.3580774697511342e-02  7.1001988552415768e-02  6.8916600676920570e-02  6.7255591254798311e-02  6.5942192179769696e-02  6.4848608350306147e-02  6.3707740694992659e-02  6.2039039417882559e-02  1.7449884002840788e-01  9.7817216025624210e-01  9.9765503899606811e-01  9.9711200957486612e-01  9.9578814266086979e-01  9.9453886686286042e-01  9.8914010096290617e-01  9.7577130028316383e-01  9.6263320761457283e-01  9.2657757064313739e-01  8.1850633190054345e-01  6.9975051664826937e-01  5.9259850966814909e-01  5.0521761601371273e-01  4.3845086728651050e-01  3.8793187071131696e-01  3.4810610022086341e-01  3.1476340994861979e-01  2.8540207047521804e-01  2.5871487334567878e-01  2.3407967898913745e-01  2.1124741734859726e-01  1.9017164799152664e-01  1.7091020664857418e-01  1.5355943412618636e-01  1.3820319143236207e-01  1.2487197071065856e-01  1.1351603123702575e-01  1.0399977516230637e-01  9.6119967421557290e-02  8.9640235668297472e-02  8.4327130854910684e-02  7.9975257690652293e-02  7.6417529416582003e-02  7.3523632007738593e-02  7.1191211650409147e-02  6.9330565549379733e-02  6.7835430032656560e-02  6.6518754153873913e-02  6.4992745861614715e-02  6.2616542733512123e-02  1.7474169284929017e-01  9.9581147579495999e-01  9.9673477025508450e-01  9.9619632657484714e-01  9.9628083653398647e-01  9.9623133283040899e-01  9.9450770838006819e-01  9.9354871369383324e-01  9.8912330840162910e-01  9.7468391470372340e-01  9.6489352244838855e-01  9.2132249335934890e-01  7.9949703326362176e-01  6.7218224361431034e-01  5.6257577345015297e-01  4.7719875363236708e-01  4.1339022945180504e-01  3.6477574460518936e-01  3.2567225589155069e-01  2.9242470845328600e-01  2.6302396789584498e-01  2.3645308715541150e-01  2.1223844418803475e-01  1.9019892534442329e-01  1.7030514917405726e-01  1.5259022214575335e-01  1.3708478489650125e-01  1.2376854079230784e-01  1.1254173002236181e-01  1.0322292228652349e-01  9.5572736716585838e-02  8.9331814918943250e-02  8.4256096355279184e-02  8.0137815852340144e-02  7.6810353366271483e-02  7.4140343581798315e-02  7.2007715463132504e-02  7.0263504526325973e-02  6.8637972452005314e-02  6.6587342789109827e-02  6.3309657447486539e-02  1.7503432579019490e-01  9.9804571805373421e-01  9.9894010347407214e-01  9.9792751828939830e-01  9.9656754386701640e-01  9.9559393928299345e-01  9.9565327558507288e-01  9.9523068140899096e-01  9.9469288844339854e-01  9.9269085095975662e-01  9.8180558159836884e-01  9.6643671206764892e-01  9.6516906612934172e-01  8.7141405228765556e-01  7.3845761852563108e-01  6.1455891828362563e-01  5.1429722946053091e-01  4.3867279628165623e-01  3.8192889294137577e-01  3.3752678153335491e-01  3.0078854591182308e-01  2.6898736863703676e-01  2.4069006150798905e-01  2.1519683778681609e-01  1.9220423694797439e-01  1.7161449173046450e-01  1.5341836060742864e-01  1.3761375034680293e-01  1.2414823093220471e-01  1.1288792459945612e-01  1.0361798128275795e-01  9.6071155852047119e-02  8.9968908527762390e-02  8.5055997919422810e-02  8.1117249623900572e-02  7.7974542325466523e-02  7.5462631232866090e-02  7.3370033683856514e-02  7.1311389841494210e-02  6.8543237277951904e-02  6.4123332481009071e-02  1.7537620620790118e-01  9.9864876918321677e-01  9.9945784902898560e-01  9.9861966619396048e-01  9.9743949148587929e-01  9.9633519572062423e-01  9.9560291801068768e-01  9.9597085720558343e-01  9.9574760091814607e-01  9.9594760055991727e-01  9.9401996262637560e-01  9.8476906888492521e-01  9.6948624009355766e-01  9.7739183142719777e-01  9.2359393067347562e-01  7.9721164682973267e-01  6.6588842065217391e-01  5.5389937151190949e-01  4.6725539908385549e-01  4.0225025348623500e-01  3.5229659040541939e-01  3.1191304489558885e-01  2.7762733359746072e-01  2.4752716567565131e-01  2.2065037198320445e-01  1.9656139019762234e-01  1.7509956639221397e-01  1.5622567416881525e-01  1.3991923367347725e-01  1.2610927448051579e-01  1.1463904514200128e-01  1.0526815518432896e-01  9.7705322161893426e-02  9.1652075718357401e-02  8.6835503597555833e-02  8.3016261611701225e-02  7.9962822303664680e-02  7.7371690946167151e-02  7.4694937870596320e-02  7.0935153087910138e-02  6.5065028145125547e-02  1.7576679719216420e-01  9.9713095481491976e-01  9.9916716966308539e-01  9.9840238137681281e-01  9.9730118908435128e-01  9.9639438411718195e-01  9.9564054551154513e-01  9.9587592741863018e-01  9.9636161976212800e-01  9.9640856972309955e-01  9.9719916264272068e-01  9.9430283393949370e-01  9.8632172815044117e-01  9.7239056729413487e-01  9.7833307400340597e-01  9.6122019782077728e-01  8.5276998004120519e-01  7.2053333364927530e-01  5.9963828175215217e-01  5.0223923579702490e-01  4.2811409349395096e-01  3.7164559918714607e-01  3.2691304789379938e-01  2.8968695510854042e-01  2.5746973446997090e-01  2.2895470566331869e-01  2.0353295837575947e-01  1.8096731542955485e-01  1.6118901069935199e-01  1.4416546802166166e-01  1.2981498438559080e-01  1.1796491086783971e-01  1.0835377876036385e-01  1.0066637345221770e-01  9.4576858950754752e-02  8.9771656475065242e-02  8.5926476565291482e-02  8.2603254383953967e-02  7.9024372257454886e-02  7.3872254717255365e-02  6.6145948558575363e-02  1.7620563854824617e-01  9.9496955836877488e-01  9.9725428615110101e-01  9.9696650248691454e-01  9.9618729015703211e-01  9.9557182613394513e-01  9.9517444325563631e-01  9.9556169658532667e-01  9.9632905877214606e-01  9.9662759026027214e-01  9.9770406427568636e-01  9.9783577048086880e-01  9.9402141553073298e-01  9.8780641220014076e-01  9.7538910019812186e-01  9.7559176640182588e-01  9.8519511665236292e-01  9.0614345958673459e-01  7.8059485702950482e-01  6.5413534074817237e-01  5.4630596253569497e-01  4.6180857524589503e-01  3.9726219196071183e-01  3.4692868585962222e-01  3.0591612538028701e-01  2.7102661405367023e-01  2.4048252775453977e-01  2.1342174340730688e-01  1.8949154069181073e-01  1.6857804134079613e-01  1.5063216558140630e-01  1.3556180354070074e-01  1.2317990514173383e-01  1.1320303277478388e-01  1.0528246670669476e-01  9.9032782197553584e-02  9.4011098658812353e-02  8.9587571011446293e-02  8.4660665703600244e-02  7.7515560735470446e-02  6.7382791285940907e-02  1.7669250853685484e-01  8.5446364827477850e-01  9.9809432411917864e-01  9.9683706622617063e-01  9.9471667519898832e-01  9.9412210852928173e-01  9.9415476714418616e-01  9.9487204409221475e-01  9.9582423748856685e-01  9.9653630276854921e-01  9.9779093816146947e-01  9.9889504258221051e-01  9.9736552600690087e-01  9.9395810102889126e-01  9.8980012066596135e-01  9.7896107664577825e-01  9.7250370219325066e-01  9.9402541925584575e-01  9.5372110139870692e-01  8.4520573453399839e-01  7.1839289652444283e-01  6.0153966087179755e-01  5.0567899173864461e-01  4.3115856267391994e-01  3.7343656270772457e-01  3.2732404661247483e-01  2.8889391473237408e-01  2.5575388781925812e-01  2.2666590119075170e-01  2.0108667659575191e-01  1.7881705325287162e-01  1.5977038025660226e-01  1.4383212536115059e-01  1.3079062739335928e-01  1.2032160007873954e-01  1.1199274077921889e-01  1.0522666205343537e-01  9.9132052236731591e-02  9.2156257497011854e-02  8.2104057897682201e-02  6.8800140361781059e-02  1.7722764650258005e-01  2.2619092473203933e-01  8.1739440840182531e-01  9.9307117451781968e-01  9.9242130923733252e-01  9.9160862937671956e-01  9.9214852429435962e-01  9.9340766238232836e-01  9.9482185217299446e-01  9.9616551446487278e-01  9.9774125569544547e-01  9.9900729177182268e-01  9.9851355980435541e-01  9.9644953723737306e-01  9.9473579528381639e-01  9.9231134672439569e-01  9.8328587549833413e-01  9.7163698587397151e-01  9.8898955270068967e-01  9.8734483260034989e-01  9.0944482587223385e-01  7.9098477849784732e-01  6.6892794095535590e-01  5.6197369449459933e-01  4.7578835484804605e-01  4.0848460085880539e-01  3.5540853492278363e-01  3.1213098876911449e-01  2.7556108685793618e-01  2.4393019322873111e-01  2.1638043166768456e-01  1.9254786162959359e-01  1.7225873672506298e-01  1.5533900043582005e-01  1.4150766908026854e-01  1.3031193504295008e-01  1.2103049745369188e-01  1.1242898696116771e-01  1.0233756122920956e-01  8.7992579572954588e-02  7.0433747077942629e-02  1.7781202986497865e-01  1.9406009488262041e-01  3.1833421645294357e-01  9.5162665180520856e-01  9.8332496826883298e-01  9.8571865009578408e-01  9.8805640797982763e-01  9.9058190261611800e-01  9.9297355875991700e-01  9.9509850305528647e-01  9.9694317276313527e-01  9.9814322063505734e-01  9.9812899220044704e-01  9.9711820986073862e-01  9.9636224670858864e-01  9.9630517650470174e-01  9.9499433773082147e-01  9.8812303953781577e-01  9.7447950422085283e-01  9.7815716292076516e-01  9.9853816555673491e-01  9.6352415211497722e-01  8.6689787532636720e-01  7.4732267956920351e-01  6.3210148947220379e-01  5.3372336421435795e-01  4.5470458818865922e-01  3.9232538329973021e-01  3.4235201614697602e-01  3.0112822630193009e-01  2.6622850889040717e-01  2.3630849063420686e-01  2.1070184526059008e-01  1.8904465159178238e-01  1.7100167402984329e-01  1.5606386101260988e-01  1.4332565288305596e-01  1.3109934812805990e-01  1.1637784383228436e-01  9.5703572560427774e-02  7.2335217523724363e-02  1.7844771210910024e-01  1.9000380100457773e-01  1.8576833902867376e-01  6.8273345803896979e-01  9.3886193327972067e-01  9.6769845433938873e-01  9.7630755462513208e-01  9.8221168891965649e-01  9.8687906905843303e-01  9.9057588928142692e-01  9.9336074536013896e-01  9.9521239368837899e-01  9.9612422234646170e-01  9.9640458654359554e-01  9.9672663874178946e-01  9.9747656977482535e-01  9.9803058761812979e-01  9.9734318607089001e-01  9.9282745930334881e-01  9.8061230570942348e-01  9.7204458243274483e-01  9.8869782109327242e-01  9.9400893849483951e-01  9.3597115722244528e-01  8.3178783670604883e-01  7.1513330721876023e-01  6.0661259206645946e-01  5.1485329403883129e-01  4.4086333183302301e-01  3.8189866887255475e-01  3.3431506755770002e-01  2.9508922054140224e-01  2.6222473162582832e-01  2.3454171291074011e-01  2.1126736277043318e-01  1.9161655645794534e-01  1.7434552352303923e-01  1.5712869004859406e-01  1.3581749807709684e-01  1.0599181125743190e-01  7.4579270329168598e-02  1.7913827029015306e-01  1.8712829622048771e-01  1.3201697747403443e-01  4.6078323413251854e-01  7.3603894314782492e-01  8.8757703340371630e-01  9.4641303766180296e-01  9.6009853980304538e-01  9.6889918223028126e-01  9.7697218665222285e-01  9.8365294065821129e-01  9.8866364830833364e-01  9.9215742487064040e-01  9.9454007887700224e-01  9.9630506277977282e-01  9.9776699288326098e-01  9.9882655059018000e-01  9.9920974997669720e-01  9.9892926161406248e-01  9.9660449393645634e-01  9.8803953648486620e-01  9.7499645037422633e-01  9.7458569371819237e-01  9.9311092487192409e-01  9.8215317140627723e-01  9.1162261630215424e-01  8.0584005698233030e-01  6.9341922876189788e-01  5.9062616050466976e-01  5.0393644126027393e-01  4.3380166767879808e-01  3.7776574211006375e-01  3.3269972190717451e-01  2.9594366018939344e-01  2.6551337701464384e-01  2.3973977390020068e-01  2.1660285435072532e-01  1.9277514824266381e-01  1.6252964225681224e-01  1.1991906806085140e-01  7.7276160385474274e-02  1.7988952551296419e-01  1.8529000648536142e-01  1.1045029444839710e-01  3.3236136802114058e-01  5.4130852383958827e-01  6.8777615023740268e-01  8.0005950804727688e-01  8.8973795344536877e-01  9.4404148924882214e-01  9.5882726354443204e-01  9.6416372844179155e-01  9.7301590077917566e-01  9.8220420356301441e-01  9.8925048059881282e-01  9.9396798420759025e-01  9.9694052156607571e-01  9.9867551779208441e-01  9.9946655660158501e-01  9.9964370862718877e-01  9.9965598846469828e-01  9.9892412957493237e-01  9.9442274737657632e-01  9.8374342080020227e-01  9.7250538566121891e-01  9.7618446455002228e-01  9.9073763489426081e-01  9.6892939224829888e-01  8.9293235896274104e-01  7.8854956962747202e-01  6.8082389404411447e-01  5.8325915040690368e-01  5.0110386859583178e-01  4.3466601520232873e-01  3.8178140347997652e-01  3.3944980588920032e-01  3.0448893151712952e-01  2.7327258849624342e-01  2.4070319597088760e-01  1.9875154059417366e-01  1.3894939201783035e-01  8.0595374015944937e-02  1.8071102617891002e-01  1.8384142452624161e-01  9.8322995098439711e-02  2.5342985873778806e-01  4.0538918066389695e-01  5.1492786919387268e-01  6.0693589136663884e-01  6.9720385640612648e-01  7.9011615966360105e-01  8.7934230881811126e-01  9.4477421529599004e-01  9.6596753835779825e-01  9.6527497874934831e-01  9.7117958640008151e-01  9.8179016548615983e-01  9.9069811525279505e-01  9.9613417590824904e-01  9.9872977055649403e-01  9.9959992418414212e-01  9.9972587740347985e-01  9.9980569617950954e-01  9.9981689173953858e-01  9.9824964136450600e-01  9.9245648438407053e-01  9.8158692855199670e-01  9.7138634467176699e-01  9.7440636591618113e-01  9.8416642981321623e-01  9.5730020696490448e-01  8.8052542198087169e-01  7.7966295898779037e-01  6.7736360911937088e-01  5.8518904317912179e-01  5.0760074770513575e-01  4.4470489828273085e-01  3.9372793057883132e-01  3.4962101517821864e-01  3.0470229097127810e-01  2.4742266102206714e-01  1.6513190865511870e-01  8.4814381375858353e-02  1.8161912725914720e-01  1.8264356912940205e-01  9.0418051044493297e-02  2.0153241601146590e-01  3.1327165962546438e-01  3.9177376871657654e-01  4.5602276311567208e-01  5.2146352499539572e-01  5.9654560735625894e-01  6.837791513