<?xml version="1.0"?>
<VTKFile type="UnstructuredGrid"  version="0.1"  >
<UnstructuredGrid>
<Piece  NumberOfPoints="1681" NumberOfCells="3200">
<Points>
<DataArray  type="Float64"  NumberOfComponents="3"  format="ascii">0 0 0  0.025 0 0  0.05 0 0  0.075 0 0  0.1 0 0  0.125 0 0  0.15 0 0  0.175 0 0  0.2 0 0  0.225 0 0  0.25 0 0  0.275 0 0  0.3 0 0  0.325 0 0  0.35 0 0  0.375 0 0  0.4 0 0  0.425 0 0  0.45 0 0  0.475 0 0  0.5 0 0  0.525 0 0  0.55 0 0  0.575 0 0  0.6 0 0  0.625 0 0  0.65 0 0  0.675 0 0  0.7 0 0  0.725 0 0  0.75 0 0  0.775 0 0  0.8 0 0  0.825 0 0  0.85 0 0  0.875 0 0  0.9 0 0  0.925 0 0  0.95 0 0  0.975 0 0  1 0 0  0 0.025 0  0.025 0.025 0  0.05 0.025 0  0.075 0.025 0  0.1 0.025 0  0.125 0.025 0  0.15 0.025 0  0.175 0.025 0  0.2 0.025 0  0.225 0.025 0  0.25 0.025 0  0.275 0.025 0  0.3 0.025 0  0.325 0.025 0  0.35 0.025 0  0.375 0.025 0  0.4 0.025 0  0.425 0.025 0  0.45 0.025 0  0.475 0.025 0  0.5 0.025 0  0.525 0.025 0  0.55 0.025 0  0.575 0.025 0  0.6 0.025 0  0.625 0.025 0  0.65 0.025 0  0.675 0.025 0  0.7 0.025 0  0.725 0.025 0  0.75 0.025 0  0.775 0.025 0  0.8 0.025 0  0.825 0.025 0  0.85 0.025 0  0.875 0.025 0  0.9 0.025 0  0.925 0.025 0  0.95 0.025 0  0.975 0.025 0  1 0.025 0  0 0.05 0  0.025 0.05 0  0.05 0.05 0  0.075 0.05 0  0.1 0.05 0  0.125 0.05 0  0.15 0.05 0  0.175 0.05 0  0.2 0.05 0  0.225 0.05 0  0.25 0.05 0  0.275 0.05 0  0.3 0.05 0  0.325 0.05 0  0.35 0.05 0  0.375 0.05 0  0.4 0.05 0  0.425 0.05 0  0.45 0.05 0  0.475 0.05 0  0.5 0.05 0  0.525 0.05 0  0.55 0.05 0  0.575 0.05 0  0.6 0.05 0  0.625 0.05 0  0.65 0.05 0  0.675 0.05 0  0.7 0.05 0  0.725 0.05 0  0.75 0.05 0  0.775 0.05 0  0.8 0.05 0  0.825 0.05 0  0.85 0.05 0  0.875 0.05 0  0.9 0.05 0  0.925 0.05 0  0.95 0.05 0  0.975 0.05 0  1 0.05 0  0 0.075 0  0.025 0.075 0  0.05 0.075 0  0.075 0.075 0  0.1 0.075 0  0.125 0.075 0  0.15 0.075 0  0.175 0.075 0  0.2 0.075 0  0.225 0.075 0  0.25 0.075 0  0.275 0.075 0  0.3 0.075 0  0.325 0.075 0  0.35 0.075 0  0.375 0.075 0  0.4 0.075 0  0.425 0.075 0  0.45 0.075 0  0.475 0.075 0  0.5 0.075 0  0.525 0.075 0  0.55 0.075 0  0.575 0.075 0  0.6 0.075 0  0.625 0.075 0  0.65 0.075 0  0.675 0.075 0  0.7 0.075 0  0.725 0.075 0  0.75 0.075 0  0.775 0.075 0  0.8 0.075 0  0.825 0.075 0  0.85 0.075 0  0.875 0.075 0  0.9 0.075 0  0.925 0.075 0  0.95 0.075 0  0.975 0.075 0  1 0.075 0  0 0.1 0  0.025 0.1 0  0.05 0.1 0  0.075 0.1 0  0.1 0.1 0  0.125 0.1 0  0.15 0.1 0  0.175 0.1 0  0.2 0.1 0  0.225 0.1 0  0.25 0.1 0  0.275 0.1 0  0.3 0.1 0  0.325 0.1 0  0.35 0.1 0  0.375 0.1 0  0.4 0.1 0  0.425 0.1 0  0.45 0.1 0  0.475 0.1 0  0.5 0.1 0  0.525 0.1 0  0.55 0.1 0  0.575 0.1 0  0.6 0.1 0  0.625 0.1 0  0.65 0.1 0  0.675 0.1 0  0.7 0.1 0  0.725 0.1 0  0.75 0.1 0  0.775 0.1 0  0.8 0.1 0  0.825 0.1 0  0.85 0.1 0  0.875 0.1 0  0.9 0.1 0  0.925 0.1 0  0.95 0.1 0  0.975 0.1 0  1 0.1 0  0 0.125 0  0.025 0.125 0  0.05 0.125 0  0.075 0.125 0  0.1 0.125 0  0.125 0.125 0  0.15 0.125 0  0.175 0.125 0  0.2 0.125 0  0.225 0.125 0  0.25 0.125 0  0.275 0.125 0  0.3 0.125 0  0.325 0.125 0  0.35 0.125 0  0.375 0.125 0  0.4 0.125 0  0.425 0.125 0  0.45 0.125 0  0.475 0.125 0  0.5 0.125 0  0.525 0.125 0  0.55 0.125 0  0.575 0.125 0  0.6 0.125 0  0.625 0.125 0  0.65 0.125 0  0.675 0.125 0  0.7 0.125 0  0.725 0.125 0  0.75 0.125 0  0.775 0.125 0  0.8 0.125 0  0.825 0.125 0  0.85 0.125 0  0.875 0.125 0  0.9 0.125 0  0.925 0.125 0  0.95 0.125 0  0.975 0.125 0  1 0.125 0  0 0.15 0  0.025 0.15 0  0.05 0.15 0  0.075 0.15 0  0.1 0.15 0  0.125 0.15 0  0.15 0.15 0  0.175 0.15 0  0.2 0.15 0  0.225 0.15 0  0.25 0.15 0  0.275 0.15 0  0.3 0.15 0  0.325 0.15 0  0.35 0.15 0  0.375 0.15 0  0.4 0.15 0  0.425 0.15 0  0.45 0.15 0  0.475 0.15 0  0.5 0.15 0  0.525 0.15 0  0.55 0.15 0  0.575 0.15 0  0.6 0.15 0  0.625 0.15 0  0.65 0.15 0  0.675 0.15 0  0.7 0.15 0  0.725 0.15 0  0.75 0.15 0  0.775 0.15 0  0.8 0.15 0  0.825 0.15 0  0.85 0.15 0  0.875 0.15 0  0.9 0.15 0  0.925 0.15 0  0.95 0.15 0  0.975 0.15 0  1 0.15 0  0 0.175 0  0.025 0.175 0  0.05 0.175 0  0.075 0.175 0  0.1 0.175 0  0.125 0.175 0  0.15 0.175 0  0.175 0.175 0  0.2 0.175 0  0.225 0.175 0  0.25 0.175 0  0.275 0.175 0  0.3 0.175 0  0.325 0.175 0  0.35 0.175 0  0.375 0.175 0  0.4 0.175 0  0.425 0.175 0  0.45 0.175 0  0.475 0.175 0  0.5 0.175 0  0.525 0.175 0  0.55 0.175 0  0.575 0.175 0  0.6 0.175 0  0.625 0.175 0  0.65 0.175 0  0.675 0.175 0  0.7 0.175 0  0.725 0.175 0  0.75 0.175 0  0.775 0.175 0  0.8 0.175 0  0.825 0.175 0  0.85 0.175 0  0.875 0.175 0  0.9 0.175 0  0.925 0.175 0  0.95 0.175 0  0.975 0.175 0  1 0.175 0  0 0.2 0  0.025 0.2 0  0.05 0.2 0  0.075 0.2 0  0.1 0.2 0  0.125 0.2 0  0.15 0.2 0  0.175 0.2 0  0.2 0.2 0  0.225 0.2 0  0.25 0.2 0  0.275 0.2 0  0.3 0.2 0  0.325 0.2 0  0.35 0.2 0  0.375 0.2 0  0.4 0.2 0  0.425 0.2 0  0.45 0.2 0  0.475 0.2 0  0.5 0.2 0  0.525 0.2 0  0.55 0.2 0  0.575 0.2 0  0.6 0.2 0  0.625 0.2 0  0.65 0.2 0  0.675 0.2 0  0.7 0.2 0  0.725 0.2 0  0.75 0.2 0  0.775 0.2 0  0.8 0.2 0  0.825 0.2 0  0.85 0.2 0  0.875 0.2 0  0.9 0.2 0  0.925 0.2 0  0.95 0.2 0  0.975 0.2 0  1 0.2 0  0 0.225 0  0.025 0.225 0  0.05 0.225 0  0.075 0.225 0  0.1 0.225 0  0.125 0.225 0  0.15 0.225 0  0.175 0.225 0  0.2 0.225 0  0.225 0.225 0  0.25 0.225 0  0.275 0.225 0  0.3 0.225 0  0.325 0.225 0  0.35 0.225 0  0.375 0.225 0  0.4 0.225 0  0.425 0.225 0  0.45 0.225 0  0.475 0.225 0  0.5 0.225 0  0.525 0.225 0  0.55 0.225 0  0.575 0.225 0  0.6 0.225 0  0.625 0.225 0  0.65 0.225 0  0.675 0.225 0  0.7 0.225 0  0.725 0.225 0  0.75 0.225 0  0.775 0.225 0  0.8 0.225 0  0.825 0.225 0  0.85 0.225 0  0.875 0.225 0  0.9 0.225 0  0.925 0.225 0  0.95 0.225 0  0.975 0.225 0  1 0.225 0  0 0.25 0  0.025 0.25 0  0.05 0.25 0  0.075 0.25 0  0.1 0.25 0  0.125 0.25 0  0.15 0.25 0  0.175 0.25 0  0.2 0.25 0  0.225 0.25 0  0.25 0.25 0  0.275 0.25 0  0.3 0.25 0  0.325 0.25 0  0.35 0.25 0  0.375 0.25 0  0.4 0.25 0  0.425 0.25 0  0.45 0.25 0  0.475 0.25 0  0.5 0.25 0  0.525 0.25 0  0.55 0.25 0  0.575 0.25 0  0.6 0.25 0  0.625 0.25 0  0.65 0.25 0  0.675 0.25 0  0.7 0.25 0  0.725 0.25 0  0.75 0.25 0  0.775 0.25 0  0.8 0.25 0  0.825 0.25 0  0.85 0.25 0  0.875 0.25 0  0.9 0.25 0  0.925 0.25 0  0.95 0.25 0  0.975 0.25 0  1 0.25 0  0 0.275 0  0.025 0.275 0  0.05 0.275 0  0.075 0.275 0  0.1 0.275 0  0.125 0.275 0  0.15 0.275 0  0.175 0.275 0  0.2 0.275 0  0.225 0.275 0  0.25 0.275 0  0.275 0.275 0  0.3 0.275 0  0.325 0.275 0  0.35 0.275 0  0.375 0.275 0  0.4 0.275 0  0.425 0.275 0  0.45 0.275 0  0.475 0.275 0  0.5 0.275 0  0.525 0.275 0  0.55 0.275 0  0.575 0.275 0  0.6 0.275 0  0.625 0.275 0  0.65 0.275 0  0.675 0.275 0  0.7 0.275 0  0.725 0.275 0  0.75 0.275 0  0.775 0.275 0  0.8 0.275 0  0.825 0.275 0  0.85 0.275 0  0.875 0.275 0  0.9 0.275 0  0.925 0.275 0  0.95 0.275 0  0.975 0.275 0  1 0.275 0  0 0.3 0  0.025 0.3 0  0.05 0.3 0  0.075 0.3 0  0.1 0.3 0  0.125 0.3 0  0.15 0.3 0  0.175 0.3 0  0.2 0.3 0  0.225 0.3 0  0.25 0.3 0  0.275 0.3 0  0.3 0.3 0  0.325 0.3 0  0.35 0.3 0  0.375 0.3 0  0.4 0.3 0  0.425 0.3 0  0.45 0.3 0  0.475 0.3 0  0.5 0.3 0  0.525 0.3 0  0.55 0.3 0  0.575 0.3 0  0.6 0.3 0  0.625 0.3 0  0.65 0.3 0  0.675 0.3 0  0.7 0.3 0  0.725 0.3 0  0.75 0.3 0  0.775 0.3 0  0.8 0.3 0  0.825 0.3 0  0.85 0.3 0  0.875 0.3 0  0.9 0.3 0  0.925 0.3 0  0.95 0.3 0  0.975 0.3 0  1 0.3 0  0 0.325 0  0.025 0.325 0  0.05 0.325 0  0.075 0.325 0  0.1 0.325 0  0.125 0.325 0  0.15 0.325 0  0.175 0.325 0  0.2 0.325 0  0.225 0.325 0  0.25 0.325 0  0.275 0.325 0  0.3 0.325 0  0.325 0.325 0  0.35 0.325 0  0.375 0.325 0  0.4 0.325 0  0.425 0.325 0  0.45 0.325 0  0.475 0.325 0  0.5 0.325 0  0.525 0.325 0  0.55 0.325 0  0.575 0.325 0  0.6 0.325 0  0.625 0.325 0  0.65 0.325 0  0.675 0.325 0  0.7 0.325 0  0.725 0.325 0  0.75 0.325 0  0.775 0.325 0  0.8 0.325 0  0.825 0.325 0  0.85 0.325 0  0.875 0.325 0  0.9 0.325 0  0.925 0.325 0  0.95 0.325 0  0.975 0.325 0  1 0.325 0  0 0.35 0  0.025 0.35 0  0.05 0.35 0  0.075 0.35 0  0.1 0.35 0  0.125 0.35 0  0.15 0.35 0  0.175 0.35 0  0.2 0.35 0  0.225 0.35 0  0.25 0.35 0  0.275 0.35 0  0.3 0.35 0  0.325 0.35 0  0.35 0.35 0  0.375 0.35 0  0.4 0.35 0  0.425 0.35 0  0.45 0.35 0  0.475 0.35 0  0.5 0.35 0  0.525 0.35 0  0.55 0.35 0  0.575 0.35 0  0.6 0.35 0  0.625 0.35 0  0.65 0.35 0  0.675 0.35 0  0.7 0.35 0  0.725 0.35 0  0.75 0.35 0  0.775 0.35 0  0.8 0.35 0  0.825 0.35 0  0.85 0.35 0  0.875 0.35 0  0.9 0.35 0  0.925 0.35 0  0.95 0.35 0  0.975 0.35 0  1 0.35 0  0 0.375 0  0.025 0.375 0  0.05 0.375 0  0.075 0.375 0  0.1 0.375 0  0.125 0.375 0  0.15 0.375 0  0.175 0.375 0  0.2 0.375 0  0.225 0.375 0  0.25 0.375 0  0.275 0.375 0  0.3 0.375 0  0.325 0.375 0  0.35 0.375 0  0.375 0.375 0  0.4 0.375 0  0.425 0.375 0  0.45 0.375 0  0.475 0.375 0  0.5 0.375 0  0.525 0.375 0  0.55 0.375 0  0.575 0.375 0  0.6 0.375 0  0.625 0.375 0  0.65 0.375 0  0.675 0.375 0  0.7 0.375 0  0.725 0.375 0  0.75 0.375 0  0.775 0.375 0  0.8 0.375 0  0.825 0.375 0  0.85 0.375 0  0.875 0.375 0  0.9 0.375 0  0.925 0.375 0  0.95 0.375 0  0.975 0.375 0  1 0.375 0  0 0.4 0  0.025 0.4 0  0.05 0.4 0  0.075 0.4 0  0.1 0.4 0  0.125 0.4 0  0.15 0.4 0  0.175 0.4 0  0.2 0.4 0  0.225 0.4 0  0.25 0.4 0  0.275 0.4 0  0.3 0.4 0  0.325 0.4 0  0.35 0.4 0  0.375 0.4 0  0.4 0.4 0  0.425 0.4 0  0.45 0.4 0  0.475 0.4 0  0.5 0.4 0  0.525 0.4 0  0.55 0.4 0  0.575 0.4 0  0.6 0.4 0  0.625 0.4 0  0.65 0.4 0  0.675 0.4 0  0.7 0.4 0  0.725 0.4 0  0.75 0.4 0  0.775 0.4 0  0.8 0.4 0  0.825 0.4 0  0.85 0.4 0  0.875 0.4 0  0.9 0.4 0  0.925 0.4 0  0.95 0.4 0  0.975 0.4 0  1 0.4 0  0 0.425 0  0.025 0.425 0  0.05 0.425 0  0.075 0.425 0  0.1 0.425 0  0.125 0.425 0  0.15 0.425 0  0.175 0.425 0  0.2 0.425 0  0.225 0.425 0  0.25 0.425 0  0.275 0.425 0  0.3 0.425 0  0.325 0.425 0  0.35 0.425 0  0.375 0.425 0  0.4 0.425 0  0.425 0.425 0  0.45 0.425 0  0.475 0.425 0  0.5 0.425 0  0.525 0.425 0  0.55 0.425 0  0.575 0.425 0  0.6 0.425 0  0.625 0.425 0  0.65 0.425 0  0.675 0.425 0  0.7 0.425 0  0.725 0.425 0  0.75 0.425 0  0.775 0.425 0  0.8 0.425 0  0.825 0.425 0  0.85 0.425 0  0.875 0.425 0  0.9 0.425 0  0.925 0.425 0  0.95 0.425 0  0.975 0.425 0  1 0.425 0  0 0.45 0  0.02
[...]
<PointData  Scalars="ControlVisualisation"> 
<DataArray  type="Float64"  Name="ControlVisualisation"  format="ascii">1.2852763564415262e-07  8.2399662167792583e-08  8.2477739750768459e-08  8.2496649174676271e-08  8.2443287110209179e-08  8.2374354295921463e-08  8.2347575939299105e-08  8.2373380919484924e-08  8.2432444121473686e-08  8.2509327331243096e-08  8.2592642114622512e-08  8.2662872531834361e-08  8.2708059742058649e-08  8.2733155354431630e-08  8.2746812784285791e-08  8.2751981190656869e-08  8.2748916968007578e-08  8.2738717900601524e-08  8.2723083564131238e-08  8.2703489044441976e-08  8.2681041640455509e-08  8.2656584428772310e-08  8.2630796824721737e-08  8.2604262501954888e-08  8.2577501745407578e-08  8.2550979683266273e-08  8.2525105674122265e-08  8.2500232057527790e-08  8.2476654892573773e-08  8.2454616492208996e-08  8.2434308864398527e-08  8.2415877669733657e-08  8.2399426819631768e-08  8.2385023885033913e-08  8.2372706324479738e-08  8.2362488234032295e-08  8.2354367394917232e-08  8.2348331048801168e-08  8.2344378526119316e-08  8.2342433336688575e-08  2.6702613216449245e-07  8.2426487306377355e-08  3.6266422936836556e-08  3.6338930903606923e-08  3.6369617140072000e-08  3.6321273552177254e-08  3.6244257013792538e-08  3.6206371004313313e-08  3.6225261671294551e-08  3.6281020306773091e-08  3.6355034147595618e-08  3.6449812687234258e-08  3.6533168245416369e-08  3.6581887657277619e-08  3.6608514989958849e-08  3.6625734145824929e-08  3.6633926818469182e-08  3.6632140219274799e-08  3.6621858314688962e-08  3.6605160689247101e-08  3.6583772202083723e-08  3.6558993471368711e-08  3.6531803465461041e-08  3.6502981929670683e-08  3.6473199400138363e-08  3.6443055537756070e-08  3.6413088125390342e-08  3.6383771679244978e-08  3.6355515290003143e-08  3.6328663232164024e-08  3.6303498036585647e-08  3.6280244607161769e-08  3.6259074727831772e-08  3.6240112144104149e-08  3.6223438519798140e-08  3.6209100324812190e-08  3.6197116323710648e-08  3.6187485657730590e-08  3.6180195679617477e-08  3.6175223576893633e-08  3.6172409860020387e-08  8.2342433183492542e-08  8.2846687592766762e-08  3.6578455375958632e-08  3.6555806509895766e-08  3.6537026746703635e-08  3.6620919287304005e-08  3.7024414137863613e-08  3.7463725288605346e-08  3.7520724050286288e-08  3.7207434272242163e-08  3.6872176580312752e-08  3.6789247258113917e-08  3.6745846993505174e-08  3.6693456389706256e-08  3.6688802672661423e-08  3.6707418459000821e-08  3.6715968874264281e-08  3.6711192410507396e-08  3.6697167134033519e-08  3.6676509625114554e-08  3.6651009921095405e-08  3.6622021142306729e-08  3.6590472879754932e-08  3.6557135284841068e-08  3.6522728169242551e-08  3.6487924627590750e-08  3.6453339753688621e-08  3.6419519257908721e-08  3.6386932224304911e-08  3.6355971729650809e-08  3.6326960136609347e-08  3.6300154565474752e-08  3.6275751669817770e-08  3.6253892869554984e-08  3.6234670863045265e-08  3.6218137435683785e-08  3.6204312136089241e-08  3.6193191824225993e-08  3.6184756402940678e-08  3.6178952872545521e-08  3.6175216611833273e-08  8.2344374812965553e-08  8.4591490669856667e-08  3.7709479275302716e-08  3.7866971205106856e-08  4.0340676118845459e-08  4.4532024005517373e-08  5.5704631571475249e-08  7.2611485207418781e-08  8.2270928852412215e-08  7.3819024721107380e-08  5.9777200546978147e-08  5.0121656647307945e-08  4.1912998000531115e-08  3.7748534211067944e-08  3.6941667595441197e-08  3.6802457435020813e-08  3.6760502020253571e-08  3.6738885060823598e-08  3.6718659248636503e-08  3.6693941914512908e-08  3.6666120683721082e-08  3.6635831177159913e-08  3.6603317864688898e-08  3.6569132936364295e-08  3.6533947082748291e-08  3.6498414077329469e-08  3.6463151769242036e-08  3.6428715201225058e-08  3.6395573700564616e-08  3.6364114949974268e-08  3.6334657420698793e-08  3.6307457312041762e-08  3.6282711396649368e-08  3.6260560554302902e-08  3.6241095721900486e-08  3.6224365725368875e-08  3.6210386113604809e-08  3.6199148654283453e-08  3.6190625516461994e-08  3.6184716341190256e-08  3.6180154616636458e-08  8.2348305334205027e-08  9.1415165168673725e-08  4.0660922813430632e-08  4.7429086117741889e-08  3.5358399273033293e-07  3.0932360642366674e-01  5.5519908581986921e-01  7.0094292094335386e-01  7.1888135959105515e-01  6.2463658690935164e-01  4.4890154347230060e-01  2.3191778745081018e-01  3.2642035465820993e-02  1.0130248322098417e-07  5.1747014910007370e-08  3.9775294427830351e-08  3.7154919194655260e-08  3.6835594987982356e-08  3.6755463080795858e-08  3.6714256639965661e-08  3.6682932139790066e-08  3.6651539758285267e-08  3.6617990112009527e-08  3.6582908247784667e-08  3.6546948399337110e-08  3.6510672646359457e-08  3.6474732052261888e-08  3.6439716273906483e-08  3.6406084087356217e-08  3.6374200274029018e-08  3.6344371323509008e-08  3.6316851315580192e-08  3.6291837082523028e-08  3.6269468017123197e-08  3.6249831794708413e-08  3.6232972706056074e-08  3.6218900661106346e-08  3.6207600667539758e-08  3.6199034835744800e-08  3.6193037504466381e-08  3.6187346009219573e-08  8.2354270905093705e-08  9.3536446822120902e-08  6.2478081799914266e-08  4.9330543967449736e-01  9.9999991079755401e-01  9.9999997018619868e-01  9.9999997928285467e-01  9.9999998049000127e-01  9.9999997787724249e-01  9.9999997112565187e-01  9.9999995598868363e-01  9.9999991026591728e-01  9.9999943306579797e-01  6.2777225238376155e-01  2.3060336251618019e-01  3.3502006964264546e-07  5.9273586295579657e-08  3.9969775900571562e-08  3.7083033434145555e-08  3.6774879895411063e-08  3.6711562674197824e-08  3.6673841392890893e-08  3.6637311684315115e-08  3.6601189097848295e-08  3.6564341499168522e-08  3.6526986971309769e-08  3.6490068952058977e-08  3.6454281684267457e-08  3.6420017280271734e-08  3.6387572982989687e-08  3.6357238864222795e-08  3.6329275840413887e-08  3.6303885918256551e-08  3.6281207225552091e-08  3.6261323018892292e-08  3.6244272252791984e-08  3.6230058635232444e-08  3.6218659561573668e-08  3.6210025054086967e-08  3.6203906580623318e-08  3.6196757526578845e-08  8.2362225201198623e-08  8.1766370172501782e-02  9.9999994413275872e-01  9.9999999405735929e-01  9.9999999960319597e-01  1.0000000009491508e+00  1.0000000012351644e+00  1.0000000007870435e+00  9.9999999976708009e-01  9.9999999807726525e-01  9.9999999533759487e-01  9.9999999057583888e-01  9.9999998094457399e-01  9.9999995833589206e-01  9.9999987050787509e-01  8.0394126321249726e-01  2.9435416502926459e-01  3.5110971977726381e-07  5.3366490978162078e-08  3.8438224202924373e-08  3.6910186061654004e-08  3.6720676326037676e-08  3.6662698202128490e-08  3.6625276279899557e-08  3.6587053781188102e-08  3.6547731768056106e-08  3.6509351564280772e-08  3.6472652834106159e-08  3.6437656603644318e-08  3.6404495868089030e-08  3.6373475971275561e-08  3.6344901868877401e-08  3.6318990669061729e-08  3.6295875532110153e-08  3.6275631781577363e-08  3.6258292867301506e-08  3.6243857574699593e-08  3.6232296449862260e-08  3.6223546398339625e-08  3.6217259337299802e-08  3.6208325162094852e-08  8.2372115839622426e-08  1.0000000029408784e+00  1.0000000060733027e+00  1.0000000066649219e+00  1.0000000067345955e+00  1.0000000065077983e+00  1.0000000061042456e+00  1.0000000055601133e+00  1.0000000048725128e+00  1.0000000039989787e+00  1.0000000028420453e+00  1.0000000012102976e+00  9.9999999872002521e-01  9.9999999450736499e-01  9.9999998612149166e-01  9.9999996466909657e-01  9.9999986942904062e-01  7.3994546879055756e-01  2.1427201772394000e-01  1.2487214153583695e-07  4.4641154570224670e-08  3.7298074788305100e-08  3.6747299561175888e-08  3.6666061763835672e-08  3.6617688206202254e-08  3.6572735898830287e-08  3.6532362034664481e-08  3.6495043689195849e-08  3.6459366586054182e-08  3.6425272880386846e-08  3.6393296451196672e-08  3.6363887487199581e-08  3.6337275108852741e-08  3.6313563537527492e-08  3.6292810124106756e-08  3.6275045285225001e-08  3.6260268794422812e-08  3.6248448537679884e-08  3.6239509183355824e-08  3.6232988126504920e-08  3.6221947288750499e-08  8.2383857547166280e-08  1.0000000083950791e+00  1.0000000089728063e+00  1.0000000087834071e+00  1.0000000084999880e+00  1.0000000081480274e+00  1.0000000077379723e+00  1.0000000072762392e+00  1.0000000067604744e+00  1.0000000061735803e+00  1.0000000054779759e+00  1.0000000046062165e+00  1.0000000034419660e+00  1.0000000017739719e+00  9.9999999917250837e-01  9.9999999460920341e-01  9.9999998489432185e-01  9.9999995630916183e-01  9.9999973014596610e-01  5.3415746834523237e-01  6.7890106464993771e-02  6.2242101947710044e-08  3.8915851110267382e-08  3.6886104609456713e-08  3.6672941970452819e-08  3.6600805084986944e-08  3.6558464904469316e-08  3.6522153025772817e-08  3.6485937132692108e-08  3.6450342169043036e-08  3.6416924245717260e-08  3.6386399179625847e-08  3.6358892462603166e-08  3.6334394977623133e-08  3.6312929943058177e-08  3.6294539737684836e-08  3.6279242855616701e-08  3.6267015292887805e-08  3.6257773185795979e-08  3.6250926725097004e-08  3.6237467379493904e-08  8.2397318784038282e-08  1.0000000090969188e+00  1.0000000094572679e+00  1.0000000092940255e+00  1.0000000090512817e+00  1.0000000087471446e+00  1.0000000083974705e+00  1.0000000080156120e+00  1.0000000076071360e+00  1.0000000071675286e+00  1.0000000066802950e+00  1.0000000061146643e+00  1.0000000054207538e+00  1.0000000045177693e+00  1.0000000032662364e+00  1.0000000014004649e+00  9.9999999834277198e-01  9.9999999257312555e-01  9.9999997852338085e-01  9.9999992564359985e-01  8.8591829173025394e-01  2.7638865392414885e-01  1.4691967063876326e-07  4.4181218157665204e-08  3.7148478786526832e-08  3.6659151306796752e-08  3.6591989906318015e-08  3.6557707420335228e-08  3.6519124143099874e-08  3.6480102282403596e-08  3.6444415741657829e-08  3.6412570942520571e-08  3.6384054673067336e-08  3.6358565476393821e-08  3.6336106261992283e-08  3.6316791075974041e-08  3.6300701284949079e-08  3.6287841541506707e-08  3.6278125242563024e-08  3.6270824490861116e-08  3.6254650332520833e-08  8.2412301907551933e-08  1.0000000092025039e+00  1.0000000095530188e+00  1.0000000094168733e+00  1.0000000092098207e+00  1.0000000089476404e+00  1.0000000086484040e+00  1.0000000083275697e+00  1.0000000079938360e+00  1.0000000076477746e+00  1.0000000072813269e+00  1.0000000068778361e+00  1.0000000064110477e+00  1.0000000058415250e+00  1.0000000051080653e+00  1.0000000041089165e+00  1.0000000026592613e+00  1.0000000003838305e+00  9.9999999639157000e-01  9.9999998796350853e-01  9.9999996256223056e-01  9.9999976639476418e-01  5.3405238115364750e-01  5.0696159094265919e-02  5.5161681816210082e-08  3.7889059724065685e-08  3.6732621643835928e-08  3.6621643153139140e-08  3.6562070853830985e-08  3.6513827733200143e-08  3.6475250573048263e-08  3.6442512948269796e-08  3.6413156192988569e-08  3.6386440687261093e-08  3.6362541353529922e-08  3.6341824162292067e-08  3.6324521698486733e-08  3.6310692773385961e-08  3.6300249023461083e-08  3.6292312732391437e-08  3.6273151644855641e-08  8.2428517003913330e-08  1.0000000089808552e+00  1.0000000094789327e+00  1.0000000093488335e+00  1.0000000091562320e+00  1.0000000089217520e+00  1.0000000086630920e+00  1.0000000083938103e+00  1.0000000081216509e+00  1.0000000078478117e+00  1.0000000075672284e+00  1.0000000072692909e+00  1.0000000069379587e+00  1.0000000065506718e+00  1.0000000060752139e+00  1.0000000054630462e+00  1.0000000046357345e+00  1.0000000034557450e+00  1.0000000016564881e+00  9.9999999864753997e-01  9.9999999283641172e-01  9.9999997810026753e-01  9.9999991717506198e-01  7.9567190622180273e-01  1.9921891344380743e-01  8.7328577123821819e-08  4.0568612467762318e-08  3.6927511279513664e-08  3.6628903853590573e-08  3.6548994051215791e-08  3.6508211470044234e-08  3.6476724723360394e-08  3.6447178501673454e-08  3.6418762638751344e-08  3.6392579896367013e-08  3.6369662175696040e-08  3.6350506458298122e-08  3.6335219390769982e-08  3.6323686379842509e-08  3.6314862504140206e-08  3.6292478322515264e-08  8.2445548406477225e-08  1.0000000077701623e+00  1.0000000090857595e+00  1.0000000089976524e+00  1.0000000088505816e+00  1.0000000086684908e+00  1.0000000084691272e+00  1.0000000082642133e+00  1.0000000080599296e+00  1.0000000078571663e+00  1.0000000076523365e+00  1.0000000074381592e+00  1.0000000072040653e+00  1.0000000069359400e+00  1.0000000066148544e+00  1.0000000062143100e+00  1.0000000056949356e+00  1.0000000049941902e+00  1.0000000040050312e+00  1.0000000025273872e+00  1.0000000001418847e+00  9.9999999580821686e-01  9.9999998611279917e-01  9.9999995337064584e-01  9.9999917189102849e-01  3.8856010047783557e-01  3.6317703306490155e-07  4.6252889490175378e-08  3.7181088666067073e-08  3.6614264098636422e-08  3.6546298862281583e-08  3.6518245996675656e-08  3.6488732454842211e-08  3.6456937599784668e-08  3.6426691465372683e-08  3.6400250650235961e-08  3.6378321227273799e-08  3.6360912488410006e-08  3.6347795466258649e-08  3.6337736305293100e-08  3.6311941455587059e-08  8.2462813361225550e-08  9.9999999304656140e-01  1.0000000067947485e+00  1.0000000077335511e+00  1.0000000079982452e+00  1.0000000080429983e+00  1.0000000079995623e+00  1.0000000079163849e+00  1.0000000078143507e+00  1.0000000077018798e+00  1.0000000075805413e+00  1.0000000074476190e+00  1.0000000072973843e+00  1.0000000071215089e+00  1.0000000069087385e+00  1.0000000066437453e+00  1.0000000063048298e+00  1.0000000058596688e+00  1.0000000052572873e+00  1.0000000044119357e+00  1.0000000031675911e+00  1.0000000012096197e+00  9.9999999780562043e-01  9.9999999082701496e-01  9.9999997076595193e-01  9.9999985448830042e-01  6.1210366954975737e-01  8.1707752331587849e-02  5.6635231011872247e-08  3.7880993270041986e-08  3.6671031797169975e-08  3.6584953248116221e-08  3.6544394551899894e-08  3.6503034461608601e-08  3.6465161630996490e-08  3.6433237176818352e-08  3.6407410047531765e-08  3.6387075807695243e-08  3.6371723906483415e-08  3.6359940221323909e-08  3.6330599445664953e-08  8.2479511121412400e-08  1.4670313054985933e-07  9.9999996995888718e-01  1.0000000020205924e+00  1.0000000055953224e+00  1.0000000066417623e+00  1.0000000070668871e+00  1.0000000072586817e+00  1.0000000073425508e+00  1.0000000073683315e+00  1.0000000073575990e+00  1.0000000073191526e+00  1.0000000072551294e+00  1.0000000071636073e+00  1.0000000070395916e+00  1.0000000068750237e+00  1.0000000066579677e+00  1.0000000063707997e+00  1.0000000059868039e+00  1.0000000054637952e+00  1.0000000047315223e+00  1.0000000036648273e+00  1.0000000020203426e+00  9.9999999926365735e-01  9.9999999397500106e-01  9.9999998083425257e-01  9.9999992784494918e-01  8.2282216720157142e-01  2.0672144568198428e-01  8.4628526903303832e-08  3.9919813508627310e-08  3.6857677917796850e-08  3.6636846315160528e-08  3.6559919644734409e-08  3.6507066136190125e-08  3.6467638025000472e-08  3.6436975674669914e-08  3.6412888639382033e-08  3.6394435641115417e-08  3.6380185690495218e-08  3.6347185388784467e-08  8.2494555576624653e-08  8.7687509373069841e-08  8.8741116307078274e-02  9.9999996567653515e-01  9.9999999780207927e-01  1.0000000033783645e+00  1.0000000052380547e+00  1.0000000060872249e+00  1.0000000065403980e+00  1.0000000068026789e+00  1.0000000069584496e+00  1.0000000070465545e+00  1.0000000070856616e+00  1.0000000070842654e+00  1.0000000070449993e+00  1.0000000069664610e+00  1.0000000068437200e+00  1.0000000066679071e+00  1.0000000064248622e+00  1.0000000060924275e+00  1.0000000056353373e+00  1.0000000049953164e+00  1.0000000040706114e+00  1.0000000026692148e+00  1.0000000003856913e+00  9.9999999620725710e-01  9.9999998680217261e-01  9.9999995454299406e-01  9.9999906482426137e-01  3.6792024111918104e-01  2.3144310769140553e-07  4.4320779614870245e-08  3.7113665757256620e-08  3.6646322733338355e-08  3.6551091325189561e-08  3.6501869745333691e-08  3.6466327189896666e-08  3.6437693857616561e-08  3.6414850859373487e-08  3.6396866110114073e-08  3.6359998485463608e-08  8.2506471571956879e-08  8.4136475708510366e-08  5.5595250920820822e-08  5.5628218469303048e-01  9.9999995881721715e-01  9.9999999425119546e-01  1.0000000013475621e+00  1.0000000039307415e+00  1.0000000051819142e+00  1.0000000058859009e+00  1.0000000063179662e+00  1.0000000065952610e+00  1.0000000067739445e+00  1.0000000068828379e+00  1.0000000069369765e+00  1.0000000069435797e+00  1.0000000069047270e+00  1.0000000068183865e+00  1.0000000066784078e+00  1.0000000064735948e+00  1.0000000061855951e+00  1.0000000057848202e+00  1.0000000052225482e+00  1.0000000044147381e+00  1.0000000032058205e+00  1.0000000012779280e+00  9.9999999788298410e-01  9.9999999081231072e-01  9.9999996982669470e-01  9.9999983188471642e-01  5.6209843531293502e-01  4.4260272778400896e-02  5.1250781561260449e-08  3.7451373189896871e-08  3.6629300444536330e-08  3.6538712782620216e-08  3.6496098932130691e-08  3.6461732398760725e-08  3.6432167751837246e-08  3.6408049623081211e-08  3.6366722060792046e-08  8.2513215788800284e-08  8.3126346155628563e-08  3.7487557151067882e-08  1.1921017403170928e-07  6.4352253378072732e-01  9.9999995053789970e-01  9.9999999074193646e-01  9.9999999943583728e-01  1.0000000027202089e+00  1.0000000043552129e+00  1.0000000052965414e+00  1.0000000058871532e+00  1.0000000062761436e+00  1.0000000065367440e+00  1.0000000067078809e+00  1.0000000068110790e+00  1.0000000068580135e+00  1.0000000068540418e+00  1.0000000067997679e+00  1.0000000066914452e+00  1.0000000065204473e+00  1.0000000062716592e+00  1.0000000059201801e+00  1.0000000054248805e+00  1.0000000047154081e+00  1.0000000036641921e+00  1.0000000020195816e+00  9.9999999921927429e-01  9.9999999372849313e-01  9.9999997949832087e-01  9.9999991663511933e-01  7.4371378885145423e-01  1.4529019670064569e-01  6.3530660400463836e-08  3.8152457464715038e-08  3.6639127223250660e-08  3.6535018347441468e-08  3.6487682270536077e-08  3.6446546020112277e-08  3.6411531379494512e-08  3.6364150836601798e-08  8.2511880640900127e-08  8.2448042948623980e-08  3.6407783230606200e-08  4.0333472969802286e-08  1.4477029171341775e-06  6.6137776724170738e-01  9.9999993589169289e-01  9.9999998670724077e-01  9.9999999748964019e-01  1.0000000015499373e+00  1.0000000035807690e+00  1.0000000047568647e+00  1.0000000054993892e+00  1.0000000059925842e+00  1.0000000063280394e+00  1.0000000065552870e+00  1.0000000067024197e+00  1.0000000067854355e+00  1.0000000068127508e+00  1.0000000067873658e+00  1.0000000067076846e+00  1.0000000065673444e+00  1.0000000063540198e+00  1.0000000060467664e+00  1.0000000056108023e+00  1.0000000049871762e+00  1.0000000040710015e+00  1.0000000026605615e+00  1.0000000003197278e+00  9.9999999592118882e-01  9.9999998552015801e-01  9.9999994661695635e-01  9.3103497257617207e-01  2.5466093736633605e-01  8.9954305801187137e-08  3.9370682760361982e-08  3.6671863487476347e-08  3.6528271537781686e-08  3.6460788878191997e-08  3.6405367774926748e-08  3.6348015885173170e-08  8.2498335406932084e-08  8.2363048138317062e-08  3.6240874340388025e-08  3.6459115071370986e-08  4.2361585910240772e-08  9.7334883071720593e-04  5.9758503394095830e-01  9.9999990894189217e-01  9.9999998148234015e-01  9.9999999534242734e-01  1.0000000003553449e+00  1.0000000028268459e+00  1.0000000042474664e+00  1.0000000051406055e+00  1.0000000057336118e+00  1.0000000061392744e+00  1.0000000064185874e+00  1.0000000066063148e+00  1.0000000067226529e+00  1.0000000067789194e+00  1.0000000067803609e+00  1.0000000067273731e+00  1.0000000066156549e+00  1.0000000064353849e+00  1.0000000061691303e+00  1.0000000057876388e+00  1.0000000052414635e+00  1.0000000044433524e+00  1.0000000032277563e+00  1.0000000012456551e+00  9.9999999763786707e-01  9.9999998967362613e-01  9.9999996307786998e-01  9.9999957693987240e-01  3.7977974103016104e-01  1.5592501799877898e-07  4.0943103515801595e-08  3.6688783009871321e-08  3.6489015654171398e-08  3.6390641970583389e-08  3.6313963322791301e-08  8.2467335823607871e-08  8.2416220044987567e-08  3.6264426714346536e-08  3.6383946167126125e-08  3.6628979313720430e-08  4.2287047238260136e-08  4.3060117958896630e-07  4.9916448106240979e-01  9.9999984540491926e-01  9.999999740