<?xml version="1.0"?>
<VTKFile type="UnstructuredGrid"  version="0.1"  >
<UnstructuredGrid>
<Piece  NumberOfPoints="1681" NumberOfCells="3200">
<Points>
<DataArray  type="Float64"  NumberOfComponents="3"  format="ascii">0 0 0  0.025 0 0  0.05 0 0  0.075 0 0  0.1 0 0  0.125 0 0  0.15 0 0  0.175 0 0  0.2 0 0  0.225 0 0  0.25 0 0  0.275 0 0  0.3 0 0  0.325 0 0  0.35 0 0  0.375 0 0  0.4 0 0  0.425 0 0  0.45 0 0  0.475 0 0  0.5 0 0  0.525 0 0  0.55 0 0  0.575 0 0  0.6 0 0  0.625 0 0  0.65 0 0  0.675 0 0  0.7 0 0  0.725 0 0  0.75 0 0  0.775 0 0  0.8 0 0  0.825 0 0  0.85 0 0  0.875 0 0  0.9 0 0  0.925 0 0  0.95 0 0  0.975 0 0  1 0 0  0 0.025 0  0.025 0.025 0  0.05 0.025 0  0.075 0.025 0  0.1 0.025 0  0.125 0.025 0  0.15 0.025 0  0.175 0.025 0  0.2 0.025 0  0.225 0.025 0  0.25 0.025 0  0.275 0.025 0  0.3 0.025 0  0.325 0.025 0  0.35 0.025 0  0.375 0.025 0  0.4 0.025 0  0.425 0.025 0  0.45 0.025 0  0.475 0.025 0  0.5 0.025 0  0.525 0.025 0  0.55 0.025 0  0.575 0.025 0  0.6 0.025 0  0.625 0.025 0  0.65 0.025 0  0.675 0.025 0  0.7 0.025 0  0.725 0.025 0  0.75 0.025 0  0.775 0.025 0  0.8 0.025 0  0.825 0.025 0  0.85 0.025 0  0.875 0.025 0  0.9 0.025 0  0.925 0.025 0  0.95 0.025 0  0.975 0.025 0  1 0.025 0  0 0.05 0  0.025 0.05 0  0.05 0.05 0  0.075 0.05 0  0.1 0.05 0  0.125 0.05 0  0.15 0.05 0  0.175 0.05 0  0.2 0.05 0  0.225 0.05 0  0.25 0.05 0  0.275 0.05 0  0.3 0.05 0  0.325 0.05 0  0.35 0.05 0  0.375 0.05 0  0.4 0.05 0  0.425 0.05 0  0.45 0.05 0  0.475 0.05 0  0.5 0.05 0  0.525 0.05 0  0.55 0.05 0  0.575 0.05 0  0.6 0.05 0  0.625 0.05 0  0.65 0.05 0  0.675 0.05 0  0.7 0.05 0  0.725 0.05 0  0.75 0.05 0  0.775 0.05 0  0.8 0.05 0  0.825 0.05 0  0.85 0.05 0  0.875 0.05 0  0.9 0.05 0  0.925 0.05 0  0.95 0.05 0  0.975 0.05 0  1 0.05 0  0 0.075 0  0.025 0.075 0  0.05 0.075 0  0.075 0.075 0  0.1 0.075 0  0.125 0.075 0  0.15 0.075 0  0.175 0.075 0  0.2 0.075 0  0.225 0.075 0  0.25 0.075 0  0.275 0.075 0  0.3 0.075 0  0.325 0.075 0  0.35 0.075 0  0.375 0.075 0  0.4 0.075 0  0.425 0.075 0  0.45 0.075 0  0.475 0.075 0  0.5 0.075 0  0.525 0.075 0  0.55 0.075 0  0.575 0.075 0  0.6 0.075 0  0.625 0.075 0  0.65 0.075 0  0.675 0.075 0  0.7 0.075 0  0.725 0.075 0  0.75 0.075 0  0.775 0.075 0  0.8 0.075 0  0.825 0.075 0  0.85 0.075 0  0.875 0.075 0  0.9 0.075 0  0.925 0.075 0  0.95 0.075 0  0.975 0.075 0  1 0.075 0  0 0.1 0  0.025 0.1 0  0.05 0.1 0  0.075 0.1 0  0.1 0.1 0  0.125 0.1 0  0.15 0.1 0  0.175 0.1 0  0.2 0.1 0  0.225 0.1 0  0.25 0.1 0  0.275 0.1 0  0.3 0.1 0  0.325 0.1 0  0.35 0.1 0  0.375 0.1 0  0.4 0.1 0  0.425 0.1 0  0.45 0.1 0  0.475 0.1 0  0.5 0.1 0  0.525 0.1 0  0.55 0.1 0  0.575 0.1 0  0.6 0.1 0  0.625 0.1 0  0.65 0.1 0  0.675 0.1 0  0.7 0.1 0  0.725 0.1 0  0.75 0.1 0  0.775 0.1 0  0.8 0.1 0  0.825 0.1 0  0.85 0.1 0  0.875 0.1 0  0.9 0.1 0  0.925 0.1 0  0.95 0.1 0  0.975 0.1 0  1 0.1 0  0 0.125 0  0.025 0.125 0  0.05 0.125 0  0.075 0.125 0  0.1 0.125 0  0.125 0.125 0  0.15 0.125 0  0.175 0.125 0  0.2 0.125 0  0.225 0.125 0  0.25 0.125 0  0.275 0.125 0  0.3 0.125 0  0.325 0.125 0  0.35 0.125 0  0.375 0.125 0  0.4 0.125 0  0.425 0.125 0  0.45 0.125 0  0.475 0.125 0  0.5 0.125 0  0.525 0.125 0  0.55 0.125 0  0.575 0.125 0  0.6 0.125 0  0.625 0.125 0  0.65 0.125 0  0.675 0.125 0  0.7 0.125 0  0.725 0.125 0  0.75 0.125 0  0.775 0.125 0  0.8 0.125 0  0.825 0.125 0  0.85 0.125 0  0.875 0.125 0  0.9 0.125 0  0.925 0.125 0  0.95 0.125 0  0.975 0.125 0  1 0.125 0  0 0.15 0  0.025 0.15 0  0.05 0.15 0  0.075 0.15 0  0.1 0.15 0  0.125 0.15 0  0.15 0.15 0  0.175 0.15 0  0.2 0.15 0  0.225 0.15 0  0.25 0.15 0  0.275 0.15 0  0.3 0.15 0  0.325 0.15 0  0.35 0.15 0  0.375 0.15 0  0.4 0.15 0  0.425 0.15 0  0.45 0.15 0  0.475 0.15 0  0.5 0.15 0  0.525 0.15 0  0.55 0.15 0  0.575 0.15 0  0.6 0.15 0  0.625 0.15 0  0.65 0.15 0  0.675 0.15 0  0.7 0.15 0  0.725 0.15 0  0.75 0.15 0  0.775 0.15 0  0.8 0.15 0  0.825 0.15 0  0.85 0.15 0  0.875 0.15 0  0.9 0.15 0  0.925 0.15 0  0.95 0.15 0  0.975 0.15 0  1 0.15 0  0 0.175 0  0.025 0.175 0  0.05 0.175 0  0.075 0.175 0  0.1 0.175 0  0.125 0.175 0  0.15 0.175 0  0.175 0.175 0  0.2 0.175 0  0.225 0.175 0  0.25 0.175 0  0.275 0.175 0  0.3 0.175 0  0.325 0.175 0  0.35 0.175 0  0.375 0.175 0  0.4 0.175 0  0.425 0.175 0  0.45 0.175 0  0.475 0.175 0  0.5 0.175 0  0.525 0.175 0  0.55 0.175 0  0.575 0.175 0  0.6 0.175 0  0.625 0.175 0  0.65 0.175 0  0.675 0.175 0  0.7 0.175 0  0.725 0.175 0  0.75 0.175 0  0.775 0.175 0  0.8 0.175 0  0.825 0.175 0  0.85 0.175 0  0.875 0.175 0  0.9 0.175 0  0.925 0.175 0  0.95 0.175 0  0.975 0.175 0  1 0.175 0  0 0.2 0  0.025 0.2 0  0.05 0.2 0  0.075 0.2 0  0.1 0.2 0  0.125 0.2 0  0.15 0.2 0  0.175 0.2 0  0.2 0.2 0  0.225 0.2 0  0.25 0.2 0  0.275 0.2 0  0.3 0.2 0  0.325 0.2 0  0.35 0.2 0  0.375 0.2 0  0.4 0.2 0  0.425 0.2 0  0.45 0.2 0  0.475 0.2 0  0.5 0.2 0  0.525 0.2 0  0.55 0.2 0  0.575 0.2 0  0.6 0.2 0  0.625 0.2 0  0.65 0.2 0  0.675 0.2 0  0.7 0.2 0  0.725 0.2 0  0.75 0.2 0  0.775 0.2 0  0.8 0.2 0  0.825 0.2 0  0.85 0.2 0  0.875 0.2 0  0.9 0.2 0  0.925 0.2 0  0.95 0.2 0  0.975 0.2 0  1 0.2 0  0 0.225 0  0.025 0.225 0  0.05 0.225 0  0.075 0.225 0  0.1 0.225 0  0.125 0.225 0  0.15 0.225 0  0.175 0.225 0  0.2 0.225 0  0.225 0.225 0  0.25 0.225 0  0.275 0.225 0  0.3 0.225 0  0.325 0.225 0  0.35 0.225 0  0.375 0.225 0  0.4 0.225 0  0.425 0.225 0  0.45 0.225 0  0.475 0.225 0  0.5 0.225 0  0.525 0.225 0  0.55 0.225 0  0.575 0.225 0  0.6 0.225 0  0.625 0.225 0  0.65 0.225 0  0.675 0.225 0  0.7 0.225 0  0.725 0.225 0  0.75 0.225 0  0.775 0.225 0  0.8 0.225 0  0.825 0.225 0  0.85 0.225 0  0.875 0.225 0  0.9 0.225 0  0.925 0.225 0  0.95 0.225 0  0.975 0.225 0  1 0.225 0  0 0.25 0  0.025 0.25 0  0.05 0.25 0  0.075 0.25 0  0.1 0.25 0  0.125 0.25 0  0.15 0.25 0  0.175 0.25 0  0.2 0.25 0  0.225 0.25 0  0.25 0.25 0  0.275 0.25 0  0.3 0.25 0  0.325 0.25 0  0.35 0.25 0  0.375 0.25 0  0.4 0.25 0  0.425 0.25 0  0.45 0.25 0  0.475 0.25 0  0.5 0.25 0  0.525 0.25 0  0.55 0.25 0  0.575 0.25 0  0.6 0.25 0  0.625 0.25 0  0.65 0.25 0  0.675 0.25 0  0.7 0.25 0  0.725 0.25 0  0.75 0.25 0  0.775 0.25 0  0.8 0.25 0  0.825 0.25 0  0.85 0.25 0  0.875 0.25 0  0.9 0.25 0  0.925 0.25 0  0.95 0.25 0  0.975 0.25 0  1 0.25 0  0 0.275 0  0.025 0.275 0  0.05 0.275 0  0.075 0.275 0  0.1 0.275 0  0.125 0.275 0  0.15 0.275 0  0.175 0.275 0  0.2 0.275 0  0.225 0.275 0  0.25 0.275 0  0.275 0.275 0  0.3 0.275 0  0.325 0.275 0  0.35 0.275 0  0.375 0.275 0  0.4 0.275 0  0.425 0.275 0  0.45 0.275 0  0.475 0.275 0  0.5 0.275 0  0.525 0.275 0  0.55 0.275 0  0.575 0.275 0  0.6 0.275 0  0.625 0.275 0  0.65 0.275 0  0.675 0.275 0  0.7 0.275 0  0.725 0.275 0  0.75 0.275 0  0.775 0.275 0  0.8 0.275 0  0.825 0.275 0  0.85 0.275 0  0.875 0.275 0  0.9 0.275 0  0.925 0.275 0  0.95 0.275 0  0.975 0.275 0  1 0.275 0  0 0.3 0  0.025 0.3 0  0.05 0.3 0  0.075 0.3 0  0.1 0.3 0  0.125 0.3 0  0.15 0.3 0  0.175 0.3 0  0.2 0.3 0  0.225 0.3 0  0.25 0.3 0  0.275 0.3 0  0.3 0.3 0  0.325 0.3 0  0.35 0.3 0  0.375 0.3 0  0.4 0.3 0  0.425 0.3 0  0.45 0.3 0  0.475 0.3 0  0.5 0.3 0  0.525 0.3 0  0.55 0.3 0  0.575 0.3 0  0.6 0.3 0  0.625 0.3 0  0.65 0.3 0  0.675 0.3 0  0.7 0.3 0  0.725 0.3 0  0.75 0.3 0  0.775 0.3 0  0.8 0.3 0  0.825 0.3 0  0.85 0.3 0  0.875 0.3 0  0.9 0.3 0  0.925 0.3 0  0.95 0.3 0  0.975 0.3 0  1 0.3 0  0 0.325 0  0.025 0.325 0  0.05 0.325 0  0.075 0.325 0  0.1 0.325 0  0.125 0.325 0  0.15 0.325 0  0.175 0.325 0  0.2 0.325 0  0.225 0.325 0  0.25 0.325 0  0.275 0.325 0  0.3 0.325 0  0.325 0.325 0  0.35 0.325 0  0.375 0.325 0  0.4 0.325 0  0.425 0.325 0  0.45 0.325 0  0.475 0.325 0  0.5 0.325 0  0.525 0.325 0  0.55 0.325 0  0.575 0.325 0  0.6 0.325 0  0.625 0.325 0  0.65 0.325 0  0.675 0.325 0  0.7 0.325 0  0.725 0.325 0  0.75 0.325 0  0.775 0.325 0  0.8 0.325 0  0.825 0.325 0  0.85 0.325 0  0.875 0.325 0  0.9 0.325 0  0.925 0.325 0  0.95 0.325 0  0.975 0.325 0  1 0.325 0  0 0.35 0  0.025 0.35 0  0.05 0.35 0  0.075 0.35 0  0.1 0.35 0  0.125 0.35 0  0.15 0.35 0  0.175 0.35 0  0.2 0.35 0  0.225 0.35 0  0.25 0.35 0  0.275 0.35 0  0.3 0.35 0  0.325 0.35 0  0.35 0.35 0  0.375 0.35 0  0.4 0.35 0  0.425 0.35 0  0.45 0.35 0  0.475 0.35 0  0.5 0.35 0  0.525 0.35 0  0.55 0.35 0  0.575 0.35 0  0.6 0.35 0  0.625 0.35 0  0.65 0.35 0  0.675 0.35 0  0.7 0.35 0  0.725 0.35 0  0.75 0.35 0  0.775 0.35 0  0.8 0.35 0  0.825 0.35 0  0.85 0.35 0  0.875 0.35 0  0.9 0.35 0  0.925 0.35 0  0.95 0.35 0  0.975 0.35 0  1 0.35 0  0 0.375 0  0.025 0.375 0  0.05 0.375 0  0.075 0.375 0  0.1 0.375 0  0.125 0.375 0  0.15 0.375 0  0.175 0.375 0  0.2 0.375 0  0.225 0.375 0  0.25 0.375 0  0.275 0.375 0  0.3 0.375 0  0.325 0.375 0  0.35 0.375 0  0.375 0.375 0  0.4 0.375 0  0.425 0.375 0  0.45 0.375 0  0.475 0.375 0  0.5 0.375 0  0.525 0.375 0  0.55 0.375 0  0.575 0.375 0  0.6 0.375 0  0.625 0.375 0  0.65 0.375 0  0.675 0.375 0  0.7 0.375 0  0.725 0.375 0  0.75 0.375 0  0.775 0.375 0  0.8 0.375 0  0.825 0.375 0  0.85 0.375 0  0.875 0.375 0  0.9 0.375 0  0.925 0.375 0  0.95 0.375 0  0.975 0.375 0  1 0.375 0  0 0.4 0  0.025 0.4 0  0.05 0.4 0  0.075 0.4 0  0.1 0.4 0  0.125 0.4 0  0.15 0.4 0  0.175 0.4 0  0.2 0.4 0  0.225 0.4 0  0.25 0.4 0  0.275 0.4 0  0.3 0.4 0  0.325 0.4 0  0.35 0.4 0  0.375 0.4 0  0.4 0.4 0  0.425 0.4 0  0.45 0.4 0  0.475 0.4 0  0.5 0.4 0  0.525 0.4 0  0.55 0.4 0  0.575 0.4 0  0.6 0.4 0  0.625 0.4 0  0.65 0.4 0  0.675 0.4 0  0.7 0.4 0  0.725 0.4 0  0.75 0.4 0  0.775 0.4 0  0.8 0.4 0  0.825 0.4 0  0.85 0.4 0  0.875 0.4 0  0.9 0.4 0  0.925 0.4 0  0.95 0.4 0  0.975 0.4 0  1 0.4 0  0 0.425 0  0.025 0.425 0  0.05 0.425 0  0.075 0.425 0  0.1 0.425 0  0.125 0.425 0  0.15 0.425 0  0.175 0.425 0  0.2 0.425 0  0.225 0.425 0  0.25 0.425 0  0.275 0.425 0  0.3 0.425 0  0.325 0.425 0  0.35 0.425 0  0.375 0.425 0  0.4 0.425 0  0.425 0.425 0  0.45 0.425 0  0.475 0.425 0  0.5 0.425 0  0.525 0.425 0  0.55 0.425 0  0.575 0.425 0  0.6 0.425 0  0.625 0.425 0  0.65 0.425 0  0.675 0.425 0  0.7 0.425 0  0.725 0.425 0  0.75 0.425 0  0.775 0.425 0  0.8 0.425 0  0.825 0.425 0  0.85 0.425 0  0.875 0.425 0  0.9 0.425 0  0.925 0.425 0  0.95 0.425 0  0.975 0.425 0  1 0.425 0  0 0.45 0  0.02
[...]
<PointData  Scalars="ControlVisualisation"> 
<DataArray  type="Float64"  Name="ControlVisualisation"  format="ascii">2.3754060663094272e-03  1.5405669567166427e-03  1.5417515175625504e-03  1.5418943303692665e-03  1.5409557365482210e-03  1.5399690092190838e-03  1.5398476626579108e-03  1.5407318819200863e-03  1.5423306368308961e-03  1.5443296275405604e-03  1.5462910509367006e-03  1.5477429488851562e-03  1.5485861190909756e-03  1.5490494814714012e-03  1.5493108272369245e-03  1.5494012491190487e-03  1.5493187355788223e-03  1.5490839363524389e-03  1.5487266103466316e-03  1.5482725929215401e-03  1.5477434525154813e-03  1.5471586356391631e-03  1.5465364228175423e-03  1.5458937506981796e-03  1.5452456338885361e-03  1.5446048177601385e-03  1.5439818042257123e-03  1.5433850860071647e-03  1.5428214287070015e-03  1.5422961299904176e-03  1.5418132396250489e-03  1.5413757443683593e-03  1.5409857285595900e-03  1.5406445219480185e-03  1.5403528446603732e-03  1.5401109501278665e-03  1.5399187734785741e-03  1.5397760200548363e-03  1.5396827642321382e-03  1.5396370550395404e-03  2.7833939538295209e-03  1.5410391200974902e-03  7.4382182199048998e-04  7.4468891244667797e-04  7.4487540416223632e-04  7.4412689647776530e-04  7.4331779534477904e-04  7.4335195165440497e-04  7.4440468189598070e-04  7.4611215101918094e-04  7.4826062987167342e-04  7.5056586419161889e-04  7.5221318347780950e-04  7.5309534034719797e-04  7.5362878699814667e-04  7.5399223002437714e-04  7.5414829901986166e-04  7.5408003151706485e-04  7.5382079492462666e-04  7.5341213367724718e-04  7.5288837529006677e-04  7.5227623641041259e-04  7.5159779194057964e-04  7.5087314029734979e-04  7.5012122655460480e-04  7.4935933959608184e-04  7.4860251774651787e-04  7.4786337635782910e-04  7.4715226095273116e-04  7.4647752266112136e-04  7.4584580268833168e-04  7.4526228461715212e-04  7.4473090704961975e-04  7.4425454507002099e-04  7.4383517399924035e-04  7.4347402768723428e-04  7.4317175317473779e-04  7.4292857348551701e-04  7.4274443291490677e-04  7.4261901831367742e-04  7.4254785441905556e-04  1.5396370515453994e-03  1.5482450351094364e-03  7.4834226988257715e-04  7.4779952996747415e-04  7.4733631754244050e-04  7.4920695249165313e-04  7.5640624847288153e-04  7.6395851013751407e-04  7.6538096804898903e-04  7.6127398659055776e-04  7.5818402866500577e-04  7.5777059410496689e-04  7.5650850589548298e-04  7.5562482208148393e-04  7.5579873368476769e-04  7.5625160727057583e-04  7.5641441612621016e-04  7.5628260701437512e-04  7.5593794317055493e-04  7.5543298689510947e-04  7.5480472513913199e-04  7.5407978586858066e-04  7.5327923835417400e-04  7.5242473189893275e-04  7.5153867876583645e-04  7.5064182257110566e-04  7.4975186240099545e-04  7.4888338809230969e-04  7.4804826911528677e-04  7.4725606781347398e-04  7.4651440009117199e-04  7.4582923388992592e-04  7.4520512738048667e-04  7.4464542473434584e-04  7.4415243234898266e-04  7.4372759248601751e-04  7.4337165859872714e-04  7.4308488989511341e-04  7.4286712049493871e-04  7.4271727198249734e-04  7.4261891376999577e-04  1.5396826832506307e-03  1.5792007314616924e-03  7.6569099215482506e-04  7.7074189885793266e-04  8.2155020280160645e-04  8.9561472523701463e-04  1.0695686168776361e-03  1.3118212994642155e-03  1.4164131814360015e-03  1.2982216722374393e-03  1.1296525083868887e-03  9.7054012033711255e-04  8.2708592121560941e-04  7.7008404371803080e-04  7.6006490103234126e-04  7.5805634919796363e-04  7.5735893094747934e-04  7.5692659854348224e-04  7.5645810152974696e-04  7.5587658031206506e-04  7.5520659441289403e-04  7.5445587367720666e-04  7.5362967074733009e-04  7.5274750282070348e-04  7.5183506795861179e-04  7.5091502336292054e-04  7.5000518135700405e-04  7.4911968069504874e-04  7.4826990445485474e-04  7.4746499517423597e-04  7.4671224817038590e-04  7.4601741941949899e-04  7.4538493908850236e-04  7.4481806969936180e-04  7.4431905180746100e-04  7.4388925880605511e-04  7.4352936353936424e-04  7.4323952323524900e-04  7.4301939463082708e-04  7.4286658984136695e-04  7.4274384099250516e-04  1.5397754686799212e-03  1.6985096896623263e-03  8.1551899949474217e-04  9.3614764107565753e-04  2.6233681936380371e-03  2.9074858743728615e-01  5.2826472927626700e-01  6.6193738624109144e-01  6.7324723590636082e-01  5.8862622580337820e-01  4.1290336407079015e-01  1.9403425260124285e-01  1.1954139304216497e-02  1.6224994244220159e-03  9.6929347029454298e-04  7.9761021014499638e-04  7.6363411031073376e-04  7.5868861382630780e-04  7.5724596844353720e-04  7.5637970002275987e-04  7.5565469436369732e-04  7.5489184679926259e-04  7.5403633663732514e-04  7.5311655304139194e-04  7.5217170087953046e-04  7.5122640159771311e-04  7.5029679257540842e-04  7.4939567942221698e-04  7.4853352455186723e-04  7.4771866663608311e-04  7.4695778247473629e-04  7.4625624224456549e-04  7.4561825561034385e-04  7.4504694735533564e-04  7.4454445088522529e-04  7.4411203451197044e-04  7.4375025240986509e-04  7.4345912162856304e-04  7.4323806613531729e-04  7.4308288317494718e-04  7.4292660661487040e-04  1.5399167265556586e-03  1.7430484245808649e-03  1.2121509776305993e-03  4.7670175813858245e-01  9.9868464675045510e-01  9.9941420122907043e-01  9.9954605488445458e-01  9.9956041803067497e-01  9.9951924203214848e-01  9.9941603833538650e-01  9.9921162393972585e-01  9.9858112716474889e-01  9.7909634375632193e-01  5.8079992069886821e-01  2.0730482476955303e-01  3.1421423685083806e-03  1.0561221857124498e-03  7.9956308264524209e-04  7.6245851260478125e-04  7.5752328061232663e-04  7.5634495043726843e-04  7.5553589838689655e-04  7.5459788179980307e-04  7.5360563691436583e-04  7.5261418651930952e-04  7.5163623533872634e-04  7.5068072248292645e-04  7.4975914945084353e-04  7.4888105629958843e-04  7.4805341160116509e-04  7.4728190606673035e-04  7.4657143034181808e-04  7.4592597459673799e-04  7.4534853030455521e-04  7.4484112414277884e-04  7.4440491877369465e-04  7.4404034303918892e-04  7.4374725606493608e-04  7.4352479922392214e-04  7.4336644859062187e-04  7.4316676932028062e-04  1.5401054094321166e-03  8.9325460913460192e-02  9.9907544720304353e-01  9.9976671936205252e-01  9.9984944854341151e-01  9.9986872713118669e-01  9.9987256496762988e-01  9.9986541438075738e-01  9.9984940846064829e-01  9.9982280046605554e-01  9.9977942137587572e-01  9.9970346687877709e-01  9.9955157415365525e-01  9.9922511043161999e-01  9.9757489385823173e-01  7.5360138326219428e-01  2.6338962467778876e-01  3.1214104620776524e-03  9.7938040089578593e-04  7.7870022785335251e-04  7.5978150854383330e-04  7.5685739426390494e-04  7.5536589845661816e-04  7.5420912005001554e-04  7.5316769172317148e-04  7.5215278490739252e-04  7.5116270320735789e-04  7.5021501784930226e-04  7.4931767244749590e-04  7.4847436715888723e-04  7.4768926318380586e-04  7.4696694249721759e-04  7.4631132405732084e-04  7.4572529859859142e-04  7.4521080279365745e-04  7.4476892850558214e-04  7.4440001172515144e-04  7.4410376310640595e-04  7.4387900464804033e-04  7.4371639270219450e-04  7.4346334356828199e-04  1.5403404716576078e-03  9.9989837151771033e-01  9.9994274305944431e-01  9.9995114606874824e-01  9.9995195482714916e-01  9.9994859923340396e-01  9.9994282634343246e-01  9.9993504616617013e-01  9.9992510772844889e-01  9.9991231450724050e-01  9.9989512213495757e-01  9.9987037285816160e-01  9.9983155892933329e-01  9.9976416630094589e-01  9.9962856661236632e-01  9.9930728291667070e-01  9.9755073715498843e-01  6.9555443433952457e-01  1.9633540395502355e-01  1.8183696490915572e-03  8.6564546785575366e-04  7.6634411582672264e-04  7.5701209678029769e-04  7.5499681195394101e-04  7.5387613147417129e-04  7.5278928224267435e-04  7.5174292377941225e-04  7.5076440530947696e-04  7.4984748854317043e-04  7.4898632268829307e-04  7.4818406007722048e-04  7.4744628232242230e-04  7.4677716269484957e-04  7.4617940419302977e-04  7.4565484263344154e-04  7.4520460426975648e-04  7.4482904621945537e-04  7.4452779210479726e-04  7.4429933263523015e-04  7.4413102752916513e-04  7.4381468273148667e-04  1.5406201926458740e-03  9.9997391473989816e-01  9.9998175379167753e-01  9.9997909244932393e-01  9.9997519133289292e-01  9.9997036990488108e-01  9.9996476351831531e-01  9.9995841960920784e-01  9.9995125496879322e-01  9.9994299924818941e-01  9.9993309829856147e-01  9.9992052421511168e-01  9.9990342264447496e-01  9.9987831771855507e-01  9.9983796924135637e-01  9.9976501526917716e-01  9.9960790407337796e-01  9.9919991670017316e-01  9.9714347141192661e-01  4.8174435763884671e-01  5.3320056052508932e-02  1.1251937657629032e-03  7.8522478304688466e-04  7.5854367963253306e-04  7.5516583386562653e-04  7.5358619315539640e-04  7.5240547476389653e-04  7.5140668831174910e-04  7.5047887605651298e-04  7.4959676548616539e-04  7.4877155906992020e-04  7.4801367578387456e-04  7.4732716358434539e-04  7.4671371088873262e-04  7.4617498244587829e-04  7.4571246621615058e-04  7.4532684493935908e-04  7.4501780665486037e-04  7.4478352862319692e-04  7.4460762434922314e-04  7.4421816143909717e-04  1.5409419492781232e-03  9.9998314443493352e-01  9.9998840773776110e-01  9.9998587258689553e-01  9.9998241777285468e-01  9.9997821878717807e-01  9.9997345370122326e-01  9.9996825598317429e-01  9.9996265691872765e-01  9.9995656672384325e-01  9.9994974513665580e-01  9.9994175013124409e-01  9.9993184459217843e-01  9.9991879815350937e-01  9.9990041793747231e-01  9.9987237193083034e-01  9.9982495315869024e-01  9.9973287830077551e-01  9.9950809597784229e-01  9.9885691541240873e-01  8.4590417121780648e-01  2.5721116952138967e-01  2.0237285334808708e-03  8.6586916492048982e-04  7.6391089651681383e-04  7.5509972935215806e-04  7.5316942590111877e-04  7.5217169524113619e-04  7.5123779837922111e-04  7.5031703795342699e-04  7.4945645574333371e-04  7.4867369396412135e-04  7.4796640485585162e-04  7.4733245868038010e-04  7.4677367493194079e-04  7.4629301207870162e-04  7.4589219706018702e-04  7.4557123486320191e-04  7.4532799809209536e-04  7.4514191766282057e-04  7.4466973041573603e-04  1.5413018356300360e-03  9.9998460210650297e-01  9.9998991093856193e-01  9.9998760889141614e-01  9.9998455231477201e-01  9.9998087278737313e-01  9.9997676845960870e-01  9.9997239748212718e-01  9.9996783475007744e-01  9.9996305994153034e-01  9.9995795053183756e-01  9.9995227460982894e-01  9.9994566694586628e-01  9.9993756890736418e-01  9.9992708923968865e-01  9.9991268894772167e-01  9.9989144750520642e-01  9.9985720190826688e-01  9.9979503721832230e-01  9.9966134946921081e-01  9.9928850103283684e-01  9.9471376083336260e-01  5.0011114147707481e-01  3.5794952396400626e-02  1.0653800242132814e-03  7.7605536276211006e-04  7.5574574739848376e-04  7.5340348122017280e-04  7.5221188868642677e-04  7.5115325283526689e-04  7.5023600255404600e-04  7.4943098130010220e-04  7.4870354379986503e-04  7.4804289800667161e-04  7.4745464238574176e-04  7.4694660779215868e-04  7.4652290019934270e-04  7.4618397816054538e-04  7.4592723964437451e-04  7.4572747407638162e-04  7.4516333858568571e-04  1.5416941700605868e-03  9.9998169853004304e-01  9.9998874852941499e-01  9.9998661271848810e-01  9.9998381255980184e-01  9.9998052716687746e-01  9.9997696979017836e-01  9.9997329013862390e-01  9.9996956174348128e-01  9.9996577837738276e-01  9.9996186005889465e-01  9.9995766062250091e-01  9.9995296512490695e-01  9.9994747025912023e-01  9.9994073386661386e-01  9.9993206643887989e-01  9.9992030429744472e-01  9.9990331439987501e-01  9.9987681097648495e-01  9.9983111722602702e-01  9.9974038019290734e-01  9.9951172532825383e-01  9.9874888763762881e-01  7.7102536132582400e-01  1.9463333691400131e-01  1.5553583089866763e-03  8.2279728290004888e-04  7.5969160340062325e-04  7.5389290519962255e-04  7.5210453361745206e-04  7.5109060118607807e-04  7.5029707715471852e-04  7.4955867106901014e-04  7.4885871219645614e-04  7.4822321679947411e-04  7.4767284595431800e-04  7.4721505219486136e-04  7.4684976238221590e-04  7.4657315704892318e-04  7.4635489830635418e-04  7.4569017763524963e-04  1.5421108542659377e-03  9.9996606806770794e-01  9.9998330995849216e-01  9.9998186053214233e-01  9.9997975969968200e-01  9.9997720049622518e-01  9.9997443094649974e-01  9.9997159900468036e-01  9.9996877123704675e-01  9.9996594436446851e-01  9.9996306032128734e-01  9.9996001766157117e-01  9.9995667590773829e-01  9.9995284975160115e-01  9.9994828803386748e-01  9.9994262905126263e-01  9.9993531454681461e-01  9.9992542352483293e-01  9.9991133154226230e-01  9.9988993162251172e-01  9.9985457470469907e-01  9.9978860179847373e-01  9.9964049931281251e-01  9.9919532633704167e-01  9.8467178326728266e-01  3.7884813205481427e-01  4.0467297837627446e-03  9.4287464797524747e-04  7.6652264870406763e-04  7.5388719252979393e-04  7.5209298544861767e-04  7.5134222222194766e-04  7.5058613949617202e-04  7.4980356083420650e-04  7.4908406599396324e-04  7.4846845547630464e-04  7.4796193026449305e-04  7.4755951880533112e-04  7.4725439917361055e-04  7.4701089569479892e-04  7.4623768932359394e-04  1.5425405362237041e-03  9.9975227206453143e-01  9.9995371063138949e-01  9.9996571514342703e-01  9.9996882604530890e-01  9.9996912448384379e-01  9.9996833001603902e-01  9.9996705446351875e-01  9.9996555115999441e-01  9.9996391339217761e-01  9.9996214867925759e-01  9.9996021287355230e-01  9.9995802651210641e-01  9.9995547894509618e-01  9.9995242158582343e-01  9.9994864882335122e-01  9.9994386168165406e-01  9.9993760305313173e-01  9.9992913776189141e-01  9.9991720760084490e-01  9.9989947150205782e-01  9.9987108770653643e-01  9.9982064742086807e-01  9.9971585845664845e-01  9.9942751693891951e-01  9.9798869073551100e-01  6.0886257732679783e-01  8.4919818408061995e-02  1.1625576029944348e-03  7.8288991018723314e-04  7.5538742483248651e-04  7.5304586599164703e-04  7.5192792034982478e-04  7.5090105686899302e-04  7.5003168156866258e-04  7.4932287615143891e-04  7.4875311361607630e-04  7.4830153447569367e-04  7.4795612402716672e-04  7.4767720785606838e-04  7.4678816112518911e-04  1.5429674364927867e-03  2.5566699299095787e-03  9.9944365418670322e-01  9.9988938263193239e-01  9.9993788137706363e-01  9.9995111141429838e-01  9.9995626760163192e-01  9.9995848470826321e-01  9.9995936149219722e-01  9.9995951651891057e-01  9.9995920923559334e-01  9.9995853955512515e-01  9.9995752576070707e-01  9.9995613693112739e-01  9.9995430401406482e-01  9.9995191773195280e-01  9.9994881537448344e-01  9.9994475426473861e-01  9.9993936326926280e-01  9.9993204989447892e-01  9.9992180959353150e-01  9.9990681001616621e-01  9.9988340653494412e-01  9.9984347959159736e-01  9.9976567464297572e-01  9.9957748430174165e-01  9.9897227023988588e-01  8.3414997852029238e-01  2.2411352913615831e-01  1.6508105000506072e-03  8.3552156160457435e-04  7.6031602050039243e-04  7.5409497605034360e-04  7.5217295482815194e-04  7.5103173126358515e-04  7.5021461459387029e-04  7.4957653004923926e-04  7.4906418652435436e-04  7.4866088665840116e-04  7.4832929956427101e-04  7.4731644860328824e-04  1.5433694682568211e-03  1.6614068900897990e-03  9.0667479958177630e-02  9.9939906961584613e-01  9.9983122635917032e-01  9.9990812838504339e-01  9.9993243123049036e-01  9.9994319906880902e-01  9.9994884187239408e-01  9.9995205573616719e-01  9.9995392059159827e-01  9.9995492295507316e-01  9.9995529137133943e-01  9.9995512618942417e-01  9.9995445443970488e-01  9.9995325219567599e-01  9.9995144994694563e-01  9.9994892616624842e-01  9.9994548830353092e-01  9.9994083423887969e-01  9.9993447755461173e-01  9.9992560037730061e-01  9.9991274648591555e-01  9.9989311514441537e-01  9.9986071847178148e-01  9.9980072996883584e-01  9.9966744895334836e-01  9.9925526452370594e-01  9.9060848541423774e-01  3.8627536441202254e-01  3.8141508438190208e-03  9.3984370690224398e-04  7.6637152176562437e-04  7.5421031186589092e-04  7.5208573314225870e-04  7.5112305819951685e-04  7.5043068782424912e-04  7.4984430613899854e-04  7.4935146125291291e-04  7.4893419539441260e-04  7.4778582011984221e-04  1.5437148452828136e-03  1.5699298769861628e-03  1.1689653965280679e-03  5.7747393023225768e-01  9.9931529160589694e-01  9.9978249608512393e-01  9.9988033341867899e-01  9.9991473549834620e-01  9.9993096567380035e-01  9.9993996171154853e-01  9.9994543302670835e-01  9.9994891617543802e-01  9.9995113229560917e-01  9.9995244478000955e-01  9.9995303948311831e-01  9.9995300260446207e-01  9.9995235514970071e-01  9.9995106589315652e-01  9.9994905070535989e-01  9.9994615919244567e-01  9.9994214437311268e-01  9.9993660398538808e-01  9.9992886656996427e-01  9.9991775642065184e-01  9.9990106574137361e-01  9.9987423648693141e-01  9.9982655176362722e-01  9.9972753727332697e-01  9.9945615249133168e-01  9.9826519889140541e-01  5.8369177943594408e-01  6.1443663938881066e-02  1.0982014179419649e-03  7.7687651885219766e-04  7.5435410993712011e-04  7.5218273584385308e-04  7.5136360077191617e-04  7.5066702061526882e-04  7.5001566087979743e-04  7.4944605302055124e-04  7.4814034230586324e-04  1.5439558925850767e-03  1.5521807595919102e-03  7.7256860571127970e-04  1.7854440993795443e-03  6.7098211176983491e-01  9.9922347692977331e-01  9.9973525273445141e-01  9.9985405274385841e-01  9.9989820625400772e-01  9.9991969501567235e-01  9.9993189513941905e-01  9.9993949409668104e-01  9.9994447782046159e-01  9.9994780133843519e-01  9.9994996358512733e-01  9.9995123600468783e-01  9.9995176313192224e-01  9.9995160912683889e-01  9.9995077805727850e-01  9.9994921857078123e-01  9.9994681588755674e-01  9.9994336894614222e-01  9.9993854420350470e-01  9.9993178539822891e-01  9.9992213047897971e-01  9.9990781255690264e-01  9.9988529777424695e-01  9.9984663475955737e-01  9.9977061892671615e-01  9.9958271065584670e-01  9.9890316350572794e-01  7.8445558584429764e-01  1.7406274107359831e-01  1.3264423807105190e-03  7.9677418461441651e-04  7.5538073773073961e-04  7.5271099021785570e-04  7.5163033506747158e-04  7.5065293415498859e-04  7.4979842978671639e-04  7.4829290345198197e-04  1.5440193095948649e-03  1.5413061539327410e-03  7.4683092520648920e-04  8.4764920722893271e-04  8.9779597085490326e-06  6.8843562059635799e-01  9.9907308301485875e-01  9.9968286397804462e-01  9.9982746821711799e-01  9.9988216172231925e-01  9.9990905867727919e-01  9.9992444474960052e-01  9.9993409785799603e-01  9.9994049381519778e-01  9.9994483922655053e-01  9.9994777557273273e-01  9.9994966165746535e-01  9.9995069952622662e-01  9.9995099425995670e-01  9.9995058209600096e-01  9.9994944066100855e-01  9.9994748609612449e-01  9.9994455650072156e-01  9.9994037560063009e-01  9.9993448107767513e-01  9.9992608058868870e-01  9.9991374298522639e-01  9.9989467135716992e-01  9.9986276646049010e-01  9.9980249356352524e-01  9.9966355938837859e-01  9.9919637436953423e-01  9.7300209758144385e-01  2.8716763071053675e-01  1.4163523178284182e-03  8.3083001361280127e-04  7.5747420616076289e-04  7.5313467307301890e-04  7.5130164743043414e-04  7.4989994868786519e-04  7.4811424325388429e-04  1.5437961355709861e-03  1.5405663295831110e-03  7.4501923494268334e-04  7.5156035355951442e-04  8.9376442556897136e-04  1.5590956216170734e-02  6.3377559956996166e-01  9.9883689295029598e-01  9.9961753724894087e-01  9.9979820429738753e-01  9.9986565655682202e-01  9.9989859650874635e-01  9.9991733429837526e-01  9.9992905025926226e-01  9.9993681778097898e-01  9.9994213412434418e-01  9.9994579699125186e-01  9.9994825634160012e-01  9.9994977158908027e-01  9.9995048710007450e-01  9.9995046914478514e-01  9.9994972189244524e-01  9.9994818931050478e-01  9.9994574401545122e-01  9.9994215895313110e-01  9.9993704978502951e-01  9.9992975885969115e-01  9.9991910947349283e-01  9.9990284028030763e-01  9.9987614429207128e-01  9.9982724549441715e-01  9.9972039418114722e-01  9.9939532726965641e-01  9.9693467009974424e-01  4.1538366077562194e-01  2.6934170225211026e-03  8.7243317711352603e-04  7.5870559574257553e-04  7.5225636793454587e-04  7.4968591110733502e-04  7.4744490784457100e-04  1.5431461893741056e-03  1.5419773697118173e-03  7.4621240017568957e-04  7.4942950928220909e-04  7.5671711093374631e-04  8.9553663065966571e-04  9.6681129850266969e-03  5.3911193281486469e-01  9.9839665915215303e-01  9.995277909