<?xml version="1.0"?>
<VTKFile type="UnstructuredGrid"  version="0.1"  >
<UnstructuredGrid>
<Piece  NumberOfPoints="1681" NumberOfCells="3200">
<Points>
<DataArray  type="Float64"  NumberOfComponents="3"  format="ascii">0 0 0  0.025 0 0  0.05 0 0  0.075 0 0  0.1 0 0  0.125 0 0  0.15 0 0  0.175 0 0  0.2 0 0  0.225 0 0  0.25 0 0  0.275 0 0  0.3 0 0  0.325 0 0  0.35 0 0  0.375 0 0  0.4 0 0  0.425 0 0  0.45 0 0  0.475 0 0  0.5 0 0  0.525 0 0  0.55 0 0  0.575 0 0  0.6 0 0  0.625 0 0  0.65 0 0  0.675 0 0  0.7 0 0  0.725 0 0  0.75 0 0  0.775 0 0  0.8 0 0  0.825 0 0  0.85 0 0  0.875 0 0  0.9 0 0  0.925 0 0  0.95 0 0  0.975 0 0  1 0 0  0 0.025 0  0.025 0.025 0  0.05 0.025 0  0.075 0.025 0  0.1 0.025 0  0.125 0.025 0  0.15 0.025 0  0.175 0.025 0  0.2 0.025 0  0.225 0.025 0  0.25 0.025 0  0.275 0.025 0  0.3 0.025 0  0.325 0.025 0  0.35 0.025 0  0.375 0.025 0  0.4 0.025 0  0.425 0.025 0  0.45 0.025 0  0.475 0.025 0  0.5 0.025 0  0.525 0.025 0  0.55 0.025 0  0.575 0.025 0  0.6 0.025 0  0.625 0.025 0  0.65 0.025 0  0.675 0.025 0  0.7 0.025 0  0.725 0.025 0  0.75 0.025 0  0.775 0.025 0  0.8 0.025 0  0.825 0.025 0  0.85 0.025 0  0.875 0.025 0  0.9 0.025 0  0.925 0.025 0  0.95 0.025 0  0.975 0.025 0  1 0.025 0  0 0.05 0  0.025 0.05 0  0.05 0.05 0  0.075 0.05 0  0.1 0.05 0  0.125 0.05 0  0.15 0.05 0  0.175 0.05 0  0.2 0.05 0  0.225 0.05 0  0.25 0.05 0  0.275 0.05 0  0.3 0.05 0  0.325 0.05 0  0.35 0.05 0  0.375 0.05 0  0.4 0.05 0  0.425 0.05 0  0.45 0.05 0  0.475 0.05 0  0.5 0.05 0  0.525 0.05 0  0.55 0.05 0  0.575 0.05 0  0.6 0.05 0  0.625 0.05 0  0.65 0.05 0  0.675 0.05 0  0.7 0.05 0  0.725 0.05 0  0.75 0.05 0  0.775 0.05 0  0.8 0.05 0  0.825 0.05 0  0.85 0.05 0  0.875 0.05 0  0.9 0.05 0  0.925 0.05 0  0.95 0.05 0  0.975 0.05 0  1 0.05 0  0 0.075 0  0.025 0.075 0  0.05 0.075 0  0.075 0.075 0  0.1 0.075 0  0.125 0.075 0  0.15 0.075 0  0.175 0.075 0  0.2 0.075 0  0.225 0.075 0  0.25 0.075 0  0.275 0.075 0  0.3 0.075 0  0.325 0.075 0  0.35 0.075 0  0.375 0.075 0  0.4 0.075 0  0.425 0.075 0  0.45 0.075 0  0.475 0.075 0  0.5 0.075 0  0.525 0.075 0  0.55 0.075 0  0.575 0.075 0  0.6 0.075 0  0.625 0.075 0  0.65 0.075 0  0.675 0.075 0  0.7 0.075 0  0.725 0.075 0  0.75 0.075 0  0.775 0.075 0  0.8 0.075 0  0.825 0.075 0  0.85 0.075 0  0.875 0.075 0  0.9 0.075 0  0.925 0.075 0  0.95 0.075 0  0.975 0.075 0  1 0.075 0  0 0.1 0  0.025 0.1 0  0.05 0.1 0  0.075 0.1 0  0.1 0.1 0  0.125 0.1 0  0.15 0.1 0  0.175 0.1 0  0.2 0.1 0  0.225 0.1 0  0.25 0.1 0  0.275 0.1 0  0.3 0.1 0  0.325 0.1 0  0.35 0.1 0  0.375 0.1 0  0.4 0.1 0  0.425 0.1 0  0.45 0.1 0  0.475 0.1 0  0.5 0.1 0  0.525 0.1 0  0.55 0.1 0  0.575 0.1 0  0.6 0.1 0  0.625 0.1 0  0.65 0.1 0  0.675 0.1 0  0.7 0.1 0  0.725 0.1 0  0.75 0.1 0  0.775 0.1 0  0.8 0.1 0  0.825 0.1 0  0.85 0.1 0  0.875 0.1 0  0.9 0.1 0  0.925 0.1 0  0.95 0.1 0  0.975 0.1 0  1 0.1 0  0 0.125 0  0.025 0.125 0  0.05 0.125 0  0.075 0.125 0  0.1 0.125 0  0.125 0.125 0  0.15 0.125 0  0.175 0.125 0  0.2 0.125 0  0.225 0.125 0  0.25 0.125 0  0.275 0.125 0  0.3 0.125 0  0.325 0.125 0  0.35 0.125 0  0.375 0.125 0  0.4 0.125 0  0.425 0.125 0  0.45 0.125 0  0.475 0.125 0  0.5 0.125 0  0.525 0.125 0  0.55 0.125 0  0.575 0.125 0  0.6 0.125 0  0.625 0.125 0  0.65 0.125 0  0.675 0.125 0  0.7 0.125 0  0.725 0.125 0  0.75 0.125 0  0.775 0.125 0  0.8 0.125 0  0.825 0.125 0  0.85 0.125 0  0.875 0.125 0  0.9 0.125 0  0.925 0.125 0  0.95 0.125 0  0.975 0.125 0  1 0.125 0  0 0.15 0  0.025 0.15 0  0.05 0.15 0  0.075 0.15 0  0.1 0.15 0  0.125 0.15 0  0.15 0.15 0  0.175 0.15 0  0.2 0.15 0  0.225 0.15 0  0.25 0.15 0  0.275 0.15 0  0.3 0.15 0  0.325 0.15 0  0.35 0.15 0  0.375 0.15 0  0.4 0.15 0  0.425 0.15 0  0.45 0.15 0  0.475 0.15 0  0.5 0.15 0  0.525 0.15 0  0.55 0.15 0  0.575 0.15 0  0.6 0.15 0  0.625 0.15 0  0.65 0.15 0  0.675 0.15 0  0.7 0.15 0  0.725 0.15 0  0.75 0.15 0  0.775 0.15 0  0.8 0.15 0  0.825 0.15 0  0.85 0.15 0  0.875 0.15 0  0.9 0.15 0  0.925 0.15 0  0.95 0.15 0  0.975 0.15 0  1 0.15 0  0 0.175 0  0.025 0.175 0  0.05 0.175 0  0.075 0.175 0  0.1 0.175 0  0.125 0.175 0  0.15 0.175 0  0.175 0.175 0  0.2 0.175 0  0.225 0.175 0  0.25 0.175 0  0.275 0.175 0  0.3 0.175 0  0.325 0.175 0  0.35 0.175 0  0.375 0.175 0  0.4 0.175 0  0.425 0.175 0  0.45 0.175 0  0.475 0.175 0  0.5 0.175 0  0.525 0.175 0  0.55 0.175 0  0.575 0.175 0  0.6 0.175 0  0.625 0.175 0  0.65 0.175 0  0.675 0.175 0  0.7 0.175 0  0.725 0.175 0  0.75 0.175 0  0.775 0.175 0  0.8 0.175 0  0.825 0.175 0  0.85 0.175 0  0.875 0.175 0  0.9 0.175 0  0.925 0.175 0  0.95 0.175 0  0.975 0.175 0  1 0.175 0  0 0.2 0  0.025 0.2 0  0.05 0.2 0  0.075 0.2 0  0.1 0.2 0  0.125 0.2 0  0.15 0.2 0  0.175 0.2 0  0.2 0.2 0  0.225 0.2 0  0.25 0.2 0  0.275 0.2 0  0.3 0.2 0  0.325 0.2 0  0.35 0.2 0  0.375 0.2 0  0.4 0.2 0  0.425 0.2 0  0.45 0.2 0  0.475 0.2 0  0.5 0.2 0  0.525 0.2 0  0.55 0.2 0  0.575 0.2 0  0.6 0.2 0  0.625 0.2 0  0.65 0.2 0  0.675 0.2 0  0.7 0.2 0  0.725 0.2 0  0.75 0.2 0  0.775 0.2 0  0.8 0.2 0  0.825 0.2 0  0.85 0.2 0  0.875 0.2 0  0.9 0.2 0  0.925 0.2 0  0.95 0.2 0  0.975 0.2 0  1 0.2 0  0 0.225 0  0.025 0.225 0  0.05 0.225 0  0.075 0.225 0  0.1 0.225 0  0.125 0.225 0  0.15 0.225 0  0.175 0.225 0  0.2 0.225 0  0.225 0.225 0  0.25 0.225 0  0.275 0.225 0  0.3 0.225 0  0.325 0.225 0  0.35 0.225 0  0.375 0.225 0  0.4 0.225 0  0.425 0.225 0  0.45 0.225 0  0.475 0.225 0  0.5 0.225 0  0.525 0.225 0  0.55 0.225 0  0.575 0.225 0  0.6 0.225 0  0.625 0.225 0  0.65 0.225 0  0.675 0.225 0  0.7 0.225 0  0.725 0.225 0  0.75 0.225 0  0.775 0.225 0  0.8 0.225 0  0.825 0.225 0  0.85 0.225 0  0.875 0.225 0  0.9 0.225 0  0.925 0.225 0  0.95 0.225 0  0.975 0.225 0  1 0.225 0  0 0.25 0  0.025 0.25 0  0.05 0.25 0  0.075 0.25 0  0.1 0.25 0  0.125 0.25 0  0.15 0.25 0  0.175 0.25 0  0.2 0.25 0  0.225 0.25 0  0.25 0.25 0  0.275 0.25 0  0.3 0.25 0  0.325 0.25 0  0.35 0.25 0  0.375 0.25 0  0.4 0.25 0  0.425 0.25 0  0.45 0.25 0  0.475 0.25 0  0.5 0.25 0  0.525 0.25 0  0.55 0.25 0  0.575 0.25 0  0.6 0.25 0  0.625 0.25 0  0.65 0.25 0  0.675 0.25 0  0.7 0.25 0  0.725 0.25 0  0.75 0.25 0  0.775 0.25 0  0.8 0.25 0  0.825 0.25 0  0.85 0.25 0  0.875 0.25 0  0.9 0.25 0  0.925 0.25 0  0.95 0.25 0  0.975 0.25 0  1 0.25 0  0 0.275 0  0.025 0.275 0  0.05 0.275 0  0.075 0.275 0  0.1 0.275 0  0.125 0.275 0  0.15 0.275 0  0.175 0.275 0  0.2 0.275 0  0.225 0.275 0  0.25 0.275 0  0.275 0.275 0  0.3 0.275 0  0.325 0.275 0  0.35 0.275 0  0.375 0.275 0  0.4 0.275 0  0.425 0.275 0  0.45 0.275 0  0.475 0.275 0  0.5 0.275 0  0.525 0.275 0  0.55 0.275 0  0.575 0.275 0  0.6 0.275 0  0.625 0.275 0  0.65 0.275 0  0.675 0.275 0  0.7 0.275 0  0.725 0.275 0  0.75 0.275 0  0.775 0.275 0  0.8 0.275 0  0.825 0.275 0  0.85 0.275 0  0.875 0.275 0  0.9 0.275 0  0.925 0.275 0  0.95 0.275 0  0.975 0.275 0  1 0.275 0  0 0.3 0  0.025 0.3 0  0.05 0.3 0  0.075 0.3 0  0.1 0.3 0  0.125 0.3 0  0.15 0.3 0  0.175 0.3 0  0.2 0.3 0  0.225 0.3 0  0.25 0.3 0  0.275 0.3 0  0.3 0.3 0  0.325 0.3 0  0.35 0.3 0  0.375 0.3 0  0.4 0.3 0  0.425 0.3 0  0.45 0.3 0  0.475 0.3 0  0.5 0.3 0  0.525 0.3 0  0.55 0.3 0  0.575 0.3 0  0.6 0.3 0  0.625 0.3 0  0.65 0.3 0  0.675 0.3 0  0.7 0.3 0  0.725 0.3 0  0.75 0.3 0  0.775 0.3 0  0.8 0.3 0  0.825 0.3 0  0.85 0.3 0  0.875 0.3 0  0.9 0.3 0  0.925 0.3 0  0.95 0.3 0  0.975 0.3 0  1 0.3 0  0 0.325 0  0.025 0.325 0  0.05 0.325 0  0.075 0.325 0  0.1 0.325 0  0.125 0.325 0  0.15 0.325 0  0.175 0.325 0  0.2 0.325 0  0.225 0.325 0  0.25 0.325 0  0.275 0.325 0  0.3 0.325 0  0.325 0.325 0  0.35 0.325 0  0.375 0.325 0  0.4 0.325 0  0.425 0.325 0  0.45 0.325 0  0.475 0.325 0  0.5 0.325 0  0.525 0.325 0  0.55 0.325 0  0.575 0.325 0  0.6 0.325 0  0.625 0.325 0  0.65 0.325 0  0.675 0.325 0  0.7 0.325 0  0.725 0.325 0  0.75 0.325 0  0.775 0.325 0  0.8 0.325 0  0.825 0.325 0  0.85 0.325 0  0.875 0.325 0  0.9 0.325 0  0.925 0.325 0  0.95 0.325 0  0.975 0.325 0  1 0.325 0  0 0.35 0  0.025 0.35 0  0.05 0.35 0  0.075 0.35 0  0.1 0.35 0  0.125 0.35 0  0.15 0.35 0  0.175 0.35 0  0.2 0.35 0  0.225 0.35 0  0.25 0.35 0  0.275 0.35 0  0.3 0.35 0  0.325 0.35 0  0.35 0.35 0  0.375 0.35 0  0.4 0.35 0  0.425 0.35 0  0.45 0.35 0  0.475 0.35 0  0.5 0.35 0  0.525 0.35 0  0.55 0.35 0  0.575 0.35 0  0.6 0.35 0  0.625 0.35 0  0.65 0.35 0  0.675 0.35 0  0.7 0.35 0  0.725 0.35 0  0.75 0.35 0  0.775 0.35 0  0.8 0.35 0  0.825 0.35 0  0.85 0.35 0  0.875 0.35 0  0.9 0.35 0  0.925 0.35 0  0.95 0.35 0  0.975 0.35 0  1 0.35 0  0 0.375 0  0.025 0.375 0  0.05 0.375 0  0.075 0.375 0  0.1 0.375 0  0.125 0.375 0  0.15 0.375 0  0.175 0.375 0  0.2 0.375 0  0.225 0.375 0  0.25 0.375 0  0.275 0.375 0  0.3 0.375 0  0.325 0.375 0  0.35 0.375 0  0.375 0.375 0  0.4 0.375 0  0.425 0.375 0  0.45 0.375 0  0.475 0.375 0  0.5 0.375 0  0.525 0.375 0  0.55 0.375 0  0.575 0.375 0  0.6 0.375 0  0.625 0.375 0  0.65 0.375 0  0.675 0.375 0  0.7 0.375 0  0.725 0.375 0  0.75 0.375 0  0.775 0.375 0  0.8 0.375 0  0.825 0.375 0  0.85 0.375 0  0.875 0.375 0  0.9 0.375 0  0.925 0.375 0  0.95 0.375 0  0.975 0.375 0  1 0.375 0  0 0.4 0  0.025 0.4 0  0.05 0.4 0  0.075 0.4 0  0.1 0.4 0  0.125 0.4 0  0.15 0.4 0  0.175 0.4 0  0.2 0.4 0  0.225 0.4 0  0.25 0.4 0  0.275 0.4 0  0.3 0.4 0  0.325 0.4 0  0.35 0.4 0  0.375 0.4 0  0.4 0.4 0  0.425 0.4 0  0.45 0.4 0  0.475 0.4 0  0.5 0.4 0  0.525 0.4 0  0.55 0.4 0  0.575 0.4 0  0.6 0.4 0  0.625 0.4 0  0.65 0.4 0  0.675 0.4 0  0.7 0.4 0  0.725 0.4 0  0.75 0.4 0  0.775 0.4 0  0.8 0.4 0  0.825 0.4 0  0.85 0.4 0  0.875 0.4 0  0.9 0.4 0  0.925 0.4 0  0.95 0.4 0  0.975 0.4 0  1 0.4 0  0 0.425 0  0.025 0.425 0  0.05 0.425 0  0.075 0.425 0  0.1 0.425 0  0.125 0.425 0  0.15 0.425 0  0.175 0.425 0  0.2 0.425 0  0.225 0.425 0  0.25 0.425 0  0.275 0.425 0  0.3 0.425 0  0.325 0.425 0  0.35 0.425 0  0.375 0.425 0  0.4 0.425 0  0.425 0.425 0  0.45 0.425 0  0.475 0.425 0  0.5 0.425 0  0.525 0.425 0  0.55 0.425 0  0.575 0.425 0  0.6 0.425 0  0.625 0.425 0  0.65 0.425 0  0.675 0.425 0  0.7 0.425 0  0.725 0.425 0  0.75 0.425 0  0.775 0.425 0  0.8 0.425 0  0.825 0.425 0  0.85 0.425 0  0.875 0.425 0  0.9 0.425 0  0.925 0.425 0  0.95 0.425 0  0.975 0.425 0  1 0.425 0  0 0.45 0  0.02
[...]
<PointData  Scalars="ControlVisualisation"> 
<DataArray  type="Float64"  Name="ControlVisualisation"  format="ascii">3.7226684502069479e-01  3.5420867100008369e-01  3.5426847025351427e-01  3.5448929121114542e-01  3.5485664809410195e-01  3.5529664212584305e-01  3.5573046908284878e-01  3.5610161053381612e-01  3.5638243177258599e-01  3.5656830933837025e-01  3.5666833948008320e-01  3.5669753398140541e-01  3.5667186768177922e-01  3.5660575292919378e-01  3.5651108974804480e-01  3.5639717477009297e-01  3.5627100026802411e-01  3.5613768073601160e-01  3.5600087825963267e-01  3.5586317329035283e-01  3.5572636658710216e-01  3.5559171526753869e-01  3.5546011273153871e-01  3.5533222312668905e-01  3.5520858009161205e-01  3.5508965754407801e-01  3.5497591869542000e-01  3.5486784765008128e-01  3.5476596687240058e-01  3.5467084293026069e-01  3.5458308233507746e-01  3.5450331915841016e-01  3.5443219644588397e-01  3.5437034487958252e-01  3.5431836624048441e-01  3.5427684132204096e-01  3.5424638155442767e-01  3.5422761446836426e-01  3.5422039938535532e-01  3.5422081692219787e-01  3.9053842407635103e-01  3.5420612645129324e-01  3.0172959374778385e-01  3.0283128637950324e-01  3.0529266177352166e-01  3.0903083070016674e-01  3.1342346917914216e-01  3.1775387151878798e-01  3.2149462930823114e-01  3.2437593306024981e-01  3.2633911536082671e-01  3.2745643374550032e-01  3.2786118862297087e-01  3.2770142909940875e-01  3.2711483940781472e-01  3.2621809050016998e-01  3.2510454119794729e-01  3.2384605866605237e-01  3.2249644938386235e-01  3.2109517842961688e-01  3.1967077090232432e-01  3.1824367822968458e-01  3.1682858343211096e-01  3.1543620145839196e-01  3.1407465650541122e-01  3.1275051640032231e-01  3.1146955396954451e-01  3.1023728954480745e-01  3.0905935697337922e-01  3.0794172380469526e-01  3.0689078828526845e-01  3.0591337169524130e-01  3.0501662208783586e-01  3.0420784864712974e-01  3.0349431430512969e-01  3.0288303702304342e-01  3.0238067856672740e-01  3.0199343867450007e-01  3.0172602687334854e-01  3.0157567929855078e-01  3.0151992618562812e-01  3.5422081571372838e-01  3.5424384260910824e-01  3.0283510776826439e-01  3.0655931384338075e-01  3.1259030196386944e-01  3.2073642205663061e-01  3.2986980638776814e-01  3.3864268339303510e-01  3.4609104235842986e-01  3.5175321445158952e-01  3.5555907949954790e-01  3.5767210680451644e-01  3.5836158142689489e-01  3.5792018300211326e-01  3.5661931716544426e-01  3.5468987098091198e-01  3.5231783517881499e-01  3.4964749288317226e-01  3.4678773209394470e-01  3.4381905126499951e-01  3.4080008377972515e-01  3.3777318118730293e-01  3.3476896352838997e-01  3.3180991521187253e-01  3.2891316487695937e-01  3.2609259425178383e-01  3.2336040480116157e-01  3.2072824687414059e-01  3.1820799124520910e-01  3.1581220370585916e-01  3.1355436742633014e-01  3.1144888951247168e-01  3.0951092431494659e-01  3.0775604919505722e-01  3.0619983450350158e-01  3.0485734383107665e-01  3.0374246009395878e-01  3.0286627163273067e-01  3.0223142478879478e-01  3.0181639469954996e-01  3.0157570134178591e-01  3.5422037780664928e-01  3.5441325954707603e-01  3.0564791493184540e-01  3.1394539354561246e-01  3.2372203757676005e-01  3.3467471261948761e-01  3.4580755294326604e-01  3.5583285048089092e-01  3.6391064020090241e-01  3.6973088206969179e-01  3.7335679408347727e-01  3.7505212172598179e-01  3.7515815447988388e-01  3.7401968358226151e-01  3.7194670334434282e-01  3.6919906726702856e-01  3.6598445951258141e-01  3.6246316373627241e-01  3.5875559226587922e-01  3.5495030692279361e-01  3.5111140670984226e-01  3.4728483564844326e-01  3.4350352850520310e-01  3.3979148324520297e-01  3.3616691559137241e-01  3.3264465481720307e-01  3.2923792421785436e-01  3.2595962254039962e-01  3.2282319553526689e-01  3.1984316455049738e-01  3.1703536187139453e-01  3.1441691314062781e-01  3.1200600191914080e-01  3.0982144828338232e-01  3.0788211441412422e-01  3.0620604600570606e-01  3.0480879305619690e-01  3.0369874739050184e-01  3.0286294721140872e-01  3.0223549928684834e-01  3.0172713442535598e-01  3.5422754310001853e-01  3.5475270223212413e-01  3.1117091615469034e-01  3.2864527275002403e-01  3.4381511735302245e-01  3.5647733150499100e-01  3.6702164830713124e-01  3.7530466094948400e-01  3.8121973387500790e-01  3.8487806801705010e-01  3.8654509803723103e-01  3.8655298215115119e-01  3.8524151912310189e-01  3.8292400577686025e-01  3.7987052133992671e-01  3.7630264287326420e-01  3.7239519131327292e-01  3.6828173022830191e-01  3.6406155380458510e-01  3.5980676915496013e-01  3.5556873483873863e-01  3.5138355217105616e-01  3.4727655804710794e-01  3.4326589671217161e-01  3.3936529807754956e-01  3.3558619546139712e-01  3.3193930076324685e-01  3.2843573440705526e-01  3.2508778269341404e-01  3.2190933748230016e-01  3.1891605695919578e-01  3.1612527941979696e-01  3.1355571440517827e-01  3.1122692330863000e-01  3.0915854252762504e-01  3.0736896156457677e-01  3.0587224860690215e-01  3.0466912117125450e-01  3.0371996467302875e-01  3.0288663054695714e-01  3.0199994169890215e-01  3.5424639418852100e-01  3.5527596066566325e-01  3.2434227372829977e-01  3.5989813837957069e-01  3.8230202295320936e-01  3.9358527304071922e-01  3.9925258807769448e-01  4.0188712477695909e-01  4.0255654607985042e-01  4.0177951970979991e-01  3.9987842505958859e-01  3.9709891951697041e-01  3.9364875292687707e-01  3.8970787861053580e-01  3.8542942262271429e-01  3.8093930954537225e-01  3.7633721452955071e-01  3.7169909850734406e-01  3.6708075930231193e-01  3.6252174439236634e-01  3.5804914356863732e-01  3.5368099055343316e-01  3.4942915884090647e-01  3.4530174035536859e-01  3.4130494578041409e-01  3.3744458293144652e-01  3.3372717191145762e-01  3.3016074505052834e-01  3.2675536954777140e-01  3.2352341813709001e-01  3.2047960490434890e-01  3.1764079890893987e-01  3.1502562085142455e-01  3.1265380484157596e-01  3.1054520112890976e-01  3.0871788119420179e-01  3.0718327367061021e-01  3.0593127595343117e-01  3.0488533291533571e-01  3.0380528484892383e-01  3.0240289700416645e-01  3.5427748770635514e-01  3.6487178053822272e-01  3.6961817616549214e-01  4.3193869501753129e-01  4.5390694331363501e-01  4.5399130151822409e-01  4.4668832267807235e-01  4.3792342001929657e-01  4.2954613251999529e-01  4.2189796739591590e-01  4.1488572547372082e-01  4.0834711904208953e-01  4.0215242815072594e-01  3.9621917363413223e-01  3.9050187200054692e-01  3.8497828089104963e-01  3.7963851067149057e-01  3.7447796840885827e-01  3.6949343836129206e-01  3.6468130640522856e-01  3.6003709298270964e-01  3.5555570391445751e-01  3.5123201969497259e-01  3.4706159980262674e-01  3.4304137595469181e-01  3.3917026736126554e-01  3.3544968360663657e-01  3.3188389380723293e-01  3.2848024824997962e-01  3.2524923922848586e-01  3.2220438656901806e-01  3.1936193536923735e-01  3.1674034572128901e-01  3.1435951924398320e-01  3.1223954255709313e-01  3.1039808841348487e-01  3.0884327173422649e-01  3.0755114039717174e-01  3.0639731548258703e-01  3.0500899597205772e-01  3.0294012363733996e-01  3.5432087028315695e-01  4.8191603652257564e-01  5.3538176562875017e-01  5.7567950505991461e-01  5.6792244949074577e-01  5.4051123500390552e-01  5.0971726034558418e-01  4.8295439829634124e-01  4.6161598256700553e-01  4.4484249540434739e-01  4.3143317135633280e-01  4.2040096052349657e-01  4.1104140423500873e-01  4.0287700792612335e-01  3.9558934790659794e-01  3.8896565864087429e-01  3.8286174720345967e-01  3.7717758835980647e-01  3.7184172176014574e-01  3.6680146652988344e-01  3.6201688562350015e-01  3.5745712673508134e-01  3.5309825150435320e-01  3.4892198574582911e-01  3.4491502942859448e-01  3.4106869658148031e-01  3.3737873403227747e-01  3.3384521605273432e-01  3.3047244006001714e-01  3.2726876543692907e-01  3.2424634517207490e-01  3.2142070799710348e-01  3.1881014085171155e-01  3.1643477051708907e-01  3.1431500324086670e-01  3.1246805341310502e-01  3.1089793145397349e-01  3.0956340676210886e-01  3.0828069440670153e-01  3.0651294387414835e-01  3.0361704821536067e-01  3.5437685768516008e-01  7.0759907069428751e-01  7.8855133685920853e-01  7.4565370919830920e-01  7.0057837957486258e-01  6.4110477703902102e-01  5.8153488109280438e-01  5.3275732073102711e-01  4.9603964621012303e-01  4.6885294185091947e-01  4.4840868590612176e-01  4.3258577572951001e-01  4.1993498937351204e-01  4.0949633089571258e-01  4.0063497181463231e-01  3.9292651317171279e-01  3.8608239317684045e-01  3.7990243128067974e-01  3.7424472809784581e-01  3.6900650484731135e-01  3.6411184952233738e-01  3.5950384650655831e-01  3.5513950884503170e-01  3.5098651524116165e-01  3.4702111317607298e-01  3.4322677622569769e-01  3.3959334063117180e-01  3.3611643175859768e-01  3.3279704549110306e-01  3.2964117895707878e-01  3.2665942538410159e-01  3.2386645764857941e-01  3.2128031604529605e-01  3.1892134182062748e-01  3.1681026049555150e-01  3.1496363614305556e-01  3.1338033140383187e-01  3.1199794301147699e-01  3.1056093954211705e-01  3.0833571787130259e-01  3.0444149050753244e-01  3.5444605440941701e-01  7.9872118629260047e-01  8.8201918744783736e-01  8.4265321589466602e-01  8.0262165727264734e-01  7.2983225223545312e-01  6.4833832178148343e-01  5.7961925711245388e-01  5.2829908357715982e-01  4.9119217858458752e-01  4.6411255548207270e-01  4.4382748440679609e-01  4.2814706623026638e-01  4.1563700847007595e-01  4.0535720107480339e-01  3.9668269834334252e-01  3.8919010863878462e-01  3.8258666459232882e-01  3.7666573677004617e-01  3.7127860993858153e-01  3.6631634896746057e-01  3.6169801728646256e-01  3.5736295071938035e-01  3.5326566246876567e-01  3.4937247187164278e-01  3.4565927504965865e-01  3.4211006922640086e-01  3.3871596481501004e-01  3.3547449613116492e-01  3.3238908306002118e-01  3.2946852551256883e-01  3.2672642228457810e-01  3.2418039106830088e-01  3.2185085889774195e-01  3.1975873352686912e-01  3.1791955410433292e-01  3.1632569794283855e-01  3.1488916635309877e-01  3.1326936365777169e-01  3.1050133293796151e-01  3.0542393156812508e-01  3.5452931310418617e-01  8.1728604059986953e-01  9.0520836270531813e-01  8.7951598651962215e-01  8.5283882961968627e-01  7.8459183554254308e-01  6.9545996071439353e-01  6.1480643499620968e-01  5.5327965662437184e-01  5.0881206815126501e-01  4.7667474755325578e-01  4.5294281159249422e-01  4.3490676283275559e-01  4.2078361371083772e-01  4.0940343395517659e-01  3.9998802131877637e-01  3.9200972333249601e-01  3.8510338407054689e-01  3.7901119212281281e-01  3.7354767117242826e-01  3.6857711147962530e-01  3.6399881372153059e-01  3.5973732478360021e-01  3.5573592356739425e-01  3.5195225334678953e-01  3.4835539387890252e-01  3.4492390333783368e-01  3.4164450829515669e-01  3.3851121411483920e-01  3.3552465665024533e-01  3.3269154938423012e-01  3.3002408740315459e-01  3.2753914156819347e-01  3.2525692358676400e-01  3.2319819102944775e-01  3.2137683960684466e-01  3.1977705126896838e-01  3.1828013088772450e-01  3.1644580315128801e-01  3.1304065565469136e-01  3.0657792888103513e-01  3.5462774838760963e-01  7.9220923918735120e-01  8.8774768310416807e-01  8.7077197434901998e-01  8.5569668363056384e-01  7.9859155351474664e-01  7.1417141507233362e-01  6.3193077187154922e-01  5.6693922410251352e-01  5.1921599019878661e-01  4.8452785940341159e-01  4.5891714375864545e-01  4.3953475288153671e-01  4.2446629953323212e-01  4.1243886562649679e-01  4.0259735630289983e-01  3.9435728689836613e-01  3.8731139822028593e-01  3.8117048982335716e-01  3.7572550164777679e-01  3.7082284685617367e-01  3.6634812869834332e-01  3.6221525664034671e-01  3.5835910546974292e-01  3.5473053930133031e-01  3.5129304038348730e-01  3.4802044003968829e-01  3.4489540481991571e-01  3.4190843182847858e-01  3.3905716059347252e-01  3.3634583597849294e-01  3.3378475930339030e-01  3.3138951368970859e-01  3.2917953586924287e-01  3.2717480626680184e-01  3.2538660104755363e-01  3.2378867287253105e-01  3.2222560813152867e-01  3.2014113714325593e-01  3.1599314552469021e-01  3.0792082762833800e-01  3.5474279160223959e-01  6.7733513970770831e-01  8.2462382744672880e-01  8.1196645450749294e-01  8.1712694972265110e-01  7.7536457787435964e-01  7.0366560905097142e-01  6.2909141146711478e-01  5.6761737048965710e-01  5.2118559861181979e-01  4.8680923449869862e-01  4.6113467713033046e-01  4.4158190657310570e-01  4.2634927793509136e-01  4.1420629347838078e-01  4.0430923448625039e-01  3.9607174949602469e-01  3.8907960419409121e-01  3.8303519752388754e-01  3.7772124261230977e-01  3.7297671105499564e-01  3.6868069591431718e-01  3.6474146233822696e-01  3.6108895587967210e-01  3.5766965592880046e-01  3.5444304666788157e-01  3.5137922275209654e-01  3.4845729497709543e-01  3.4566435608734430e-01  3.4299481845518798e-01  3.4044995413202161e-01  3.3803745787930634e-01  3.3577077049813125e-01  3.3366760493770858e-01  3.3174608071405448e-01  3.3001332430031405e-01  3.2842964840780248e-01  3.2679562028522302e-01  3.2442045400137337e-01  3.1940921008376499e-01  3.0947477279164576e-01  3.5487627385765547e-01  4.3901166476760778e-01  6.4293243882611140e-01  7.1526524238750944e-01  7.4602582225263814e-01  7.2355624645085181e-01  6.6960094698181050e-01  6.0900016376308996e-01  5.5639491690023224e-01  5.1506238246560543e-01  4.8354624586034328e-01  4.5949756182427542e-01  4.4090720556962787e-01  4.2628341087726856e-01  4.1456288755433285e-01  4.0499240524843438e-01  3.9703467549435145e-01  3.9030191775923601e-01  3.8451050967466044e-01  3.7945020122973422e-01  3.7496311031168478e-01  3.7092927152552824e-01  3.6725660920696074e-01  3.6387393559719944e-01  3.6072605000662189e-01  3.5777032086999067e-01  3.5497433650362803e-01  3.5231433402903950e-01  3.4977419972493468e-01  3.4734487508812462e-01  3.4502401335621868e-01  3.4281570338791695e-01  3.4072995347178414e-01  3.3878122747394729e-01  3.3698399025215720e-01  3.3533881253457015e-01  3.3378837174655168e-01  3.3208010481562489e-01  3.2936731462345731e-01  3.2335339401062907e-01  3.1126807717268740e-01  3.5503053826203262e-01  3.6559948418760863e-01  4.5469382513462009e-01  6.0613138463070215e-01  6.5976632165446025e-01  6.5638472470395859e-01  6.2172722738029229e-01  5.7753170331810111e-01  5.3645249657895944e-01  5.0249123519616623e-01  4.7556442279701061e-01  4.5440091499226304e-01  4.3767860209816922e-01  4.2431616084033624e-01  4.1349242632005428e-01  4.0459768991511352e-01  3.9718076498892413e-01  3.9090621552260635e-01  3.8552263932746239e-01  3.8083981902136066e-01  3.7671239482707924e-01  3.7302819539958854e-01  3.6969987243313029e-01  3.6665888522214812e-01  3.6385117444056164e-01  3.6123406587184242e-01  3.5877409047389436e-01  3.5644549922103119e-01  3.5422931674011277e-01  3.5211280975282133e-01  3.5008924792647139e-01  3.4815778950221721e-01  3.4632315283090270e-01  3.4459420092183884e-01  3.4297885719823112e-01  3.4146733579461930e-01  3.3997863526670574e-01  3.3819532012224340e-01  3.3508960522002174e-01  3.2790870881151390e-01  3.1333705413786284e-01  3.5520858823715418e-01  3.6081720511938481e-01  3.9390019685789179e-01  5.2128767486544780e-01  5.8001429151914297e-01  5.8914770657032622e-01  5.7058881455296151e-01  5.4141093324552192e-01  5.1180185053185434e-01  4.8578501100089388e-01  4.6417992003662112e-01  4.4658590635307321e-01  4.3230444317946420e-01  4.2066136261282683e-01  4.1109385487020106e-01  4.0315564322019837e-01  3.9649974878210553e-01  3.9085798606631672e-01  3.8602295757741545e-01  3.8183365116806373e-01  3.7816435033506296e-01  3.7491623332173019e-01  3.7201105266507717e-01  3.6938639113898925e-01  3.6699210794801201e-01  3.6478768830909103e-01  3.6274029277908842e-01  3.6082336113677133e-01  3.5901567393803380e-01  3.5730080059895925e-01  3.5566686054221164e-01  3.5410647177923510e-01  3.5261653739616361e-01  3.5119683591793688e-01  3.4984421697546536e-01  3.4853251665428203e-01  3.4714805579275693e-01  3.4529282180054788e-01  3.4172769221788679e-01  3.3318255830824312e-01  3.1572847780934604e-01  3.5541428255961643e-01  3.5996624925059822e-01  3.7351909908611625e-01  4.6959839186336899e-01  5.1901158771973732e-01  5.3207357883471651e-01  5.2381649664917984e-01  5.0601934801920967e-01  4.8601312730031188e-01  4.6722476694604281e-01  4.5082195151653992e-01  4.3693729897557704e-01  4.2532551670868574e-01  4.1564233543285767e-01  4.0755219001510035e-01  4.0076265318571680e-01  3.9503077371514894e-01  3.9015915672288110e-01  3.8598909137545495e-01  3.8239348965334552e-01  3.7927061724821304e-01  3.7653885353518191e-01  3.7413243641393384e-01  3.7199805128260371e-01  3.7009210902634992e-01  3.6837857462592855e-01  3.6682723875438178e-01  3.6541235161332331e-01  3.6411157385755372e-01  3.6290522012345133e-01  3.6177578090467022e-01  3.6070765299925789e-01  3.5968675708526338e-01  3.5869888297126790e-01  3.5772287796724350e-01  3.5670662671690589e-01  3.5548992534847662e-01  3.5357228595416335e-01  3.4946599918641513e-01  3.3931495701292552e-01  3.1850289875761506e-01  3.5565258983223652e-01  3.5902384860470499e-01  3.5974384199543397e-01  4.3504492702154640e-01  4.7456447874794594e-01  4.8730118189370025e-01  4.8459339396659473e-01  4.7435319456961728e-01  4.6149306445155269e-01  4.4858287296865834e-01  4.3673231764373494e-01  4.2630040403025571e-01  4.1730561661737814e-01  4.0962746701679131e-01  4.0310135872404679e-01  3.9756020122463331e-01  3.9285152480732299e-01  3.8884309673333778e-01  3.8542337044049180e-01  3.8249974206509646e-01  3.7999604324206915e-01  3.7784992494270525e-01  3.7601040714350614e-01  3.7443568279818645e-01  3.7309117508773842e-01  3.7194781035350127e-01  3.7098045781463818e-01  3.7016649230792098e-01  3.6948445312786976e-01  3.6891279632852225e-01  3.6842875849044021e-01  3.6800731020132582e-01  3.6761994138611648e-01  3.6723201180515952e-01  3.6679408601751284e-01  3.6621295917466934e-01  3.6526005364072545e-01  3.6330031380408523e-01  3.5854991169765837e-01  3.4649011713014177e-01  3.2173910769586161e-01  3.5592991340203922e-01  3.5826952114846033e-01  3.4987664965773146e-01  4.1083532043743259e-01  4.4210812652571285e-01  4.5301210216708054e-01  4.5295245799961964e-01  4.4735811327307673e-01  4.3944357071832096e-01  4.3097210840212841e-01  4.2281706309712808e-01  4.1536538816110768e-01  4.0874958908149778e-01  4.0297518744829669e-01  3.9798859896928196e-01  3.9371263490311925e-01  3.9006497222325526e-01  3.8696728313747991e-01  3.8434933183424841e-01  3.8215035998947761e-01  3.8031906070882315e-01  3.7881285057067299e-01  3.7759681487187069e-01  3.7664250857814524e-01  3.7592668362023790e-01  3.7542994659578793e-01  3.7513531248413279e-01  3.7502659948722072e-01  3.7508660397585464e-01  3.7529500801067012e-01  3.7562598783592938e-01  3.7604547961862478e-01  3.7650783630407203e-01  3.7695044785100884e-01  3.7728125746415003e-01  3.7734250632937133e-01  3.7680162046370524e-01  3.7483894546427221e-01  3.6931110552636365e-01  3.5495312889162006e-01  3.2554019352357733e-01  3.5625449568278222e-01  3.5762973540227128e-01  3.4192212543860717e-01  3.9209563299984124e-01  4.1733107183952722e-01  4.2649005778994892e-01  4.2763632690488768e-01  4.2482316391797709e-01  4.2020508768932219e-01  4.1493730381765587e-01  4.0963727493021268e-01  4.0462665775436468e-01  4.0006003638367599e-01  3.9599766730092506e-01  3.9244706689793596e-01  3.8938781727676358e-01  3.8678644898429504e-01  3.8460522325777946e-01  3.8280716316864338e-01  3.8135876408448827e-01  3.8023129073574552e-01  3.7940121922019648e-01  3.7885015374509512e-01  3.7856439626820643e-01  3.7853424195663238e-01  3.7875299807900686e-01  3.7921566099159582e-01  3.7991713214773221e-01  3.8084980764171261e-01  3.8200033577104103e-01  3.8334530138054107e-01  3.8484555386830865e-01  3.8643857304740464e-01  3.8802711609591495e-01  3.8945838205226735e-01  3.9047417549873142e-01  3.9057925349089495e-01  3.8868846041468863e-01  3.8220781998507292e-01  3.6503587421745382e-01  3.3004170496343305e-01  3.5663682394114904e-01  3.5708990066723406e-01  3.3542148708870989e-01  3.7719702418531570e-01  3.9789647898339547e-01  4.0556473428267675e-01  4.0723278214120456e-01  4.0609673496099058e-01  4.0364881835250627e-01  4.006397621