<?xml version="1.0"?>
<VTKFile type="UnstructuredGrid"  version="0.1"  >
<UnstructuredGrid>
<Piece  NumberOfPoints="1681" NumberOfCells="3200">
<Points>
<DataArray  type="Float64"  NumberOfComponents="3"  format="ascii">0 0 0  0.025 0 0  0.05 0 0  0.075 0 0  0.1 0 0  0.125 0 0  0.15 0 0  0.175 0 0  0.2 0 0  0.225 0 0  0.25 0 0  0.275 0 0  0.3 0 0  0.325 0 0  0.35 0 0  0.375 0 0  0.4 0 0  0.425 0 0  0.45 0 0  0.475 0 0  0.5 0 0  0.525 0 0  0.55 0 0  0.575 0 0  0.6 0 0  0.625 0 0  0.65 0 0  0.675 0 0  0.7 0 0  0.725 0 0  0.75 0 0  0.775 0 0  0.8 0 0  0.825 0 0  0.85 0 0  0.875 0 0  0.9 0 0  0.925 0 0  0.95 0 0  0.975 0 0  1 0 0  0 0.025 0  0.025 0.025 0  0.05 0.025 0  0.075 0.025 0  0.1 0.025 0  0.125 0.025 0  0.15 0.025 0  0.175 0.025 0  0.2 0.025 0  0.225 0.025 0  0.25 0.025 0  0.275 0.025 0  0.3 0.025 0  0.325 0.025 0  0.35 0.025 0  0.375 0.025 0  0.4 0.025 0  0.425 0.025 0  0.45 0.025 0  0.475 0.025 0  0.5 0.025 0  0.525 0.025 0  0.55 0.025 0  0.575 0.025 0  0.6 0.025 0  0.625 0.025 0  0.65 0.025 0  0.675 0.025 0  0.7 0.025 0  0.725 0.025 0  0.75 0.025 0  0.775 0.025 0  0.8 0.025 0  0.825 0.025 0  0.85 0.025 0  0.875 0.025 0  0.9 0.025 0  0.925 0.025 0  0.95 0.025 0  0.975 0.025 0  1 0.025 0  0 0.05 0  0.025 0.05 0  0.05 0.05 0  0.075 0.05 0  0.1 0.05 0  0.125 0.05 0  0.15 0.05 0  0.175 0.05 0  0.2 0.05 0  0.225 0.05 0  0.25 0.05 0  0.275 0.05 0  0.3 0.05 0  0.325 0.05 0  0.35 0.05 0  0.375 0.05 0  0.4 0.05 0  0.425 0.05 0  0.45 0.05 0  0.475 0.05 0  0.5 0.05 0  0.525 0.05 0  0.55 0.05 0  0.575 0.05 0  0.6 0.05 0  0.625 0.05 0  0.65 0.05 0  0.675 0.05 0  0.7 0.05 0  0.725 0.05 0  0.75 0.05 0  0.775 0.05 0  0.8 0.05 0  0.825 0.05 0  0.85 0.05 0  0.875 0.05 0  0.9 0.05 0  0.925 0.05 0  0.95 0.05 0  0.975 0.05 0  1 0.05 0  0 0.075 0  0.025 0.075 0  0.05 0.075 0  0.075 0.075 0  0.1 0.075 0  0.125 0.075 0  0.15 0.075 0  0.175 0.075 0  0.2 0.075 0  0.225 0.075 0  0.25 0.075 0  0.275 0.075 0  0.3 0.075 0  0.325 0.075 0  0.35 0.075 0  0.375 0.075 0  0.4 0.075 0  0.425 0.075 0  0.45 0.075 0  0.475 0.075 0  0.5 0.075 0  0.525 0.075 0  0.55 0.075 0  0.575 0.075 0  0.6 0.075 0  0.625 0.075 0  0.65 0.075 0  0.675 0.075 0  0.7 0.075 0  0.725 0.075 0  0.75 0.075 0  0.775 0.075 0  0.8 0.075 0  0.825 0.075 0  0.85 0.075 0  0.875 0.075 0  0.9 0.075 0  0.925 0.075 0  0.95 0.075 0  0.975 0.075 0  1 0.075 0  0 0.1 0  0.025 0.1 0  0.05 0.1 0  0.075 0.1 0  0.1 0.1 0  0.125 0.1 0  0.15 0.1 0  0.175 0.1 0  0.2 0.1 0  0.225 0.1 0  0.25 0.1 0  0.275 0.1 0  0.3 0.1 0  0.325 0.1 0  0.35 0.1 0  0.375 0.1 0  0.4 0.1 0  0.425 0.1 0  0.45 0.1 0  0.475 0.1 0  0.5 0.1 0  0.525 0.1 0  0.55 0.1 0  0.575 0.1 0  0.6 0.1 0  0.625 0.1 0  0.65 0.1 0  0.675 0.1 0  0.7 0.1 0  0.725 0.1 0  0.75 0.1 0  0.775 0.1 0  0.8 0.1 0  0.825 0.1 0  0.85 0.1 0  0.875 0.1 0  0.9 0.1 0  0.925 0.1 0  0.95 0.1 0  0.975 0.1 0  1 0.1 0  0 0.125 0  0.025 0.125 0  0.05 0.125 0  0.075 0.125 0  0.1 0.125 0  0.125 0.125 0  0.15 0.125 0  0.175 0.125 0  0.2 0.125 0  0.225 0.125 0  0.25 0.125 0  0.275 0.125 0  0.3 0.125 0  0.325 0.125 0  0.35 0.125 0  0.375 0.125 0  0.4 0.125 0  0.425 0.125 0  0.45 0.125 0  0.475 0.125 0  0.5 0.125 0  0.525 0.125 0  0.55 0.125 0  0.575 0.125 0  0.6 0.125 0  0.625 0.125 0  0.65 0.125 0  0.675 0.125 0  0.7 0.125 0  0.725 0.125 0  0.75 0.125 0  0.775 0.125 0  0.8 0.125 0  0.825 0.125 0  0.85 0.125 0  0.875 0.125 0  0.9 0.125 0  0.925 0.125 0  0.95 0.125 0  0.975 0.125 0  1 0.125 0  0 0.15 0  0.025 0.15 0  0.05 0.15 0  0.075 0.15 0  0.1 0.15 0  0.125 0.15 0  0.15 0.15 0  0.175 0.15 0  0.2 0.15 0  0.225 0.15 0  0.25 0.15 0  0.275 0.15 0  0.3 0.15 0  0.325 0.15 0  0.35 0.15 0  0.375 0.15 0  0.4 0.15 0  0.425 0.15 0  0.45 0.15 0  0.475 0.15 0  0.5 0.15 0  0.525 0.15 0  0.55 0.15 0  0.575 0.15 0  0.6 0.15 0  0.625 0.15 0  0.65 0.15 0  0.675 0.15 0  0.7 0.15 0  0.725 0.15 0  0.75 0.15 0  0.775 0.15 0  0.8 0.15 0  0.825 0.15 0  0.85 0.15 0  0.875 0.15 0  0.9 0.15 0  0.925 0.15 0  0.95 0.15 0  0.975 0.15 0  1 0.15 0  0 0.175 0  0.025 0.175 0  0.05 0.175 0  0.075 0.175 0  0.1 0.175 0  0.125 0.175 0  0.15 0.175 0  0.175 0.175 0  0.2 0.175 0  0.225 0.175 0  0.25 0.175 0  0.275 0.175 0  0.3 0.175 0  0.325 0.175 0  0.35 0.175 0  0.375 0.175 0  0.4 0.175 0  0.425 0.175 0  0.45 0.175 0  0.475 0.175 0  0.5 0.175 0  0.525 0.175 0  0.55 0.175 0  0.575 0.175 0  0.6 0.175 0  0.625 0.175 0  0.65 0.175 0  0.675 0.175 0  0.7 0.175 0  0.725 0.175 0  0.75 0.175 0  0.775 0.175 0  0.8 0.175 0  0.825 0.175 0  0.85 0.175 0  0.875 0.175 0  0.9 0.175 0  0.925 0.175 0  0.95 0.175 0  0.975 0.175 0  1 0.175 0  0 0.2 0  0.025 0.2 0  0.05 0.2 0  0.075 0.2 0  0.1 0.2 0  0.125 0.2 0  0.15 0.2 0  0.175 0.2 0  0.2 0.2 0  0.225 0.2 0  0.25 0.2 0  0.275 0.2 0  0.3 0.2 0  0.325 0.2 0  0.35 0.2 0  0.375 0.2 0  0.4 0.2 0  0.425 0.2 0  0.45 0.2 0  0.475 0.2 0  0.5 0.2 0  0.525 0.2 0  0.55 0.2 0  0.575 0.2 0  0.6 0.2 0  0.625 0.2 0  0.65 0.2 0  0.675 0.2 0  0.7 0.2 0  0.725 0.2 0  0.75 0.2 0  0.775 0.2 0  0.8 0.2 0  0.825 0.2 0  0.85 0.2 0  0.875 0.2 0  0.9 0.2 0  0.925 0.2 0  0.95 0.2 0  0.975 0.2 0  1 0.2 0  0 0.225 0  0.025 0.225 0  0.05 0.225 0  0.075 0.225 0  0.1 0.225 0  0.125 0.225 0  0.15 0.225 0  0.175 0.225 0  0.2 0.225 0  0.225 0.225 0  0.25 0.225 0  0.275 0.225 0  0.3 0.225 0  0.325 0.225 0  0.35 0.225 0  0.375 0.225 0  0.4 0.225 0  0.425 0.225 0  0.45 0.225 0  0.475 0.225 0  0.5 0.225 0  0.525 0.225 0  0.55 0.225 0  0.575 0.225 0  0.6 0.225 0  0.625 0.225 0  0.65 0.225 0  0.675 0.225 0  0.7 0.225 0  0.725 0.225 0  0.75 0.225 0  0.775 0.225 0  0.8 0.225 0  0.825 0.225 0  0.85 0.225 0  0.875 0.225 0  0.9 0.225 0  0.925 0.225 0  0.95 0.225 0  0.975 0.225 0  1 0.225 0  0 0.25 0  0.025 0.25 0  0.05 0.25 0  0.075 0.25 0  0.1 0.25 0  0.125 0.25 0  0.15 0.25 0  0.175 0.25 0  0.2 0.25 0  0.225 0.25 0  0.25 0.25 0  0.275 0.25 0  0.3 0.25 0  0.325 0.25 0  0.35 0.25 0  0.375 0.25 0  0.4 0.25 0  0.425 0.25 0  0.45 0.25 0  0.475 0.25 0  0.5 0.25 0  0.525 0.25 0  0.55 0.25 0  0.575 0.25 0  0.6 0.25 0  0.625 0.25 0  0.65 0.25 0  0.675 0.25 0  0.7 0.25 0  0.725 0.25 0  0.75 0.25 0  0.775 0.25 0  0.8 0.25 0  0.825 0.25 0  0.85 0.25 0  0.875 0.25 0  0.9 0.25 0  0.925 0.25 0  0.95 0.25 0  0.975 0.25 0  1 0.25 0  0 0.275 0  0.025 0.275 0  0.05 0.275 0  0.075 0.275 0  0.1 0.275 0  0.125 0.275 0  0.15 0.275 0  0.175 0.275 0  0.2 0.275 0  0.225 0.275 0  0.25 0.275 0  0.275 0.275 0  0.3 0.275 0  0.325 0.275 0  0.35 0.275 0  0.375 0.275 0  0.4 0.275 0  0.425 0.275 0  0.45 0.275 0  0.475 0.275 0  0.5 0.275 0  0.525 0.275 0  0.55 0.275 0  0.575 0.275 0  0.6 0.275 0  0.625 0.275 0  0.65 0.275 0  0.675 0.275 0  0.7 0.275 0  0.725 0.275 0  0.75 0.275 0  0.775 0.275 0  0.8 0.275 0  0.825 0.275 0  0.85 0.275 0  0.875 0.275 0  0.9 0.275 0  0.925 0.275 0  0.95 0.275 0  0.975 0.275 0  1 0.275 0  0 0.3 0  0.025 0.3 0  0.05 0.3 0  0.075 0.3 0  0.1 0.3 0  0.125 0.3 0  0.15 0.3 0  0.175 0.3 0  0.2 0.3 0  0.225 0.3 0  0.25 0.3 0  0.275 0.3 0  0.3 0.3 0  0.325 0.3 0  0.35 0.3 0  0.375 0.3 0  0.4 0.3 0  0.425 0.3 0  0.45 0.3 0  0.475 0.3 0  0.5 0.3 0  0.525 0.3 0  0.55 0.3 0  0.575 0.3 0  0.6 0.3 0  0.625 0.3 0  0.65 0.3 0  0.675 0.3 0  0.7 0.3 0  0.725 0.3 0  0.75 0.3 0  0.775 0.3 0  0.8 0.3 0  0.825 0.3 0  0.85 0.3 0  0.875 0.3 0  0.9 0.3 0  0.925 0.3 0  0.95 0.3 0  0.975 0.3 0  1 0.3 0  0 0.325 0  0.025 0.325 0  0.05 0.325 0  0.075 0.325 0  0.1 0.325 0  0.125 0.325 0  0.15 0.325 0  0.175 0.325 0  0.2 0.325 0  0.225 0.325 0  0.25 0.325 0  0.275 0.325 0  0.3 0.325 0  0.325 0.325 0  0.35 0.325 0  0.375 0.325 0  0.4 0.325 0  0.425 0.325 0  0.45 0.325 0  0.475 0.325 0  0.5 0.325 0  0.525 0.325 0  0.55 0.325 0  0.575 0.325 0  0.6 0.325 0  0.625 0.325 0  0.65 0.325 0  0.675 0.325 0  0.7 0.325 0  0.725 0.325 0  0.75 0.325 0  0.775 0.325 0  0.8 0.325 0  0.825 0.325 0  0.85 0.325 0  0.875 0.325 0  0.9 0.325 0  0.925 0.325 0  0.95 0.325 0  0.975 0.325 0  1 0.325 0  0 0.35 0  0.025 0.35 0  0.05 0.35 0  0.075 0.35 0  0.1 0.35 0  0.125 0.35 0  0.15 0.35 0  0.175 0.35 0  0.2 0.35 0  0.225 0.35 0  0.25 0.35 0  0.275 0.35 0  0.3 0.35 0  0.325 0.35 0  0.35 0.35 0  0.375 0.35 0  0.4 0.35 0  0.425 0.35 0  0.45 0.35 0  0.475 0.35 0  0.5 0.35 0  0.525 0.35 0  0.55 0.35 0  0.575 0.35 0  0.6 0.35 0  0.625 0.35 0  0.65 0.35 0  0.675 0.35 0  0.7 0.35 0  0.725 0.35 0  0.75 0.35 0  0.775 0.35 0  0.8 0.35 0  0.825 0.35 0  0.85 0.35 0  0.875 0.35 0  0.9 0.35 0  0.925 0.35 0  0.95 0.35 0  0.975 0.35 0  1 0.35 0  0 0.375 0  0.025 0.375 0  0.05 0.375 0  0.075 0.375 0  0.1 0.375 0  0.125 0.375 0  0.15 0.375 0  0.175 0.375 0  0.2 0.375 0  0.225 0.375 0  0.25 0.375 0  0.275 0.375 0  0.3 0.375 0  0.325 0.375 0  0.35 0.375 0  0.375 0.375 0  0.4 0.375 0  0.425 0.375 0  0.45 0.375 0  0.475 0.375 0  0.5 0.375 0  0.525 0.375 0  0.55 0.375 0  0.575 0.375 0  0.6 0.375 0  0.625 0.375 0  0.65 0.375 0  0.675 0.375 0  0.7 0.375 0  0.725 0.375 0  0.75 0.375 0  0.775 0.375 0  0.8 0.375 0  0.825 0.375 0  0.85 0.375 0  0.875 0.375 0  0.9 0.375 0  0.925 0.375 0  0.95 0.375 0  0.975 0.375 0  1 0.375 0  0 0.4 0  0.025 0.4 0  0.05 0.4 0  0.075 0.4 0  0.1 0.4 0  0.125 0.4 0  0.15 0.4 0  0.175 0.4 0  0.2 0.4 0  0.225 0.4 0  0.25 0.4 0  0.275 0.4 0  0.3 0.4 0  0.325 0.4 0  0.35 0.4 0  0.375 0.4 0  0.4 0.4 0  0.425 0.4 0  0.45 0.4 0  0.475 0.4 0  0.5 0.4 0  0.525 0.4 0  0.55 0.4 0  0.575 0.4 0  0.6 0.4 0  0.625 0.4 0  0.65 0.4 0  0.675 0.4 0  0.7 0.4 0  0.725 0.4 0  0.75 0.4 0  0.775 0.4 0  0.8 0.4 0  0.825 0.4 0  0.85 0.4 0  0.875 0.4 0  0.9 0.4 0  0.925 0.4 0  0.95 0.4 0  0.975 0.4 0  1 0.4 0  0 0.425 0  0.025 0.425 0  0.05 0.425 0  0.075 0.425 0  0.1 0.425 0  0.125 0.425 0  0.15 0.425 0  0.175 0.425 0  0.2 0.425 0  0.225 0.425 0  0.25 0.425 0  0.275 0.425 0  0.3 0.425 0  0.325 0.425 0  0.35 0.425 0  0.375 0.425 0  0.4 0.425 0  0.425 0.425 0  0.45 0.425 0  0.475 0.425 0  0.5 0.425 0  0.525 0.425 0  0.55 0.425 0  0.575 0.425 0  0.6 0.425 0  0.625 0.425 0  0.65 0.425 0  0.675 0.425 0  0.7 0.425 0  0.725 0.425 0  0.75 0.425 0  0.775 0.425 0  0.8 0.425 0  0.825 0.425 0  0.85 0.425 0  0.875 0.425 0  0.9 0.425 0  0.925 0.425 0  0.95 0.425 0  0.975 0.425 0  1 0.425 0  0 0.45 0  0.02
[...]
<PointData  Scalars="ControlVisualisation"> 
<DataArray  type="Float64"  Name="ControlVisualisation"  format="ascii">2.6004604305440704e-01  2.0449785115113556e-01  2.2036828713129644e-01  2.3569794854269396e-01  2.4858263586919035e-01  2.6466313917391193e-01  2.9351911059642311e-01  3.1470721935479740e-01  3.3707718186752184e-01  3.4815267924545457e-01  3.4811951425072163e-01  3.6865535915460113e-01  3.3155810155426568e-01  3.8539882639118894e-01  4.4147704555232886e-01  4.2461096587660346e-01  4.3249592973850182e-01  4.1137452129643037e-01  4.0317891683330753e-01  3.6417129789828895e-01  3.5683956991433291e-01  3.6556346506957116e-01  3.7762382251764787e-01  3.5708545321357432e-01  3.5473362710515105e-01  3.4594089450706594e-01  3.2773358216697823e-01  3.1156990842876481e-01  2.9038006384765397e-01  2.7873458238350152e-01  2.7583508186953537e-01  2.6552032854563334e-01  2.5239338316734483e-01  2.4182212880207465e-01  2.3212814360813167e-01  2.2683468121119071e-01  2.1959877877007752e-01  2.1286131423887497e-01  2.0685704177860306e-01  2.0129960566256733e-01  3.6273703678836955e-01  1.9585769257124780e-01  1.2798584293068488e-01  1.2766687996553919e-01  1.2658304743783685e-01  1.2727709053851982e-01  1.2655743430672556e-01  1.3135575238464942e-01  1.3368853688988369e-01  1.3946074823133353e-01  1.4081251305961112e-01  1.3677205348100868e-01  1.5553177755687522e-01  1.3627761961714641e-01  1.6557176072741470e-01  1.7467612933869181e-01  1.8177146779179204e-01  1.7989965590431262e-01  1.7613959975827409e-01  1.7827707028530693e-01  1.7737287359633219e-01  1.7552167631789684e-01  1.8668781185184541e-01  1.8465991381110611e-01  1.8861946464755641e-01  1.7307488176279648e-01  1.7413454374824761e-01  1.8222100120178675e-01  1.7147018987235182e-01  1.6277969125552222e-01  1.5247928638983901e-01  1.5162401303012368e-01  1.5425308817584349e-01  1.4310745387461180e-01  1.3493433443413316e-01  1.3122021040733728e-01  1.3068818995149334e-01  1.3057486101848498e-01  1.2961240757270817e-01  1.2878882458241522e-01  1.2821157342367617e-01  2.0122228015199078e-01  1.8642244710082054e-01  1.2919396065460001e-01  1.2897984290593853e-01  1.2575816666947404e-01  1.2415133706220646e-01  1.2374381322146800e-01  1.2787716586153905e-01  1.2632082957451379e-01  1.2444353287259494e-01  1.3230789832253401e-01  1.2810099260862579e-01  1.3214184841926119e-01  1.3255561473253863e-01  1.5497473120195698e-01  1.5423695820583341e-01  1.4897223449980207e-01  1.6011093516392461e-01  1.7146018459426887e-01  1.8288460818324206e-01  1.7635710964914303e-01  1.8015498976323033e-01  2.0032397018099729e-01  1.9143743692582921e-01  1.7064569148112926e-01  1.6246018999107137e-01  1.5707438099165910e-01  1.6637629885594588e-01  1.6365757240175735e-01  1.5586859090989807e-01  1.4438360315443138e-01  1.3899277687496331e-01  1.4343490527291702e-01  1.3525241609920302e-01  1.2922395858098065e-01  1.2763745591009773e-01  1.2716694668748726e-01  1.2765208139381257e-01  1.2795857770432004e-01  1.2810209306295126e-01  1.2847364389900698e-01  2.0642948410349718e-01  1.8005917941757044e-01  1.3135222814883710e-01  1.3752385036676854e-01  1.3269816666332240e-01  1.3379303641802792e-01  1.3399545113999348e-01  1.4399839614948315e-01  1.4937266122182966e-01  1.3219060887738932e-01  1.4303179650845199e-01  1.4598921941893914e-01  1.4654268563804956e-01  1.6912041969003738e-01  1.6792123476789447e-01  1.7417119235594827e-01  1.8044373282142209e-01  2.0147975380602054e-01  2.1553600716073731e-01  2.5951700256287868e-01  2.8496755150445285e-01  1.8792485300983661e-01  2.7425118778796742e-01  2.2520281517035187e-01  1.7437051973161038e-01  1.6043248011926470e-01  1.6679776662744233e-01  1.7458816883191566e-01  1.6563833391671334e-01  1.6040689815943221e-01  1.6369225295038198e-01  1.5335113785138546e-01  1.4895938088522051e-01  1.4133696058648168e-01  1.3192610081741143e-01  1.2839798056652141e-01  1.2808919841289426e-01  1.2801149577336285e-01  1.2922873023169673e-01  1.2821593276429161e-01  1.2882053652636946e-01  2.1161049685387945e-01  1.7578740509775040e-01  1.3387949435981897e-01  1.6550536815276612e-01  1.6348058160860615e-01  1.6262822761827925e-01  1.7999941364115624e-01  1.7523670613171302e-01  1.9413007965542994e-01  1.6250688679276420e-01  1.8329395474271662e-01  1.7570288804509265e-01  1.5550965212287110e-01  1.7376922231784586e-01  1.7349517587311705e-01  1.6786175245233045e-01  1.9412832680095152e-01  2.2331760657187205e-01  2.1129873187773371e-01  3.0559950627994614e-01  2.3183589203888091e-01  1.7760015202628118e-01  1.8790189372281363e-01  2.0179048829454430e-01  1.7350282903567665e-01  1.7075318088573549e-01  1.7024139211351486e-01  1.8133837926715168e-01  1.6501448821261941e-01  1.6159656041211287e-01  1.6572117996609315e-01  1.6071031159596516e-01  1.5217071935367169e-01  1.4093947998112066e-01  1.3514223682541085e-01  1.3028360336819797e-01  1.2748641280539685e-01  1.2775291886957613e-01  1.2809069686944219e-01  1.2836301853260634e-01  1.3001747524279061e-01  2.1845974227813353e-01  1.7447182863640831e-01  1.5532677793192701e-01  3.1968935361592288e-01  3.6156790866381261e-01  3.0767719884950750e-01  3.1987923188305417e-01  2.5383987054738211e-01  2.4968534003656437e-01  2.1240223623957497e-01  2.3344666528698307e-01  2.6475019207450778e-01  1.7344252945709854e-01  1.5950291508450332e-01  1.5042683049257335e-01  1.5288381865798284e-01  1.5788877185212419e-01  1.7653544981970049e-01  1.7199910701681451e-01  2.0492665802058097e-01  1.7014299649547882e-01  1.5052161608343340e-01  1.7109726697151798e-01  1.6926383528696878e-01  1.6280759052790064e-01  1.4547304037156655e-01  1.6313897065478045e-01  1.7450355169691589e-01  1.6148874875643929e-01  1.5169407798575493e-01  1.5109616348486815e-01  1.4650974977840264e-01  1.4342924713381439e-01  1.3681498383870300e-01  1.3276812425171397e-01  1.3132992598313936e-01  1.2770782692622085e-01  1.2692289665023343e-01  1.2675715645394608e-01  1.2773267716553491e-01  1.3284965478021271e-01  2.2827861760346452e-01  1.8015521414717284e-01  4.2423012182551129e-01  5.9604732839474550e-01  6.7298719856969424e-01  6.5917045779839611e-01  6.5184206233224617e-01  5.9583764433823172e-01  4.9954226159358522e-01  3.9780762901639533e-01  4.0800636412733016e-01  2.1029947344725286e-01  2.4869678869439862e-01  2.0951074839558212e-01  2.0263586594695696e-01  1.7532947659438058e-01  1.7744195257656797e-01  1.6929235274528781e-01  1.7350737591426504e-01  1.9640027990370651e-01  1.6726183077580109e-01  1.5362768166400570e-01  1.4742523749505723e-01  1.4375191826026201e-01  1.5769855234447988e-01  1.4424172697107424e-01  1.5325024700890633e-01  1.7881743107562198e-01  1.6593953382868246e-01  1.5456866623829946e-01  1.4699423444873944e-01  1.4325787018627373e-01  1.3907248541583084e-01  1.3234288987656970e-01  1.3048965165053406e-01  1.2951255507652049e-01  1.2876889586767140e-01  1.2855700050371544e-01  1.2654843120259418e-01  1.2883952562541076e-01  1.3435709173492347e-01  2.3694050746099343e-01  8.4556091925592891e-01  8.7195318278921163e-01  8.8639862931601043e-01  8.8144515006831270e-01  8.6569007538438414e-01  8.4244552412867768e-01  8.1166863347381535e-01  7.5478098074905176e-01  6.2812868386606713e-01  6.0328836927117890e-01  5.1689357459547747e-01  4.2383639200813850e-01  4.1799708321508550e-01  3.0217759555389334e-01  2.1967116316961713e-01  2.1843039583012153e-01  1.9206301154994604e-01  1.8717835924085005e-01  1.8147063611533423e-01  1.6795737973909056e-01  1.5544608963434339e-01  1.3976667008724092e-01  1.4843760311797657e-01  1.5184883407316974e-01  1.3886645511228740e-01  1.3909765062083718e-01  1.6947945432251124e-01  1.6447356019405310e-01  1.5219692960033177e-01  1.3956720409791465e-01  1.3828307106329391e-01  1.3789854090529785e-01  1.2953647223169204e-01  1.2989221633170611e-01  1.2884645273704348e-01  1.2704539395642434e-01  1.2533627662342089e-01  1.2490669815883558e-01  1.2929310011974873e-01  1.3716557421985676e-01  2.4558644651951939e-01  9.5570574664496943e-01  9.6859966328396185e-01  9.6150297729606415e-01  9.5052723406166728e-01  9.3615266779566708e-01  9.1902273390243638e-01  8.9699826445752173e-01  8.6855646278275200e-01  7.8070167808064728e-01  7.5620841313072384e-01  6.6156469419850483e-01  4.6888292428866152e-01  3.8994909573036057e-01  3.7722004219932848e-01  2.3969408461037511e-01  3.5266384647850757e-01  2.0853711636902941e-01  1.8039873556201066e-01  1.7904146183463904e-01  1.7758284174425570e-01  1.7167026552465603e-01  1.4048146741760831e-01  1.5933495972863201e-01  1.7349204111065503e-01  1.3890725508721821e-01  1.3763122808115957e-01  1.4155803535009404e-01  1.4877789030165500e-01  1.4875207878784177e-01  1.3567509559606089e-01  1.3424093365130829e-01  1.3267866977159296e-01  1.3112241796043567e-01  1.3158160571237484e-01  1.2870040994118642e-01  1.2618468270585589e-01  1.2339636089583725e-01  1.2469568209457640e-01  1.3067761567506814e-01  1.3922057885548264e-01  2.5418053936053248e-01  9.7407812470582389e-01  9.8375054210097801e-01  9.7845526739140043e-01  9.7055103652491892e-01  9.6026742277000721e-01  9.4837010050469872e-01  9.3397546333864012e-01  9.1512166943370488e-01  8.8009069283314434e-01  8.2279660853194680e-01  7.6335642703073159e-01  6.7699451111122666e-01  5.0870762049155704e-01  5.0299047737664815e-01  3.2958008368663361e-01  3.2979293942544141e-01  2.6014236755168790e-01  1.7430779501848337e-01  2.2515083579776282e-01  1.9329285678878771e-01  1.9787691219115139e-01  1.5572712690041959e-01  1.7251760870950789e-01  1.7612645316736478e-01  1.4047619723952287e-01  1.4808492019681860e-01  1.3934090330777363e-01  1.4649336684088812e-01  1.5369213986192359e-01  1.4459564589647211e-01  1.3505398744514702e-01  1.3258907505829981e-01  1.3779215392054589e-01  1.3198532737570476e-01  1.2740329240273385e-01  1.2822684161461501e-01  1.2667761080077297e-01  1.2830746262206155e-01  1.3167973935037550e-01  1.4307063082566623e-01  2.6568804087077064e-01  9.7699500969154340e-01  9.8670475766778998e-01  9.8256917552281420e-01  9.7643353790089504e-01  9.6865475955775637e-01  9.5990615483700881e-01  9.4943618454167356e-01  9.3648665249565888e-01  9.1687947601478637e-01  8.8688540698472085e-01  8.6263622251414929e-01  7.9701925383728411e-01  6.9278108597787247e-01  5.7492900919377543e-01  5.6129938924959699e-01  4.0257504753821860e-01  3.6659349863975760e-01  2.6641346595807491e-01  3.4006426391304068e-01  2.1595162114454486e-01  2.0684036368397180e-01  1.5234050622662787e-01  1.7317895592463575e-01  1.7424604706965632e-01  1.3262576660136360e-01  1.4997353931573434e-01  1.6043478052684404e-01  1.5944573400379120e-01  1.4506058473021172e-01  1.4075250890153479e-01  1.4187577606536456e-01  1.3659812758428980e-01  1.4359456742360766e-01  1.3912024944378826e-01  1.2864555449477841e-01  1.2681890217210284e-01  1.2546913931948289e-01  1.2750426441512383e-01  1.3034978192197394e-01  1.4191701127841358e-01  2.7728851231021046e-01  9.7116876211356207e-01  9.8470546245924484e-01  9.8110070695007856e-01  9.7591812117524102e-01  9.6972026162262381e-01  9.6266842562088262e-01  9.5480202461736152e-01  9.4567208201165875e-01  9.3512076876331041e-01  9.1827489047469724e-01  9.0627438584670317e-01  8.8291063964886607e-01  8.3108564159613529e-01  7.5766942452124220e-01  7.4943582424009536e-01  6.3259144813565460e-01  5.1531908088964073e-01  5.1527898316724297e-01  4.3303859059598576e-01  2.6874497881959741e-01  2.2644955996690158e-01  1.8531654273476225e-01  1.7339047995471712e-01  1.9652544291696633e-01  1.4859212935203447e-01  1.5446506256354758e-01  1.9808001533983302e-01  1.8887452809474772e-01  1.6792149174405874e-01  1.5360426328207721e-01  1.4411738872716370e-01  1.4542733945288486e-01  1.5257631042186123e-01  1.5078626786595786e-01  1.2830726617188332e-01  1.2319643088682657e-01  1.2205709685716856e-01  1.2434287795102320e-01  1.2761176580742625e-01  1.4102387879234268e-01  2.8070337956487151e-01  9.4252661009977412e-01  9.7386735900830856e-01  9.7206082453341291e-01  9.6886621683309104e-01  9.6479196918274157e-01  9.5999611545181918e-01  9.5433644652967220e-01  9.4837048425737147e-01  9.4212555686454891e-01  9.3355685491603535e-01  9.2278844978599617e-01  9.0882409802573183e-01  8.9200168893662624e-01  8.6744954817908981e-01  7.9329503112053223e-01  6.7319025060221604e-01  6.0192459113672847e-01  5.9926660644557916e-01  5.1912090125887711e-01  3.9782919343998024e-01  2.5628161754003975e-01  2.1418515089017592e-01  1.7312040994000355e-01  2.0250206912778906e-01  1.9091103446494700e-01  1.7773444645252715e-01  1.9579314452359542e-01  1.7538067296677187e-01  1.7225528096091247e-01  1.7144874476491134e-01  1.4538079873732099e-01  1.3926217644069838e-01  1.3606231461675769e-01  1.3590867473891846e-01  1.2620485346620164e-01  1.2206947729089476e-01  1.2195512748445039e-01  1.2376628161394429e-01  1.2658502429567528e-01  1.4213835358290058e-01  2.9334689092076982e-01  7.7615855745544526e-01  9.1481445171302500e-01  9.4201722820962408e-01  9.5000048568830409e-01  9.5188420257958384e-01  9.5156194932387905e-01  9.4950979173472960e-01  9.4556449531822417e-01  9.4111753825360933e-01  9.3775339675517766e-01  9.3303902388617743e-01  9.2476915685968430e-01  9.1270012261466604e-01  9.7479738428825968e-01  9.3953061316504938e-01  8.6806856797882948e-01  7.6000043386258898e-01  7.3579067205967108e-01  6.6726103257667324e-01  5.7431325173836145e-01  3.6462213436756058e-01  2.8914085291408170e-01  2.0296365276385789e-01  2.2082981557959919e-01  1.7373250853760208e-01  1.6942278922390239e-01  1.9248117379142937e-01  1.7850130239669915e-01  1.8656754493098526e-01  1.8099457019803800e-01  1.5336048951219997e-01  1.5766371308117946e-01  1.4303332983023398e-01  1.3819051133360499e-01  1.2873114002475089e-01  1.2444756038434739e-01  1.2311656050841138e-01  1.2546960871611429e-01  1.2930794539377255e-01  1.5033467271504353e-01  3.1202786884201911e-01  5.9161141377336857e-01  6.4035467374459754e-01  8.4462600087512263e-01  9.0428854976183048e-01  9.2578476279122701e-01  9.3428595234417910e-01  9.3726455879491810e-01  9.3466563435041639e-01  9.3129978098094857e-01  9.3134054730611038e-01  9.3327578081172402e-01  9.2988593025929489e-01  9.2910844534643033e-01  9.5905385565721968e-01  9.6568536816740524e-01  9.5374899112281319e-01  8.9411785902407348e-01  8.3065820890026054e-01  7.8314627036131512e-01  7.0605391702590614e-01  4.7564760847895254e-01  3.9524434752668619e-01  2.6466922952292726e-01  2.1615329097241995e-01  1.3807053182755358e-01  1.3256494154888609e-01  1.5090842773325586e-01  1.6833771269500122e-01  1.7746660392847935e-01  1.4659748681573317e-01  1.3875827354239040e-01  1.4670053069240949e-01  1.4233719413610990e-01  1.3447646142530573e-01  1.2806894496651883e-01  1.2441050793844044e-01  1.2556072816000041e-01  1.2662297642380260e-01  1.3487017961723410e-01  1.5847418874957189e-01  3.2821795491855960e-01  5.6812663846801659e-01  2.6727175747540310e-01  5.6038486801555132e-01  8.1005763793067387e-01  8.7392127630395711e-01  9.0148404206462251e-01  9.1653144515670271e-01  9.2078818205215729e-01  9.1359255983559418e-01  9.1644874147103017e-01  9.3148362842957921e-01  9.3024608863329150e-01  9.3306115186187166e-01  9.1930308801234617e-01  9.0936325031777498e-01  9.6599907573594446e-01  9.9759560879036491e-01  8.8653510998445928e-01  8.3758690964679305e-01  7.8164547330623335e-01  6.7770324761248435e-01  5.4603013454650462e-01  3.5064639774967188e-01  2.5410174652268280e-01  1.4467827921594423e-01  1.2915821935614941e-01  1.3357826566846251e-01  1.3399221019135965e-01  1.6853047835189333e-01  1.4034146807117895e-01  1.3923082125348057e-01  1.3358286250501777e-01  1.3828372549590912e-01  1.3864826932393470e-01  1.3295291967992576e-01  1.2699495247926454e-01  1.2542570382391219e-01  1.3151105518293901e-01  1.3656769478104530e-01  1.6715684956099922e-01  3.5418566752310687e-01  5.6614870845010934e-01  2.4483445232055917e-01  3.8218908931515200e-01  6.5923109102921429e-01  7.9900495607580446e-01  8.4768547361914592e-01  8.8592138335049631e-01  9.0471218316725122e-01  9.0160503865346608e-01  9.1110817537756494e-01  9.2469284422393527e-01  9.3034756691205434e-01  9.2908739354975256e-01  9.2452036182475184e-01  9.2501248964767446e-01  9.2368524048662315e-01  9.1872077125443274e-01  9.1065492536465875e-01  9.0004398583930656e-01  8.7327388602800438e-01  8.5529889008721838e-01  8.0377220656396753e-01  6.1312373478793181e-01  4.8190486188378207e-01  2.2774675389348087e-01  1.6531428504592746e-01  1.3853982845507298e-01  1.3493558011525700e-01  1.5422113638960797e-01  1.6380493899284260e-01  1.7520950737149299e-01  1.4602961149052246e-01  1.4627569792483061e-01  1.6923064140020574e-01  1.4385077433586232e-01  1.3502634986596967e-01  1.3398382523681757e-01  1.2996187448961802e-01  1.3468513075542934e-01  1.5485161830205979e-01  3.7201532092910627e-01  5.3688304423196631e-01  1.8728667307655586e-01  2.0038152751952523e-01  4.5628699541527773e-01  6.6772702181531174e-01  6.4314142388502138e-01  8.3144060078821047e-01  8.5706144979333243e-01  8.7168480863848163e-01  8.9437924250063483e-01  9.1277896403861958e-01  9.2134285713823272e-01  9.2739877037328511e-01  9.2816384418556008e-01  9.2490794534187137e-01  9.2202971186847527e-01  9.2975818952369005e-01  9.2173781856369219e-01  9.2026560242474076e-01  9.1434222791233410e-01  9.0132898820626450e-01  8.7323366268956226e-01  8.0988609226159547e-01  6.7811900407481296e-01  4.7128671701271208e-01  3.0356021488363388e-01  2.2351509056039942e-01  2.0679504743466162e-01  1.6111695484519983e-01  1.7288954303062820e-01  1.6135444591872436e-01  1.4403220227641611e-01  1.4943630112174480e-01  1.6385258676832942e-01  1.4708084643702352e-01  1.3445694307299286e-01  1.3707695993102176e-01  1.3881696616053568e-01  1.3253961894950797e-01  1.5968914753812186e-01  3.9646912243480270e-01  4.8387532574704439e-01  1.7122341064284324e-01  1.9456641481391784e-01  3.5174390262415650e-01  4.8477358257673114e-01  5.5166423869915637e-01  7.4845260611173337e-01  7.9982067481614949e-01  8.2402958333855736e-01  8.7322934260759644e-01  8.9369690640710331e-01  9.0716432222438492e-01  9.1883541842107097e-01  9.2600586737530077e-01  9.2392808569281193e-01  9.2711490932537211e-01  9.3090531889231742e-01  9.3435381353252545e-01  9.3552318432120951e-01  9.3273460947046039e-01  9.2566046281888681e-01  9.1195562403750297e-01  8.8713712846456150e-01  8.2952811310086039e-01  7.3497089090696666e-01  5.1885195039804344e-01  3.3923727048300772e-01  3.1317694575282962e-01  2.0333617825596384e-01  1.6915555659204590e-01  1.4491016377579602e-01  1.4897024544125306e-01  1.4955595118688345e-01  1.5185369796761478e-01  1.3904238419494910e-01  1.2985486877385150e-01  1.2799439467007473e-01  1.3762653171161265e-01  1.6171976418554140e-01  1.8594402500854593e-01  4.4097349721420043e-01  4.7874594642883117e-01  1.6767652175504594e-01  1.6014766187981774e-01  2.4178635181693800e-01  3.9601603726828344e-01  4.6650825675796903e-01  5.9454280647117974e-01  7.1578582555205705e-01  7.6029185336362337e-01  7.8113273432613994e-01  8.4371447473513661e-01  8.8403834960066630e-01  9.0399245828818853e-01  9.1509585906294011e-01  9.1236901217042909e-01  9.2146732472264370e-01  9.3515344554165203e-01  9.3831923727821964e-01  9.4021718786588249e-01  9.4072692008148306e-01  9.3805228103908433e-01  9.2639408604194895e-01  9.1297388082308040e-01  8.9101317402279612e-01  8.4183071330976889e-01  7.5147582823877657e-01  5.7379181202600582e-01  3.5148074173379606e-01  1.7853299457879168e-01  1.4470672954327896e-01  1.3471899938659238e-01  1.3515822669669136e-01  1.5325480723584334e-01  1.3978209532006525e-01  1.3128093498744275e-01  1.3207771628738352e-01  1.3207227661511914e-01  1.3724553774664583e-01  1.6307658822632684e-01  1.9616643634717340e-01  5.1360531799685960e-01  4.6664904386833439e-01  1.5681628805629488e-01  1.3786300572344651e-01  1.7280043576139570e-01  2.2107217581225003e-01  2.8492487635388308e-01  3.9555401864183282e-01  3.8237611835350066e-01  4.693394396