<?xml version="1.0"?>
<VTKFile type="UnstructuredGrid"  version="0.1"  >
<UnstructuredGrid>
<Piece  NumberOfPoints="1681" NumberOfCells="3200">
<Points>
<DataArray  type="Float64"  NumberOfComponents="3"  format="ascii">0 0 0  0.025 0 0  0.05 0 0  0.075 0 0  0.1 0 0  0.125 0 0  0.15 0 0  0.175 0 0  0.2 0 0  0.225 0 0  0.25 0 0  0.275 0 0  0.3 0 0  0.325 0 0  0.35 0 0  0.375 0 0  0.4 0 0  0.425 0 0  0.45 0 0  0.475 0 0  0.5 0 0  0.525 0 0  0.55 0 0  0.575 0 0  0.6 0 0  0.625 0 0  0.65 0 0  0.675 0 0  0.7 0 0  0.725 0 0  0.75 0 0  0.775 0 0  0.8 0 0  0.825 0 0  0.85 0 0  0.875 0 0  0.9 0 0  0.925 0 0  0.95 0 0  0.975 0 0  1 0 0  0 0.025 0  0.025 0.025 0  0.05 0.025 0  0.075 0.025 0  0.1 0.025 0  0.125 0.025 0  0.15 0.025 0  0.175 0.025 0  0.2 0.025 0  0.225 0.025 0  0.25 0.025 0  0.275 0.025 0  0.3 0.025 0  0.325 0.025 0  0.35 0.025 0  0.375 0.025 0  0.4 0.025 0  0.425 0.025 0  0.45 0.025 0  0.475 0.025 0  0.5 0.025 0  0.525 0.025 0  0.55 0.025 0  0.575 0.025 0  0.6 0.025 0  0.625 0.025 0  0.65 0.025 0  0.675 0.025 0  0.7 0.025 0  0.725 0.025 0  0.75 0.025 0  0.775 0.025 0  0.8 0.025 0  0.825 0.025 0  0.85 0.025 0  0.875 0.025 0  0.9 0.025 0  0.925 0.025 0  0.95 0.025 0  0.975 0.025 0  1 0.025 0  0 0.05 0  0.025 0.05 0  0.05 0.05 0  0.075 0.05 0  0.1 0.05 0  0.125 0.05 0  0.15 0.05 0  0.175 0.05 0  0.2 0.05 0  0.225 0.05 0  0.25 0.05 0  0.275 0.05 0  0.3 0.05 0  0.325 0.05 0  0.35 0.05 0  0.375 0.05 0  0.4 0.05 0  0.425 0.05 0  0.45 0.05 0  0.475 0.05 0  0.5 0.05 0  0.525 0.05 0  0.55 0.05 0  0.575 0.05 0  0.6 0.05 0  0.625 0.05 0  0.65 0.05 0  0.675 0.05 0  0.7 0.05 0  0.725 0.05 0  0.75 0.05 0  0.775 0.05 0  0.8 0.05 0  0.825 0.05 0  0.85 0.05 0  0.875 0.05 0  0.9 0.05 0  0.925 0.05 0  0.95 0.05 0  0.975 0.05 0  1 0.05 0  0 0.075 0  0.025 0.075 0  0.05 0.075 0  0.075 0.075 0  0.1 0.075 0  0.125 0.075 0  0.15 0.075 0  0.175 0.075 0  0.2 0.075 0  0.225 0.075 0  0.25 0.075 0  0.275 0.075 0  0.3 0.075 0  0.325 0.075 0  0.35 0.075 0  0.375 0.075 0  0.4 0.075 0  0.425 0.075 0  0.45 0.075 0  0.475 0.075 0  0.5 0.075 0  0.525 0.075 0  0.55 0.075 0  0.575 0.075 0  0.6 0.075 0  0.625 0.075 0  0.65 0.075 0  0.675 0.075 0  0.7 0.075 0  0.725 0.075 0  0.75 0.075 0  0.775 0.075 0  0.8 0.075 0  0.825 0.075 0  0.85 0.075 0  0.875 0.075 0  0.9 0.075 0  0.925 0.075 0  0.95 0.075 0  0.975 0.075 0  1 0.075 0  0 0.1 0  0.025 0.1 0  0.05 0.1 0  0.075 0.1 0  0.1 0.1 0  0.125 0.1 0  0.15 0.1 0  0.175 0.1 0  0.2 0.1 0  0.225 0.1 0  0.25 0.1 0  0.275 0.1 0  0.3 0.1 0  0.325 0.1 0  0.35 0.1 0  0.375 0.1 0  0.4 0.1 0  0.425 0.1 0  0.45 0.1 0  0.475 0.1 0  0.5 0.1 0  0.525 0.1 0  0.55 0.1 0  0.575 0.1 0  0.6 0.1 0  0.625 0.1 0  0.65 0.1 0  0.675 0.1 0  0.7 0.1 0  0.725 0.1 0  0.75 0.1 0  0.775 0.1 0  0.8 0.1 0  0.825 0.1 0  0.85 0.1 0  0.875 0.1 0  0.9 0.1 0  0.925 0.1 0  0.95 0.1 0  0.975 0.1 0  1 0.1 0  0 0.125 0  0.025 0.125 0  0.05 0.125 0  0.075 0.125 0  0.1 0.125 0  0.125 0.125 0  0.15 0.125 0  0.175 0.125 0  0.2 0.125 0  0.225 0.125 0  0.25 0.125 0  0.275 0.125 0  0.3 0.125 0  0.325 0.125 0  0.35 0.125 0  0.375 0.125 0  0.4 0.125 0  0.425 0.125 0  0.45 0.125 0  0.475 0.125 0  0.5 0.125 0  0.525 0.125 0  0.55 0.125 0  0.575 0.125 0  0.6 0.125 0  0.625 0.125 0  0.65 0.125 0  0.675 0.125 0  0.7 0.125 0  0.725 0.125 0  0.75 0.125 0  0.775 0.125 0  0.8 0.125 0  0.825 0.125 0  0.85 0.125 0  0.875 0.125 0  0.9 0.125 0  0.925 0.125 0  0.95 0.125 0  0.975 0.125 0  1 0.125 0  0 0.15 0  0.025 0.15 0  0.05 0.15 0  0.075 0.15 0  0.1 0.15 0  0.125 0.15 0  0.15 0.15 0  0.175 0.15 0  0.2 0.15 0  0.225 0.15 0  0.25 0.15 0  0.275 0.15 0  0.3 0.15 0  0.325 0.15 0  0.35 0.15 0  0.375 0.15 0  0.4 0.15 0  0.425 0.15 0  0.45 0.15 0  0.475 0.15 0  0.5 0.15 0  0.525 0.15 0  0.55 0.15 0  0.575 0.15 0  0.6 0.15 0  0.625 0.15 0  0.65 0.15 0  0.675 0.15 0  0.7 0.15 0  0.725 0.15 0  0.75 0.15 0  0.775 0.15 0  0.8 0.15 0  0.825 0.15 0  0.85 0.15 0  0.875 0.15 0  0.9 0.15 0  0.925 0.15 0  0.95 0.15 0  0.975 0.15 0  1 0.15 0  0 0.175 0  0.025 0.175 0  0.05 0.175 0  0.075 0.175 0  0.1 0.175 0  0.125 0.175 0  0.15 0.175 0  0.175 0.175 0  0.2 0.175 0  0.225 0.175 0  0.25 0.175 0  0.275 0.175 0  0.3 0.175 0  0.325 0.175 0  0.35 0.175 0  0.375 0.175 0  0.4 0.175 0  0.425 0.175 0  0.45 0.175 0  0.475 0.175 0  0.5 0.175 0  0.525 0.175 0  0.55 0.175 0  0.575 0.175 0  0.6 0.175 0  0.625 0.175 0  0.65 0.175 0  0.675 0.175 0  0.7 0.175 0  0.725 0.175 0  0.75 0.175 0  0.775 0.175 0  0.8 0.175 0  0.825 0.175 0  0.85 0.175 0  0.875 0.175 0  0.9 0.175 0  0.925 0.175 0  0.95 0.175 0  0.975 0.175 0  1 0.175 0  0 0.2 0  0.025 0.2 0  0.05 0.2 0  0.075 0.2 0  0.1 0.2 0  0.125 0.2 0  0.15 0.2 0  0.175 0.2 0  0.2 0.2 0  0.225 0.2 0  0.25 0.2 0  0.275 0.2 0  0.3 0.2 0  0.325 0.2 0  0.35 0.2 0  0.375 0.2 0  0.4 0.2 0  0.425 0.2 0  0.45 0.2 0  0.475 0.2 0  0.5 0.2 0  0.525 0.2 0  0.55 0.2 0  0.575 0.2 0  0.6 0.2 0  0.625 0.2 0  0.65 0.2 0  0.675 0.2 0  0.7 0.2 0  0.725 0.2 0  0.75 0.2 0  0.775 0.2 0  0.8 0.2 0  0.825 0.2 0  0.85 0.2 0  0.875 0.2 0  0.9 0.2 0  0.925 0.2 0  0.95 0.2 0  0.975 0.2 0  1 0.2 0  0 0.225 0  0.025 0.225 0  0.05 0.225 0  0.075 0.225 0  0.1 0.225 0  0.125 0.225 0  0.15 0.225 0  0.175 0.225 0  0.2 0.225 0  0.225 0.225 0  0.25 0.225 0  0.275 0.225 0  0.3 0.225 0  0.325 0.225 0  0.35 0.225 0  0.375 0.225 0  0.4 0.225 0  0.425 0.225 0  0.45 0.225 0  0.475 0.225 0  0.5 0.225 0  0.525 0.225 0  0.55 0.225 0  0.575 0.225 0  0.6 0.225 0  0.625 0.225 0  0.65 0.225 0  0.675 0.225 0  0.7 0.225 0  0.725 0.225 0  0.75 0.225 0  0.775 0.225 0  0.8 0.225 0  0.825 0.225 0  0.85 0.225 0  0.875 0.225 0  0.9 0.225 0  0.925 0.225 0  0.95 0.225 0  0.975 0.225 0  1 0.225 0  0 0.25 0  0.025 0.25 0  0.05 0.25 0  0.075 0.25 0  0.1 0.25 0  0.125 0.25 0  0.15 0.25 0  0.175 0.25 0  0.2 0.25 0  0.225 0.25 0  0.25 0.25 0  0.275 0.25 0  0.3 0.25 0  0.325 0.25 0  0.35 0.25 0  0.375 0.25 0  0.4 0.25 0  0.425 0.25 0  0.45 0.25 0  0.475 0.25 0  0.5 0.25 0  0.525 0.25 0  0.55 0.25 0  0.575 0.25 0  0.6 0.25 0  0.625 0.25 0  0.65 0.25 0  0.675 0.25 0  0.7 0.25 0  0.725 0.25 0  0.75 0.25 0  0.775 0.25 0  0.8 0.25 0  0.825 0.25 0  0.85 0.25 0  0.875 0.25 0  0.9 0.25 0  0.925 0.25 0  0.95 0.25 0  0.975 0.25 0  1 0.25 0  0 0.275 0  0.025 0.275 0  0.05 0.275 0  0.075 0.275 0  0.1 0.275 0  0.125 0.275 0  0.15 0.275 0  0.175 0.275 0  0.2 0.275 0  0.225 0.275 0  0.25 0.275 0  0.275 0.275 0  0.3 0.275 0  0.325 0.275 0  0.35 0.275 0  0.375 0.275 0  0.4 0.275 0  0.425 0.275 0  0.45 0.275 0  0.475 0.275 0  0.5 0.275 0  0.525 0.275 0  0.55 0.275 0  0.575 0.275 0  0.6 0.275 0  0.625 0.275 0  0.65 0.275 0  0.675 0.275 0  0.7 0.275 0  0.725 0.275 0  0.75 0.275 0  0.775 0.275 0  0.8 0.275 0  0.825 0.275 0  0.85 0.275 0  0.875 0.275 0  0.9 0.275 0  0.925 0.275 0  0.95 0.275 0  0.975 0.275 0  1 0.275 0  0 0.3 0  0.025 0.3 0  0.05 0.3 0  0.075 0.3 0  0.1 0.3 0  0.125 0.3 0  0.15 0.3 0  0.175 0.3 0  0.2 0.3 0  0.225 0.3 0  0.25 0.3 0  0.275 0.3 0  0.3 0.3 0  0.325 0.3 0  0.35 0.3 0  0.375 0.3 0  0.4 0.3 0  0.425 0.3 0  0.45 0.3 0  0.475 0.3 0  0.5 0.3 0  0.525 0.3 0  0.55 0.3 0  0.575 0.3 0  0.6 0.3 0  0.625 0.3 0  0.65 0.3 0  0.675 0.3 0  0.7 0.3 0  0.725 0.3 0  0.75 0.3 0  0.775 0.3 0  0.8 0.3 0  0.825 0.3 0  0.85 0.3 0  0.875 0.3 0  0.9 0.3 0  0.925 0.3 0  0.95 0.3 0  0.975 0.3 0  1 0.3 0  0 0.325 0  0.025 0.325 0  0.05 0.325 0  0.075 0.325 0  0.1 0.325 0  0.125 0.325 0  0.15 0.325 0  0.175 0.325 0  0.2 0.325 0  0.225 0.325 0  0.25 0.325 0  0.275 0.325 0  0.3 0.325 0  0.325 0.325 0  0.35 0.325 0  0.375 0.325 0  0.4 0.325 0  0.425 0.325 0  0.45 0.325 0  0.475 0.325 0  0.5 0.325 0  0.525 0.325 0  0.55 0.325 0  0.575 0.325 0  0.6 0.325 0  0.625 0.325 0  0.65 0.325 0  0.675 0.325 0  0.7 0.325 0  0.725 0.325 0  0.75 0.325 0  0.775 0.325 0  0.8 0.325 0  0.825 0.325 0  0.85 0.325 0  0.875 0.325 0  0.9 0.325 0  0.925 0.325 0  0.95 0.325 0  0.975 0.325 0  1 0.325 0  0 0.35 0  0.025 0.35 0  0.05 0.35 0  0.075 0.35 0  0.1 0.35 0  0.125 0.35 0  0.15 0.35 0  0.175 0.35 0  0.2 0.35 0  0.225 0.35 0  0.25 0.35 0  0.275 0.35 0  0.3 0.35 0  0.325 0.35 0  0.35 0.35 0  0.375 0.35 0  0.4 0.35 0  0.425 0.35 0  0.45 0.35 0  0.475 0.35 0  0.5 0.35 0  0.525 0.35 0  0.55 0.35 0  0.575 0.35 0  0.6 0.35 0  0.625 0.35 0  0.65 0.35 0  0.675 0.35 0  0.7 0.35 0  0.725 0.35 0  0.75 0.35 0  0.775 0.35 0  0.8 0.35 0  0.825 0.35 0  0.85 0.35 0  0.875 0.35 0  0.9 0.35 0  0.925 0.35 0  0.95 0.35 0  0.975 0.35 0  1 0.35 0  0 0.375 0  0.025 0.375 0  0.05 0.375 0  0.075 0.375 0  0.1 0.375 0  0.125 0.375 0  0.15 0.375 0  0.175 0.375 0  0.2 0.375 0  0.225 0.375 0  0.25 0.375 0  0.275 0.375 0  0.3 0.375 0  0.325 0.375 0  0.35 0.375 0  0.375 0.375 0  0.4 0.375 0  0.425 0.375 0  0.45 0.375 0  0.475 0.375 0  0.5 0.375 0  0.525 0.375 0  0.55 0.375 0  0.575 0.375 0  0.6 0.375 0  0.625 0.375 0  0.65 0.375 0  0.675 0.375 0  0.7 0.375 0  0.725 0.375 0  0.75 0.375 0  0.775 0.375 0  0.8 0.375 0  0.825 0.375 0  0.85 0.375 0  0.875 0.375 0  0.9 0.375 0  0.925 0.375 0  0.95 0.375 0  0.975 0.375 0  1 0.375 0  0 0.4 0  0.025 0.4 0  0.05 0.4 0  0.075 0.4 0  0.1 0.4 0  0.125 0.4 0  0.15 0.4 0  0.175 0.4 0  0.2 0.4 0  0.225 0.4 0  0.25 0.4 0  0.275 0.4 0  0.3 0.4 0  0.325 0.4 0  0.35 0.4 0  0.375 0.4 0  0.4 0.4 0  0.425 0.4 0  0.45 0.4 0  0.475 0.4 0  0.5 0.4 0  0.525 0.4 0  0.55 0.4 0  0.575 0.4 0  0.6 0.4 0  0.625 0.4 0  0.65 0.4 0  0.675 0.4 0  0.7 0.4 0  0.725 0.4 0  0.75 0.4 0  0.775 0.4 0  0.8 0.4 0  0.825 0.4 0  0.85 0.4 0  0.875 0.4 0  0.9 0.4 0  0.925 0.4 0  0.95 0.4 0  0.975 0.4 0  1 0.4 0  0 0.425 0  0.025 0.425 0  0.05 0.425 0  0.075 0.425 0  0.1 0.425 0  0.125 0.425 0  0.15 0.425 0  0.175 0.425 0  0.2 0.425 0  0.225 0.425 0  0.25 0.425 0  0.275 0.425 0  0.3 0.425 0  0.325 0.425 0  0.35 0.425 0  0.375 0.425 0  0.4 0.425 0  0.425 0.425 0  0.45 0.425 0  0.475 0.425 0  0.5 0.425 0  0.525 0.425 0  0.55 0.425 0  0.575 0.425 0  0.6 0.425 0  0.625 0.425 0  0.65 0.425 0  0.675 0.425 0  0.7 0.425 0  0.725 0.425 0  0.75 0.425 0  0.775 0.425 0  0.8 0.425 0  0.825 0.425 0  0.85 0.425 0  0.875 0.425 0  0.9 0.425 0  0.925 0.425 0  0.95 0.425 0  0.975 0.425 0  1 0.425 0  0 0.45 0  0.02
[...]
<PointData  Scalars="ControlVisualisation"> 
<DataArray  type="Float64"  Name="ControlVisualisation"  format="ascii">2.2248728246601945e-01  1.6785090857918986e-01  1.9017791133322959e-01  2.1243088805445851e-01  2.3271190566723252e-01  2.6118983771139981e-01  3.2032232901385815e-01  3.6574843967620052e-01  4.1142607424074007e-01  4.3250674369908632e-01  4.3226965977409837e-01  4.6900195916281873e-01  3.9958192552221156e-01  4.9670674497943701e-01  5.7913023045499623e-01  5.5580599874577208e-01  5.6693690278115139e-01  5.3693148177673977e-01  5.2479680344130053e-01  4.6152849021033487e-01  4.4855714587095030e-01  4.6412531751851149e-01  4.8456277996243258e-01  4.4891590870991360e-01  4.4452827330939548e-01  4.2836705323452789e-01  3.9263035492642984e-01  3.5879529070290234e-01  3.1315020467122834e-01  2.8870236790216314e-01  2.8289337708729206e-01  2.6264464230486878e-01  2.3896462080799385e-01  2.2170602364286837e-01  2.0703245272964249e-01  1.9935313119997092e-01  1.8905741619070066e-01  1.7958370071286117e-01  1.7116102208100620e-01  1.6334343472561319e-01  3.3679801834433021e-01  1.5565597785880972e-01  1.0038732727157559e-01  9.9910578031019104e-02  9.8243490867986671e-02  9.9045941809520810e-02  9.7638711396618644e-02  1.0425313924988083e-01  1.0725383122051628e-01  1.1554741634807419e-01  1.1721825338104741e-01  1.1071741742009325e-01  1.3902923304866260e-01  1.0920975509602679e-01  1.5482394927246740e-01  1.7667355685747982e-01  2.0668725782513273e-01  2.0055326366615894e-01  1.8713507351548292e-01  1.9725893619091184e-01  1.9182257444172887e-01  1.8575036592449501e-01  2.5031252408363613e-01  2.3422185370649592e-01  2.5778444477619067e-01  1.7561088037754780e-01  1.8040598973220193e-01  2.2191865028761271e-01  1.7417423622064446e-01  1.5283429908176016e-01  1.3610289076518065e-01  1.3505498367756708e-01  1.3946792908553368e-01  1.2242741990035202e-01  1.1020997943699090e-01  1.0481223319509526e-01  1.0415798636634119e-01  1.0409032392601686e-01  1.0272536441145633e-01  1.0154346829076316e-01  1.0070657011652617e-01  1.6323441558794988e-01  1.4223743024487923e-01  1.0220497507469889e-01  1.0183783657261103e-01  9.6903188191092837e-02  9.4169754475536480e-02  9.2969281295102513e-02  9.8198708688881198e-02  9.5257108676898933e-02  9.2054662990648017e-02  1.0291821113908819e-01  9.6364193735392470e-02  1.0152082976516209e-01  1.0152433482432838e-01  1.3479105735153768e-01  1.3320944114463856e-01  1.2546419865709077e-01  1.4325170365299292e-01  1.6411208610763536e-01  2.0399037796175257e-01  1.7600476512371405e-01  1.8838786006266578e-01  3.1153600391798875e-01  2.5380730155718689e-01  1.6267129449838363e-01  1.4840149833962074e-01  1.4023697751667225e-01  1.5643847975589215e-01  1.5219254054462844e-01  1.3988348534567471e-01  1.2258939028499083e-01  1.1478781649942821e-01  1.2197272375869678e-01  1.0990370857799911e-01  1.0126854909768779e-01  9.9232980333139376e-02  9.8758520168293923e-02  9.9625091596060117e-02  1.0019105637875406e-01  1.0047913601713884e-01  1.0107771024158849e-01  1.7056054784751837e-01  1.3318377578381613e-01  1.0548009602039436e-01  1.1459658604893833e-01  1.0651397353763310e-01  1.0713342612014283e-01  1.0625172484567533e-01  1.2050921640083934e-01  1.2789287021245746e-01  1.0179037095512508e-01  1.1808741894885477e-01  1.2221613570267226e-01  1.2237802078099552e-01  1.5685663464487495e-01  1.5430154498992113e-01  1.6427252509903639e-01  1.7965697714235124e-01  2.8677295428725214e-01  3.6251113900072307e-01  4.8288812893074962e-01  5.3240859888340619e-01  2.1171167749015130e-01  5.1302700483332697e-01  4.0171601779939403e-01  1.6967635398204620e-01  1.4443601154998792e-01  1.5584594676779118e-01  1.7562950104824643e-01  1.5530482609580584e-01  1.4689696030828017e-01  1.5308106540328423e-01  1.3664347083308867e-01  1.3026792668924558e-01  1.1899623721083175e-01  1.0514765976220675e-01  1.0023480507545268e-01  1.0000144850176665e-01  1.0005700767900386e-01  1.0198039101008388e-01  1.0057600029477173e-01  1.0155477269928083e-01  1.7782835826260240e-01  1.2710067998878372e-01  1.0925835606241516e-01  1.6111222676424042e-01  1.5055418390890360e-01  1.4472764156057830e-01  1.6982423568901572e-01  1.5944575862860355e-01  2.0461633617462824e-01  1.4190479972924078e-01  1.8897308955595016e-01  1.6822926086037485e-01  1.3382987836316054e-01  1.6273969771013663e-01  1.6224058269885208e-01  1.5274029589266627e-01  2.2500033472152892e-01  3.7657701419067691e-01  3.4428508032260452e-01  5.8873056146226599e-01  4.1559730840225023e-01  1.7530308446405093e-01  2.1697412167259150e-01  3.1213625953942770e-01  1.6780187634071675e-01  1.6158764645261264e-01  1.6211398543583230e-01  2.0000444409289581e-01  1.5394854425041932e-01  1.4863296060660811e-01  1.5658921976197646e-01  1.4826216434583486e-01  1.3507385633568941e-01  1.1824904761964676e-01  1.0984395653294754e-01  1.0288945994251467e-01  9.9002272252914095e-02  9.9556842678493324e-02  1.0018271184165495e-01  1.0068495537523897e-01  1.0327119921421957e-01  1.8745078482294047e-01  1.2480963937584891e-01  1.3973277565770986e-01  6.9393647947479853e-01  5.9555987791933940e-01  4.3977547744330331e-01  4.4182439771168724e-01  2.4836408412785746e-01  2.4914015189961075e-01  1.9595295554035630e-01  3.2614725210271339e-01  4.4951510679310935e-01  1.5425812269074654e-01  1.3513135845301663e-01  1.2364653014609163e-01  1.2871643728354087e-01  1.3708360055486557e-01  1.6944476686617738e-01  1.6318869640879541e-01  3.2566351155461137e-01  1.6131704303426153e-01  1.2835267386476323e-01  1.6176682919038804e-01  1.5950082242341387e-01  1.4818155090712010e-01  1.2128351643636068e-01  1.4931785093474165e-01  1.7460493330023569e-01  1.4777563723381892e-01  1.3275193918035533e-01  1.3229118923120076e-01  1.2569841124607761e-01  1.2142997653959652e-01  1.1181057069064185e-01  1.0611488446887285e-01  1.0426852578726264e-01  9.9163860535409598e-02  9.8188892261666716e-02  9.8079261292974312e-02  9.9613796126690912e-02  1.0742320766584310e-01  2.0144285516527588e-01  1.2460394473235722e-01  6.3552206213442008e-01  6.8795375180956442e-01  7.7969849413283687e-01  8.4727411827365273e-01  8.4969615095024909e-01  7.2275055399993526e-01  5.8107340278330499e-01  4.6093994802188598e-01  5.8790764458171862e-01  8.0402949227026199e-01  3.1403418321392446e-01  2.0453949055845308e-01  2.0234679205945189e-01  1.6028211567034514e-01  1.6768581037239227e-01  1.5594650547437891e-01  1.6538525465666185e-01  2.7673551530329477e-01  1.5600664290552188e-01  1.3343367158176583e-01  1.2418902434702701e-01  1.1888119564727839e-01  1.4014653212967321e-01  1.1953007683423453e-01  1.3365826965417171e-01  1.8846180628511280e-01  1.5515200373324212e-01  1.3697966317282390e-01  1.2574231933031735e-01  1.2048917989184940e-01  1.1458007503536204e-01  1.0490922783838622e-01  1.0252542161222082e-01  1.0136315555913271e-01  1.0049214670542095e-01  1.0035807110207451e-01  9.7575828477174553e-02  1.0104162080468168e-01  1.0956806946803585e-01  2.1422965791674675e-01  8.8843242716280479e-01  8.9634508400379309e-01  9.0259302557480758e-01  8.9904273390082357e-01  8.9168583168280680e-01  8.8237439138490825e-01  8.7374602925055600e-01  8.2264426677350599e-01  6.7036876964750136e-01  8.2490497877682412e-01  7.6581352839321226e-01  5.8498048812075143e-01  6.2619700721106286e-01  4.4581615067379321e-01  2.3990438027509819e-01  2.9257227306063183e-01  1.9970282845459639e-01  1.9747589578903479e-01  1.8931055874162178e-01  1.5727634162377974e-01  1.3653615646434264e-01  1.1259236662591179e-01  1.2579987312302679e-01  1.3099113445729288e-01  1.1129524758159060e-01  1.1192681095221788e-01  1.6094407477077483e-01  1.5231791471866882e-01  1.3308356016470205e-01  1.1418187840777722e-01  1.1268196491218430e-01  1.1254767905641475e-01  1.0054535576232856e-01  1.0136531904487592e-01  1.0010006481652056e-01  9.7720129362449837e-02  9.5448959970673625e-02  9.4970773990149068e-02  1.0145992362958881e-01  1.1365231194940312e-01  2.2771139642634031e-01  9.5971752931366772e-01  9.7019394348705024e-01  9.6413843863327808e-01  9.5394776688167771e-01  9.4019339941786684e-01  9.2592515348922300e-01  9.1031404594085519e-01  8.9325075819464850e-01  7.6109622416540701e-01  8.3130120383447248e-01  7.7188515107411593e-01  4.7783680886778923e-01  4.2842259978144753e-01  5.0663131023475350e-01  2.4160901710486227e-01  7.5194619179495925e-01  2.3090122188508130e-01  1.7377922904814364e-01  1.7590088870491910e-01  1.7739702268516477e-01  1.6348106103908525e-01  1.1312630081513983e-01  1.4194459251715280e-01  1.6713323747295378e-01  1.1102453328233157e-01  1.0943580868086017e-01  1.1583638054673388e-01  1.2727277591595254e-01  1.2752387290883041e-01  1.0806609004058032e-01  1.0634218643933910e-01  1.0444910313608705e-01  1.0250933290663410e-01  1.0345451294387396e-01  9.9520515336243065e-02  9.6153131695083133e-02  9.2383117758251421e-02  9.4354211187451409e-02  1.0317503685120312e-01  1.1655882643762286e-01  2.4205754035287233e-01  9.7554221891484816e-01  9.8452788546647840e-01  9.7953878231144265e-01  9.7187371405879253e-01  9.6142567879175977e-01  9.5000306758625608e-01  9.3693937366042401e-01  9.2071413551539683e-01  8.7428499702548901e-01  7.9059014017229845e-01  7.6713718613761483e-01  6.8030930984281190e-01  4.4634480229343376e-01  5.9405648592313520e-01  3.4987048972544127e-01  4.5346151319358441e-01  3.4427953256177868e-01  1.5996603670482262e-01  3.5224431279544810e-01  2.2750850497132299e-01  2.6436714783350107e-01  1.3529626239814249e-01  1.6275086739945785e-01  1.7142427565946594e-01  1.1281364415292616e-01  1.2461280588998480e-01  1.1198885967197117e-01  1.2324749362911014e-01  1.3454762262479833e-01  1.2101010754323908e-01  1.0710549018299263e-01  1.0386518657686247e-01  1.1188412136532497e-01  1.0355971659351287e-01  9.7221160417474695e-02  9.8684758381458570e-02  9.6659933223552458e-02  9.9139361330526934e-02  1.0427393702901397e-01  1.2216498812437238e-01  2.6294851350678067e-01  9.7815363536153344e-01  9.8726570746312403e-01  9.8321125586872837e-01  9.7711390889860961e-01  9.6916422749013087e-01  9.6048859464363578e-01  9.4952088559416792e-01  9.3563489613340700e-01  9.0945996451548428e-01  8.5671248695134894e-01  7.7028022264134832e-01  7.3969013218823632e-01  5.4671148907426637e-01  5.2975579482764901e-01  6.6095565920700128e-01  4.6547478769048717e-01  4.8670688832530146e-01  3.3747854455441983e-01  5.6762796013907768e-01  3.0283480775427485e-01  2.8264835357729218e-01  1.2839401956561766e-01  1.6183325602005688e-01  1.6493501493966303e-01  1.0050481966912428e-01  1.2669708340695376e-01  1.4330405597901053e-01  1.4216286793125676e-01  1.2061188059495517e-01  1.1451600081101392e-01  1.1662475180692043e-01  1.0914264064923743e-01  1.1998950651067264e-01  1.1359218939967537e-01  9.8540785225719768e-02  9.6238922944197669e-02  9.4534167660225404e-02  9.7585523451659176e-02  1.0196057447738138e-01  1.2014862347380162e-01  2.8579988457834782e-01  9.7290165580464794e-01  9.8537861324859699e-01  9.8182453714362905e-01  9.7657981996522392e-01  9.7018996092510668e-01  9.6246666523938451e-01  9.5339434961345615e-01  9.4229238451872233e-01  9.2961683509954507e-01  9.0187974961494199e-01  8.6146101215133253e-01  7.9667575103105015e-01  7.5783019378684846e-01  7.1635881608763485e-01  8.4969235828929501e-01  7.1892510348971084e-01  6.1831566505629154e-01  7.4301377014840164e-01  7.4112491416681470e-01  4.0843726002375380e-01  3.0800599063613981e-01  1.7791815491805862e-01  1.5937478801434013e-01  2.3542071864352521e-01  1.2291894496871045e-01  1.3244766926148738e-01  2.6005041116190758e-01  2.1375065730911319e-01  1.5505819076645794e-01  1.3305255821516165e-01  1.1921908419101834e-01  1.2165126033114990e-01  1.3294067540931859e-01  1.3064101063639555e-01  9.7625979574370414e-02  9.0743364225471079e-02  8.9356218796097259e-02  9.2712401939419820e-02  9.7679309476269918e-02  1.1853782117483636e-01  2.9268331519291746e-01  9.4972752328022436e-01  9.7517894906104474e-01  9.7324631652301152e-01  9.6982413374788079e-01  9.6546240971313413e-01  9.5988889551731515e-01  9.5243778952768443e-01  9.4455402252168841e-01  9.3671601485980371e-01  9.2327868602466223e-01  9.0433451303419055e-01  8.6055775077711161e-01  8.6431716178469742e-01  7.4460837017023629e-01  7.1739820876239635e-01  5.3781989440166178e-01  5.8975667636928519e-01  7.3210404778056382e-01  8.1364928822733062e-01  5.7235575938383976e-01  3.0825831355506650e-01  2.2434008564595706e-01  1.5444840256185341e-01  2.5027196125094131e-01  2.0264525930008695e-01  1.6855324418550194e-01  2.3412680584064122e-01  1.6644990977746354e-01  1.6103590669551798e-01  1.6045410915756519e-01  1.2032849051343969e-01  1.1172168778088201e-01  1.0744793168921996e-01  1.0771291841057981e-01  9.4279117483570610e-02  8.8804578873449183e-02  8.8770942425722629e-02  9.1439094764704215e-02  9.5763238440474324e-02  1.1989155623124280e-01  3.1932317762425838e-01  8.5747928803103279e-01  9.2414195367152008e-01  9.4622212655168758e-01  9.5270117571518853e-01  9.5356305030217381e-01  9.5257534331540994e-01  9.4901955083867628e-01  9.4186799128275600e-01  9.3314525327806186e-01  9.2717659543497155e-01  9.1742023121279315e-01  8.9041051222444267e-01  8.7997629266536348e-01  7.8604710371704312e-01  7.1786675999849092e-01  6.3655174568851702e-01  6.9067528610911100e-01  8.2685181228481841e-01  8.3812949483118748e-01  7.5261461053732903e-01  4.4483557176236782e-01  3.7202344856888792e-01  1.9262768169831615e-01  3.0777630227352148e-01  1.5814266834608848e-01  1.5243813043781021e-01  2.0934147090525351e-01  1.7046731683282915e-01  1.9238123586176742e-01  1.7859558467060416e-01  1.3157181191317260e-01  1.3871213317561332e-01  1.1718510702893520e-01  1.1051124875527184e-01  9.7346551725895028e-02  9.1552118967975854e-02  8.9804680948938329e-02  9.3173854954254731e-02  9.8942842054106639e-02  1.3185441530951097e-01  3.5934818205438024e-01  8.3910102844734191e-01  7.6519417362796083e-01  8.7687365461148037e-01  9.1635635521871850e-01  9.3234214854049302e-01  9.3756043535164035e-01  9.3728126235028975e-01  9.3120379359122041e-01  9.2293868654036326e-01  9.1466046949039204e-01  9.1362950944670818e-01  9.0665407847812673e-01  9.3385378003081698e-01  8.3371602534086120e-01  7.9722212541668580e-01  7.6995114780879681e-01  7.2543083159241606e-01  8.5785847748697763e-01  8.5755900816692554e-01  7.9196333889971215e-01  4.5167617405077842e-01  4.3940704970737948e-01  2.6688383514170866e-01  2.1840246773991945e-01  1.0102202699809512e-01  9.6022793144768567e-02  1.2429353215756289e-01  1.5169353204860966e-01  1.6789784435770025e-01  1.2040077265297970e-01  1.0954387771345456e-01  1.2165813873810581e-01  1.1570242176120107e-01  1.0468114257939298e-01  9.5730179775902813e-02  9.0744149141550767e-02  9.2406726290672245e-02  9.3929553704369728e-02  1.0596242228702951e-01  1.4382869182650565e-01  3.9291083248982894e-01  8.2052547540367948e-01  7.6660391025300056e-01  6.2826344748920770e-01  8.6793985405760765e-01  8.9690202854683820e-01  9.1019773031363038e-01  9.2010337912247175e-01  9.2056259866010537e-01  9.7057136474994876e-01  9.7343567167357425e-01  9.2466526540999938e-01  9.1320210684984027e-01  9.3225926853103769e-01  8.9673883811011446e-01  9.0171306111876481e-01  8.2108128857256202e-01  7.5955988903649452e-01  8.0542243441397421e-01  7.8376118096311598e-01  7.5334316774364107e-01  6.1836286441289234e-01  5.0436439219525830e-01  2.9951816857273944e-01  2.2671184342471143e-01  9.9600883480397112e-02  8.8461565122931990e-02  9.8159518798999423e-02  1.0045987253463792e-01  1.5210750299482917e-01  1.1074163565051560e-01  1.0962610274505968e-01  1.0211466420495249e-01  1.0899289535829398e-01  1.0967574624214474e-01  1.0159515121873389e-01  9.3348493620874246e-02  9.1325798265981514e-02  9.9925633086645815e-02  1.0761380671502541e-01  1.5759955580248738e-01  4.4291379210596726e-01  8.0139147881392558e-01  7.4052894199917785e-01  5.1013024223027514e-01  8.2249258896254984e-01  8.7108056862132510e-01  8.7377092379733945e-01  9.0407742898867749e-01  9.1398235418985241e-01  8.9573513764792478e-01  9.1202765273086439e-01  9.2598731014474378e-01  9.2705358989021747e-01  9.1864498009066475e-01  9.0666100068607236e-01  9.2018763932446657e-01  9.2477094715521491e-01  9.2597094449301209e-01  8.7493796916218092e-01  8.4452369382410963e-01  8.6343986645188198e-01  8.8392523940541912e-01  8.5573600853420462e-01  5.8528479851240833e-01  5.0376106762792550e-01  1.7343928178107393e-01  1.2443915544193618e-01  1.0042092792207148e-01  9.9712448308687307e-02  1.2881431468588730e-01  1.4362678954314159e-01  1.6153236239300836e-01  1.1814282607471235e-01  1.1885093943987836e-01  1.5345880444757362e-01  1.1575059976869745e-01  1.0350031405260977e-01  1.0239185452439858e-01  9.7076041197499463e-02  1.0441546439516153e-01  1.3712807345132416e-01  4.7411045562153176e-01  7.1419500431418093e-01  2.0803113136311099e-01  1.7846813511133261e-01  6.0443349660945755e-01  8.3026895122531397e-01  5.8703596508854661e-01  8.7395323379768131e-01  8.7190754169287865e-01  8.6177365654223503e-01  8.8934772461688394e-01  9.1465511372340935e-01  9.2012627799331070e-01  9.2535606093336331e-01  9.2000601346620092e-01  9.0518505066478161e-01  9.6583139851694444e-01  9.2832699736537028e-01  8.9770405763212835e-01  9.1031718019644570e-01  9.1537523112342611e-01  9.1162342616783010e-01  8.9144990023739645e-01  8.2114936898569846e-01  6.3985033571966443e-01  3.8515618530607632e-01  2.5351395611310279e-01  2.0192495671918054e-01  2.0598797931302337e-01  1.3486444754352123e-01  1.5454883515026552e-01  1.3826486384185133e-01  1.1402549153652917e-01  1.2197390257399164e-01  1.4347941792372637e-01  1.1917863380049012e-01  1.0165994557223378e-01  1.0565013523135067e-01  1.0824618093228491e-01  9.9909364623698385e-02  1.4377414620262841e-01  5.1344930938052558e-01  6.3658711351048392e-01  1.6676977862229292e-01  1.9260657450598859e-01  5.3884168880714123e-01  6.7593659670765072e-01  6.4406612780372163e-01  8.5844156744879652e-01  8.6052549675893730e-01  8.3540436390396977e-01  8.8888833106391241e-01  9.0406419454456244e-01  9.1208862319887529e-01  9.2250849399630575e-01  9.2754319929156404e-01  9.0500518494235394e-01  9.1105867702064558e-01  9.2434903390334078e-01  9.2840803668209726e-01  9.3388583534479952e-01  9.3441472976587314e-01  9.2923194845957047e-01  9.1654526258120772e-01  8.9225270828895153e-01  8.2020995544921893e-01  6.8592066726632372e-01  3.9138867698749191e-01  2.7550795930627320e-01  4.0050003748863783e-01  1.8530534339263985e-01  1.4348572472215904e-01  1.1307141684636032e-01  1.2010608861025671e-01  1.2166650199646227e-01  1.2494652082574609e-01  1.0707489589212513e-01  9.4449848648775730e-02  9.1714855878358731e-02  1.0486195262894629e-01  1.4108017988362645e-01  2.0370747255042645e-01  5.7755271331479818e-01  6.2971379209219314e-01  1.6093271816659577e-01  1.4106785679856770e-01  3.7826468545966502e-01  6.5032066667014798e-01  6.7110900963153486e-01  8.3164921786473567e-01  8.4958190804275524e-01  8.1766199432609021e-01  7.9176826116085053e-01  8.5952306311120252e-01  9.0255554188796872e-01  9.1807564215103410e-01  9.2291663648497557e-01  8.9892527017212309e-01  9.0470567379038125e-01  9.3343259919822641e-01  9.3668588180009715e-01  9.3966805669597964e-01  9.4154503926085908e-01  9.3963359973797056e-01  9.1990145748216523e-01  9.0216572252551896e-01  8.8348134326495353e-01  7.9983195902286075e-01  5.9422547829331973e-01  3.8222374531315900e-01  2.4556518305566205e-01  1.2065974646495756e-01  9.9927522014336106e-02  9.5830386581663513e-02  9.9531234679300667e-02  1.2424065897641190e-01  1.0675899539353012e-01  9.4843888234019097e-02  9.5164244039136328e-02  9.4953041200801558e-02  1.0237195549057609e-01  1.4178360154452219e-01  2.5546234083197367e-01  6.7626994681038022e-01  6.1348252948358151e-01  1.4145792880001901e-01  1.0884239805593451e-01  1.5867486279918430e-01  2.7759788517400974e-01  4.2620187197526832e-01  5.6258676125260687e-01  4.1769992536707229e-01  4.752241003