<?xml version="1.0"?>
<VTKFile type="UnstructuredGrid"  version="0.1"  >
<UnstructuredGrid>
<Piece  NumberOfPoints="1681" NumberOfCells="3200">
<Points>
<DataArray  type="Float64"  NumberOfComponents="3"  format="ascii">0 0 0  0.025 0 0  0.05 0 0  0.075 0 0  0.1 0 0  0.125 0 0  0.15 0 0  0.175 0 0  0.2 0 0  0.225 0 0  0.25 0 0  0.275 0 0  0.3 0 0  0.325 0 0  0.35 0 0  0.375 0 0  0.4 0 0  0.425 0 0  0.45 0 0  0.475 0 0  0.5 0 0  0.525 0 0  0.55 0 0  0.575 0 0  0.6 0 0  0.625 0 0  0.65 0 0  0.675 0 0  0.7 0 0  0.725 0 0  0.75 0 0  0.775 0 0  0.8 0 0  0.825 0 0  0.85 0 0  0.875 0 0  0.9 0 0  0.925 0 0  0.95 0 0  0.975 0 0  1 0 0  0 0.025 0  0.025 0.025 0  0.05 0.025 0  0.075 0.025 0  0.1 0.025 0  0.125 0.025 0  0.15 0.025 0  0.175 0.025 0  0.2 0.025 0  0.225 0.025 0  0.25 0.025 0  0.275 0.025 0  0.3 0.025 0  0.325 0.025 0  0.35 0.025 0  0.375 0.025 0  0.4 0.025 0  0.425 0.025 0  0.45 0.025 0  0.475 0.025 0  0.5 0.025 0  0.525 0.025 0  0.55 0.025 0  0.575 0.025 0  0.6 0.025 0  0.625 0.025 0  0.65 0.025 0  0.675 0.025 0  0.7 0.025 0  0.725 0.025 0  0.75 0.025 0  0.775 0.025 0  0.8 0.025 0  0.825 0.025 0  0.85 0.025 0  0.875 0.025 0  0.9 0.025 0  0.925 0.025 0  0.95 0.025 0  0.975 0.025 0  1 0.025 0  0 0.05 0  0.025 0.05 0  0.05 0.05 0  0.075 0.05 0  0.1 0.05 0  0.125 0.05 0  0.15 0.05 0  0.175 0.05 0  0.2 0.05 0  0.225 0.05 0  0.25 0.05 0  0.275 0.05 0  0.3 0.05 0  0.325 0.05 0  0.35 0.05 0  0.375 0.05 0  0.4 0.05 0  0.425 0.05 0  0.45 0.05 0  0.475 0.05 0  0.5 0.05 0  0.525 0.05 0  0.55 0.05 0  0.575 0.05 0  0.6 0.05 0  0.625 0.05 0  0.65 0.05 0  0.675 0.05 0  0.7 0.05 0  0.725 0.05 0  0.75 0.05 0  0.775 0.05 0  0.8 0.05 0  0.825 0.05 0  0.85 0.05 0  0.875 0.05 0  0.9 0.05 0  0.925 0.05 0  0.95 0.05 0  0.975 0.05 0  1 0.05 0  0 0.075 0  0.025 0.075 0  0.05 0.075 0  0.075 0.075 0  0.1 0.075 0  0.125 0.075 0  0.15 0.075 0  0.175 0.075 0  0.2 0.075 0  0.225 0.075 0  0.25 0.075 0  0.275 0.075 0  0.3 0.075 0  0.325 0.075 0  0.35 0.075 0  0.375 0.075 0  0.4 0.075 0  0.425 0.075 0  0.45 0.075 0  0.475 0.075 0  0.5 0.075 0  0.525 0.075 0  0.55 0.075 0  0.575 0.075 0  0.6 0.075 0  0.625 0.075 0  0.65 0.075 0  0.675 0.075 0  0.7 0.075 0  0.725 0.075 0  0.75 0.075 0  0.775 0.075 0  0.8 0.075 0  0.825 0.075 0  0.85 0.075 0  0.875 0.075 0  0.9 0.075 0  0.925 0.075 0  0.95 0.075 0  0.975 0.075 0  1 0.075 0  0 0.1 0  0.025 0.1 0  0.05 0.1 0  0.075 0.1 0  0.1 0.1 0  0.125 0.1 0  0.15 0.1 0  0.175 0.1 0  0.2 0.1 0  0.225 0.1 0  0.25 0.1 0  0.275 0.1 0  0.3 0.1 0  0.325 0.1 0  0.35 0.1 0  0.375 0.1 0  0.4 0.1 0  0.425 0.1 0  0.45 0.1 0  0.475 0.1 0  0.5 0.1 0  0.525 0.1 0  0.55 0.1 0  0.575 0.1 0  0.6 0.1 0  0.625 0.1 0  0.65 0.1 0  0.675 0.1 0  0.7 0.1 0  0.725 0.1 0  0.75 0.1 0  0.775 0.1 0  0.8 0.1 0  0.825 0.1 0  0.85 0.1 0  0.875 0.1 0  0.9 0.1 0  0.925 0.1 0  0.95 0.1 0  0.975 0.1 0  1 0.1 0  0 0.125 0  0.025 0.125 0  0.05 0.125 0  0.075 0.125 0  0.1 0.125 0  0.125 0.125 0  0.15 0.125 0  0.175 0.125 0  0.2 0.125 0  0.225 0.125 0  0.25 0.125 0  0.275 0.125 0  0.3 0.125 0  0.325 0.125 0  0.35 0.125 0  0.375 0.125 0  0.4 0.125 0  0.425 0.125 0  0.45 0.125 0  0.475 0.125 0  0.5 0.125 0  0.525 0.125 0  0.55 0.125 0  0.575 0.125 0  0.6 0.125 0  0.625 0.125 0  0.65 0.125 0  0.675 0.125 0  0.7 0.125 0  0.725 0.125 0  0.75 0.125 0  0.775 0.125 0  0.8 0.125 0  0.825 0.125 0  0.85 0.125 0  0.875 0.125 0  0.9 0.125 0  0.925 0.125 0  0.95 0.125 0  0.975 0.125 0  1 0.125 0  0 0.15 0  0.025 0.15 0  0.05 0.15 0  0.075 0.15 0  0.1 0.15 0  0.125 0.15 0  0.15 0.15 0  0.175 0.15 0  0.2 0.15 0  0.225 0.15 0  0.25 0.15 0  0.275 0.15 0  0.3 0.15 0  0.325 0.15 0  0.35 0.15 0  0.375 0.15 0  0.4 0.15 0  0.425 0.15 0  0.45 0.15 0  0.475 0.15 0  0.5 0.15 0  0.525 0.15 0  0.55 0.15 0  0.575 0.15 0  0.6 0.15 0  0.625 0.15 0  0.65 0.15 0  0.675 0.15 0  0.7 0.15 0  0.725 0.15 0  0.75 0.15 0  0.775 0.15 0  0.8 0.15 0  0.825 0.15 0  0.85 0.15 0  0.875 0.15 0  0.9 0.15 0  0.925 0.15 0  0.95 0.15 0  0.975 0.15 0  1 0.15 0  0 0.175 0  0.025 0.175 0  0.05 0.175 0  0.075 0.175 0  0.1 0.175 0  0.125 0.175 0  0.15 0.175 0  0.175 0.175 0  0.2 0.175 0  0.225 0.175 0  0.25 0.175 0  0.275 0.175 0  0.3 0.175 0  0.325 0.175 0  0.35 0.175 0  0.375 0.175 0  0.4 0.175 0  0.425 0.175 0  0.45 0.175 0  0.475 0.175 0  0.5 0.175 0  0.525 0.175 0  0.55 0.175 0  0.575 0.175 0  0.6 0.175 0  0.625 0.175 0  0.65 0.175 0  0.675 0.175 0  0.7 0.175 0  0.725 0.175 0  0.75 0.175 0  0.775 0.175 0  0.8 0.175 0  0.825 0.175 0  0.85 0.175 0  0.875 0.175 0  0.9 0.175 0  0.925 0.175 0  0.95 0.175 0  0.975 0.175 0  1 0.175 0  0 0.2 0  0.025 0.2 0  0.05 0.2 0  0.075 0.2 0  0.1 0.2 0  0.125 0.2 0  0.15 0.2 0  0.175 0.2 0  0.2 0.2 0  0.225 0.2 0  0.25 0.2 0  0.275 0.2 0  0.3 0.2 0  0.325 0.2 0  0.35 0.2 0  0.375 0.2 0  0.4 0.2 0  0.425 0.2 0  0.45 0.2 0  0.475 0.2 0  0.5 0.2 0  0.525 0.2 0  0.55 0.2 0  0.575 0.2 0  0.6 0.2 0  0.625 0.2 0  0.65 0.2 0  0.675 0.2 0  0.7 0.2 0  0.725 0.2 0  0.75 0.2 0  0.775 0.2 0  0.8 0.2 0  0.825 0.2 0  0.85 0.2 0  0.875 0.2 0  0.9 0.2 0  0.925 0.2 0  0.95 0.2 0  0.975 0.2 0  1 0.2 0  0 0.225 0  0.025 0.225 0  0.05 0.225 0  0.075 0.225 0  0.1 0.225 0  0.125 0.225 0  0.15 0.225 0  0.175 0.225 0  0.2 0.225 0  0.225 0.225 0  0.25 0.225 0  0.275 0.225 0  0.3 0.225 0  0.325 0.225 0  0.35 0.225 0  0.375 0.225 0  0.4 0.225 0  0.425 0.225 0  0.45 0.225 0  0.475 0.225 0  0.5 0.225 0  0.525 0.225 0  0.55 0.225 0  0.575 0.225 0  0.6 0.225 0  0.625 0.225 0  0.65 0.225 0  0.675 0.225 0  0.7 0.225 0  0.725 0.225 0  0.75 0.225 0  0.775 0.225 0  0.8 0.225 0  0.825 0.225 0  0.85 0.225 0  0.875 0.225 0  0.9 0.225 0  0.925 0.225 0  0.95 0.225 0  0.975 0.225 0  1 0.225 0  0 0.25 0  0.025 0.25 0  0.05 0.25 0  0.075 0.25 0  0.1 0.25 0  0.125 0.25 0  0.15 0.25 0  0.175 0.25 0  0.2 0.25 0  0.225 0.25 0  0.25 0.25 0  0.275 0.25 0  0.3 0.25 0  0.325 0.25 0  0.35 0.25 0  0.375 0.25 0  0.4 0.25 0  0.425 0.25 0  0.45 0.25 0  0.475 0.25 0  0.5 0.25 0  0.525 0.25 0  0.55 0.25 0  0.575 0.25 0  0.6 0.25 0  0.625 0.25 0  0.65 0.25 0  0.675 0.25 0  0.7 0.25 0  0.725 0.25 0  0.75 0.25 0  0.775 0.25 0  0.8 0.25 0  0.825 0.25 0  0.85 0.25 0  0.875 0.25 0  0.9 0.25 0  0.925 0.25 0  0.95 0.25 0  0.975 0.25 0  1 0.25 0  0 0.275 0  0.025 0.275 0  0.05 0.275 0  0.075 0.275 0  0.1 0.275 0  0.125 0.275 0  0.15 0.275 0  0.175 0.275 0  0.2 0.275 0  0.225 0.275 0  0.25 0.275 0  0.275 0.275 0  0.3 0.275 0  0.325 0.275 0  0.35 0.275 0  0.375 0.275 0  0.4 0.275 0  0.425 0.275 0  0.45 0.275 0  0.475 0.275 0  0.5 0.275 0  0.525 0.275 0  0.55 0.275 0  0.575 0.275 0  0.6 0.275 0  0.625 0.275 0  0.65 0.275 0  0.675 0.275 0  0.7 0.275 0  0.725 0.275 0  0.75 0.275 0  0.775 0.275 0  0.8 0.275 0  0.825 0.275 0  0.85 0.275 0  0.875 0.275 0  0.9 0.275 0  0.925 0.275 0  0.95 0.275 0  0.975 0.275 0  1 0.275 0  0 0.3 0  0.025 0.3 0  0.05 0.3 0  0.075 0.3 0  0.1 0.3 0  0.125 0.3 0  0.15 0.3 0  0.175 0.3 0  0.2 0.3 0  0.225 0.3 0  0.25 0.3 0  0.275 0.3 0  0.3 0.3 0  0.325 0.3 0  0.35 0.3 0  0.375 0.3 0  0.4 0.3 0  0.425 0.3 0  0.45 0.3 0  0.475 0.3 0  0.5 0.3 0  0.525 0.3 0  0.55 0.3 0  0.575 0.3 0  0.6 0.3 0  0.625 0.3 0  0.65 0.3 0  0.675 0.3 0  0.7 0.3 0  0.725 0.3 0  0.75 0.3 0  0.775 0.3 0  0.8 0.3 0  0.825 0.3 0  0.85 0.3 0  0.875 0.3 0  0.9 0.3 0  0.925 0.3 0  0.95 0.3 0  0.975 0.3 0  1 0.3 0  0 0.325 0  0.025 0.325 0  0.05 0.325 0  0.075 0.325 0  0.1 0.325 0  0.125 0.325 0  0.15 0.325 0  0.175 0.325 0  0.2 0.325 0  0.225 0.325 0  0.25 0.325 0  0.275 0.325 0  0.3 0.325 0  0.325 0.325 0  0.35 0.325 0  0.375 0.325 0  0.4 0.325 0  0.425 0.325 0  0.45 0.325 0  0.475 0.325 0  0.5 0.325 0  0.525 0.325 0  0.55 0.325 0  0.575 0.325 0  0.6 0.325 0  0.625 0.325 0  0.65 0.325 0  0.675 0.325 0  0.7 0.325 0  0.725 0.325 0  0.75 0.325 0  0.775 0.325 0  0.8 0.325 0  0.825 0.325 0  0.85 0.325 0  0.875 0.325 0  0.9 0.325 0  0.925 0.325 0  0.95 0.325 0  0.975 0.325 0  1 0.325 0  0 0.35 0  0.025 0.35 0  0.05 0.35 0  0.075 0.35 0  0.1 0.35 0  0.125 0.35 0  0.15 0.35 0  0.175 0.35 0  0.2 0.35 0  0.225 0.35 0  0.25 0.35 0  0.275 0.35 0  0.3 0.35 0  0.325 0.35 0  0.35 0.35 0  0.375 0.35 0  0.4 0.35 0  0.425 0.35 0  0.45 0.35 0  0.475 0.35 0  0.5 0.35 0  0.525 0.35 0  0.55 0.35 0  0.575 0.35 0  0.6 0.35 0  0.625 0.35 0  0.65 0.35 0  0.675 0.35 0  0.7 0.35 0  0.725 0.35 0  0.75 0.35 0  0.775 0.35 0  0.8 0.35 0  0.825 0.35 0  0.85 0.35 0  0.875 0.35 0  0.9 0.35 0  0.925 0.35 0  0.95 0.35 0  0.975 0.35 0  1 0.35 0  0 0.375 0  0.025 0.375 0  0.05 0.375 0  0.075 0.375 0  0.1 0.375 0  0.125 0.375 0  0.15 0.375 0  0.175 0.375 0  0.2 0.375 0  0.225 0.375 0  0.25 0.375 0  0.275 0.375 0  0.3 0.375 0  0.325 0.375 0  0.35 0.375 0  0.375 0.375 0  0.4 0.375 0  0.425 0.375 0  0.45 0.375 0  0.475 0.375 0  0.5 0.375 0  0.525 0.375 0  0.55 0.375 0  0.575 0.375 0  0.6 0.375 0  0.625 0.375 0  0.65 0.375 0  0.675 0.375 0  0.7 0.375 0  0.725 0.375 0  0.75 0.375 0  0.775 0.375 0  0.8 0.375 0  0.825 0.375 0  0.85 0.375 0  0.875 0.375 0  0.9 0.375 0  0.925 0.375 0  0.95 0.375 0  0.975 0.375 0  1 0.375 0  0 0.4 0  0.025 0.4 0  0.05 0.4 0  0.075 0.4 0  0.1 0.4 0  0.125 0.4 0  0.15 0.4 0  0.175 0.4 0  0.2 0.4 0  0.225 0.4 0  0.25 0.4 0  0.275 0.4 0  0.3 0.4 0  0.325 0.4 0  0.35 0.4 0  0.375 0.4 0  0.4 0.4 0  0.425 0.4 0  0.45 0.4 0  0.475 0.4 0  0.5 0.4 0  0.525 0.4 0  0.55 0.4 0  0.575 0.4 0  0.6 0.4 0  0.625 0.4 0  0.65 0.4 0  0.675 0.4 0  0.7 0.4 0  0.725 0.4 0  0.75 0.4 0  0.775 0.4 0  0.8 0.4 0  0.825 0.4 0  0.85 0.4 0  0.875 0.4 0  0.9 0.4 0  0.925 0.4 0  0.95 0.4 0  0.975 0.4 0  1 0.4 0  0 0.425 0  0.025 0.425 0  0.05 0.425 0  0.075 0.425 0  0.1 0.425 0  0.125 0.425 0  0.15 0.425 0  0.175 0.425 0  0.2 0.425 0  0.225 0.425 0  0.25 0.425 0  0.275 0.425 0  0.3 0.425 0  0.325 0.425 0  0.35 0.425 0  0.375 0.425 0  0.4 0.425 0  0.425 0.425 0  0.45 0.425 0  0.475 0.425 0  0.5 0.425 0  0.525 0.425 0  0.55 0.425 0  0.575 0.425 0  0.6 0.425 0  0.625 0.425 0  0.65 0.425 0  0.675 0.425 0  0.7 0.425 0  0.725 0.425 0  0.75 0.425 0  0.775 0.425 0  0.8 0.425 0  0.825 0.425 0  0.85 0.425 0  0.875 0.425 0  0.9 0.425 0  0.925 0.425 0  0.95 0.425 0  0.975 0.425 0  1 0.425 0  0 0.45 0  0.02
[...]
<PointData  Scalars="ControlVisualisation"> 
<DataArray  type="Float64"  Name="ControlVisualisation"  format="ascii">3.7226684484742772e-01  3.5420867068053857e-01  3.5426846991911054e-01  3.5448929086536807e-01  3.5485664774134956e-01  3.5529664176603454e-01  3.5573046871121172e-01  3.5610161015671621e-01  3.5638243139043602e-01  3.5656830895502456e-01  3.5666833909835838e-01  3.5669753359442802e-01  3.5667186730674655e-01  3.5660575253763582e-01  3.5651108934245801e-01  3.5639717436729207e-01  3.5627099986224031e-01  3.5613768033375698e-01  3.5600087785794809e-01  3.5586317289748054e-01  3.5572636619490433e-01  3.5559171487131747e-01  3.5546011233056546e-01  3.5533222273015569e-01  3.5520857969444741e-01  3.5508965714821550e-01  3.5497591830443037e-01  3.5486784726418114e-01  3.5476596649507397e-01  3.5467084255798337e-01  3.5458308196331983e-01  3.5450331879191821e-01  3.5443219608750315e-01  3.5437034452853255e-01  3.5431836589678622e-01  3.5427684098233220e-01  3.5424638122071728e-01  3.5422761414063125e-01  3.5422039906344793e-01  3.5422081660630589e-01  3.9053842404665567e-01  3.5420612614193736e-01  3.0172959302751301e-01  3.0283128567209827e-01  3.0529266109919656e-01  3.0903083005531129e-01  3.1342346858632658e-01  3.1775387093238644e-01  3.2149462874839529e-01  3.2437593251032759e-01  3.2633911483183892e-01  3.2745643324846485e-01  3.2786118808657266e-01  3.2770142862153956e-01  3.2711483885396520e-01  3.2621808991261625e-01  3.2510454058450283e-01  3.2384605804355887e-01  3.2249644875448508e-01  3.2109517778169150e-01  3.1967077024302071e-01  3.1824367755853716e-01  3.1682858272365316e-01  3.1543620073949175e-01  3.1407465576609633e-01  3.1275051567863427e-01  3.1146955322943648e-01  3.1023728877181428e-01  3.0905935620919189e-01  3.0794172305439921e-01  3.0689078754576254e-01  3.0591337094508514e-01  3.0501662132031016e-01  3.0420784789408872e-01  3.0349431356942114e-01  3.0288303629810981e-01  3.0238067783776168e-01  3.0199343794051292e-01  3.0172602614195015e-01  3.0157567857096895e-01  3.0151992546169099e-01  3.5422081539792510e-01  3.5424384231490236e-01  3.0283510704799399e-01  3.0655931315777174e-01  3.1259030136400873e-01  3.2073642155426563e-01  3.2986980598320770e-01  3.3864268303374451e-01  3.4609104209339775e-01  3.5175321427149620e-01  3.5555907929353281e-01  3.5767210666522187e-01  3.5836158127340539e-01  3.5792018285572108e-01  3.5661931693689769e-01  3.5468987074134256e-01  3.5231783492754742e-01  3.4964749258554101e-01  3.4678773174336924e-01  3.4381905085880116e-01  3.4080008336082396e-01  3.3777318073015855e-01  3.3476896300525300e-01  3.3180991467047749e-01  3.2891316435190571e-01  3.2609259371627908e-01  3.2336040424522072e-01  3.2072824626677388e-01  3.1820799061545002e-01  3.1581220306556806e-01  3.1355436678433996e-01  3.1144888886097644e-01  3.0951092362638039e-01  3.0775604851196114e-01  3.0619983383594407e-01  3.0485734315825302e-01  3.0374245941010103e-01  3.0286627093247037e-01  3.0223142407713754e-01  3.0181639398094950e-01  3.0157570061672018e-01  3.5422037748518542e-01  3.5441325926881034e-01  3.0564791422026039e-01  3.1394539287645085e-01  3.2372203702131075e-01  3.3467471216598393e-01  3.4580755260215473e-01  3.5583285020033228e-01  3.6391063999212092e-01  3.6973088199134302e-01  3.7335679399874944e-01  3.7505212166377566e-01  3.7515815443107303e-01  3.7401968349202597e-01  3.7194670324891299e-01  3.6919906714069006e-01  3.6598445934021218e-01  3.6246316349496688e-01  3.5875559197644552e-01  3.5495030657877602e-01  3.5111140632212912e-01  3.4728483528280280e-01  3.4350352804369066e-01  3.3979148276162846e-01  3.3616691513643460e-01  3.3264465435747947e-01  3.2923792370565053e-01  3.2595962196709510e-01  3.2282319495152706e-01  3.1984316394518569e-01  3.1703536122552189e-01  3.1441691248647363e-01  3.1200600124551325e-01  3.0982144760197761e-01  3.0788211374718111e-01  3.0620604534214513e-01  3.0480879237700009e-01  3.0369874669749231e-01  3.0286294649755030e-01  3.0223549857295418e-01  3.0172713369991727e-01  3.5422754277349089e-01  3.5475270197042968e-01  3.1117091547159792e-01  3.2864527212067279e-01  3.4381511688949162e-01  3.5647733118551139e-01  3.6702164806993953e-01  3.7530466081936464e-01  3.8121973376826107e-01  3.8487806801581509e-01  3.8654509800758674e-01  3.8655298215423572e-01  3.8524151917182137e-01  3.8292400578169955e-01  3.7987052132613630e-01  3.7630264284261838e-01  3.7239519119269865e-01  3.6828173003696718e-01  3.6406155357858877e-01  3.5980676885188217e-01  3.5556873451875881e-01  3.5138355187190701e-01  3.4727655768387328e-01  3.4326589628358944e-01  3.3936529766100859e-01  3.3558619501491382e-01  3.3193930027387297e-01  3.2843573384788055e-01  3.2508778213734557e-01  3.2190933689843426e-01  3.1891605632989978e-01  3.1612527877015234e-01  3.1355571374307578e-01  3.1122692264507351e-01  3.0915854185938119e-01  3.0736896090095783e-01  3.0587224794645640e-01  3.0466912049283545e-01  3.0371996397935175e-01  3.0288662984053399e-01  3.0199994096866323e-01  3.5424639385584272e-01  3.5527596041320192e-01  3.2434227308613173e-01  3.5989813788545172e-01  3.8230202270146424e-01  3.9358527295884332e-01  3.9925258808180114e-01  4.0188712488609651e-01  4.0255654620955261e-01  4.0177951986756444e-01  3.9987842514713534e-01  3.9709891956623550e-01  3.9364875306127650e-01  3.8970787873795554e-01  3.8542942272755421e-01  3.8093930960211814e-01  3.7633721453062574e-01  3.7169909842512183e-01  3.6708075917766564e-01  3.6252174416351723e-01  3.5804914335530869e-01  3.5368099033618522e-01  3.4942915854089096e-01  3.4530174001419239e-01  3.4130494541275552e-01  3.3744458255768900e-01  3.3372717146059472e-01  3.3016074452763922e-01  3.2675536902059871e-01  3.2352341759315995e-01  3.2047960432657618e-01  3.1764079830819480e-01  3.1502562022729774e-01  3.1265380420982058e-01  3.1054520049015155e-01  3.0871788054085259e-01  3.0718327302528531e-01  3.0593127529884467e-01  3.0488533224860503e-01  3.0380528415991082e-01  3.0240289626246297e-01  3.5427748736539200e-01  3.6487178037996087e-01  3.6961817574702732e-01  4.3193869492493125e-01  4.5390694355876926e-01  4.5399130193095932e-01  4.4668832307483336e-01  4.3792342041479165e-01  4.2954613288593002e-01  4.2189796771783306e-01  4.1488572570111765e-01  4.0834711916899907e-01  4.0215242831526099e-01  3.9621917379439020e-01  3.9050187210727766e-01  3.8497828097609432e-01  3.7963851068922261e-01  3.7447796838373126e-01  3.6949343827030434e-01  3.6468130621589728e-01  3.6003709280375185e-01  3.5555570371610268e-01  3.5123201946307681e-01  3.4706159953666310e-01  3.4304137561910969e-01  3.3917026701134084e-01  3.3544968319613921e-01  3.3188389329719409e-01  3.2848024773522594e-01  3.2524923870098554e-01  3.2220438602191803e-01  3.1936193479831826e-01  3.1674034513157362e-01  3.1435951865599143e-01  3.1223954195473708e-01  3.1039808779496636e-01  3.0884327110146276e-01  3.0755113974882387e-01  3.0639731483718069e-01  3.0500899528936970e-01  3.0294012289566979e-01  3.5432086993541506e-01  4.8191603707483471e-01  5.3538176639455048e-01  5.7567950591363926e-01  5.6792245055570900e-01  5.4051123609277629e-01  5.0971726129340578e-01  4.8295439908445348e-01  4.6161598324152198e-01  4.4484249596535891e-01  4.3143317173519141e-01  4.2040096081413630e-01  4.1104140447111792e-01  4.0287700807611421e-01  3.9558934801845919e-01  3.8896565873529920e-01  3.8286174721057192e-01  3.7717758834123283e-01  3.7184172168232471e-01  3.6680146639909256e-01  3.6201688547110400e-01  3.5745712655828860e-01  3.5309825131637024e-01  3.4892198549369335e-01  3.4491502912779820e-01  3.4106869627143249e-01  3.3737873368081489e-01  3.3384521559288782e-01  3.3047243957458178e-01  3.2726876493948476e-01  3.2424634467098956e-01  3.2142070746734558e-01  3.1881014029177512e-01  3.1643476997547076e-01  3.1431500266990825e-01  3.1246805282710766e-01  3.1089793086298784e-01  3.0956340617009742e-01  3.0828069380227963e-01  3.0651294320724543e-01  3.0361704747139751e-01  3.5437685733117280e-01  7.0759907215692475e-01  7.8855133844418834e-01  7.4565371087033849e-01  7.0057838155701646e-01  6.4110477897899454e-01  5.8153488266175790e-01  5.3275732193774572e-01  4.9603964718391724e-01  4.6885294268642286e-01  4.4840868649571197e-01  4.3258577617555805e-01  4.1993498976787413e-01  4.0949633118801559e-01  4.0063497199165832e-01  3.9292651334665885e-01  3.8608239315395587e-01  3.7990243129909806e-01  3.7424472809130882e-01  3.6900650476413616e-01  3.6411184937886620e-01  3.5950384632628835e-01  3.5513950868087590e-01  3.5098651499637129e-01  3.4702111285903431e-01  3.4322677594287676e-01  3.3959334031248622e-01  3.3611643138760700e-01  3.3279704506579877e-01  3.2964117849580915e-01  3.2665942492812305e-01  3.2386645716611323e-01  3.2128031554145381e-01  3.1892134129877786e-01  3.1681025994463646e-01  3.1496363559170260e-01  3.1338033085478234e-01  3.1199794247428903e-01  3.1056093896913822e-01  3.0833571721766806e-01  3.0444148976757079e-01  3.5444605404988316e-01  7.9872118766976785e-01  8.8201918837186144e-01  8.4265321753079836e-01  8.0262165971703969e-01  7.2983225480065550e-01  6.4833832386493162e-01  5.7961925867572595e-01  5.2829908477716869e-01  4.9119217963301665e-01  4.6411255630576731e-01  4.4382748500937097e-01  4.2814706670001024e-01  4.1563700888675459e-01  4.0535720131168740e-01  3.9668269854806421e-01  3.8919010872593884e-01  3.8258666462823393e-01  3.7666573683854004e-01  3.7127860983398286e-01  3.6631634883245640e-01  3.6169801709051513e-01  3.5736295055313588e-01  3.5326566223089967e-01  3.4937247158026047e-01  3.4565927479126846e-01  3.4211006891058365e-01  3.3871596448346719e-01  3.3547449574233607e-01  3.3238908262167660e-01  3.2946852505968832e-01  3.2672642183280010e-01  3.2418039060087483e-01  3.2185085837731736e-01  3.1975873301208629e-01  3.1791955360457497e-01  3.1632569741399597e-01  3.1488916581825710e-01  3.1326936308424058e-01  3.1050133230556259e-01  3.0542393082997438e-01  3.5452931273791227e-01  8.1728604189524923e-01  9.0520836348880163e-01  8.7951598820820598e-01  8.5283883227378843e-01  7.8459183844897507e-01  6.9545996311011293e-01  6.1480643687575154e-01  5.5327965810497748e-01  5.0881206936643453e-01  4.7667474852054059e-01  4.5294281236009259e-01  4.3490676339190454e-01  4.2078361418708166e-01  4.0940343428633702e-01  3.9998802149688573e-01  3.9200972347218693e-01  3.8510338412344602e-01  3.7901119213612156e-01  3.7354767106743519e-01  3.6857711136057913e-01  3.6399881355463670e-01  3.5973732465693176e-01  3.5573592336446497e-01  3.5195225309588918e-01  3.4835539369090690e-01  3.4492390305301901e-01  3.4164450795472806e-01  3.3851121373933879e-01  3.3552465626758599e-01  3.3269154898097503e-01  3.3002408696601970e-01  3.2753914112179561e-01  3.2525692309031129e-01  3.2319819052302262e-01  3.2137683913999171e-01  3.1977705079798752e-01  3.1828013040916792e-01  3.1644580262458261e-01  3.1304065506274059e-01  3.0657792816069068e-01  3.5462774801558938e-01  7.9220924063818232e-01  8.8774768394015158e-01  8.7077197609655244e-01  8.5569668631932827e-01  7.9859155650259128e-01  7.1417141772036419e-01  6.3193077400037911e-01  5.6693922577675637e-01  5.1921599147195585e-01  4.8452786042829094e-01  4.5891714458517346e-01  4.3953475350515314e-01  4.2446629998479418e-01  4.1243886595182350e-01  4.0259735644608047e-01  3.9435728702098988e-01  3.8731139828419486e-01  3.8117048978340301e-01  3.7572550154385620e-01  3.7082284675435007e-01  3.6634812856365567e-01  3.6221525650802883e-01  3.5835910530573090e-01  3.5473053904905255e-01  3.5129304017606300e-01  3.4802043978657388e-01  3.4489540445149502e-01  3.4190843143850458e-01  3.3905716021363536e-01  3.3634583559130543e-01  3.3378475890582332e-01  3.3138951326104060e-01  3.2917953539969885e-01  3.2717480577692765e-01  3.2538660063241254e-01  3.2378867249205540e-01  3.2222560774324377e-01  3.2014113669217203e-01  3.1599314498946829e-01  3.0792082692718126e-01  3.5474279122978536e-01  6.7733514108393944e-01  8.2462382881995011e-01  8.1196645636365439e-01  8.1712695239413657e-01  7.7536458078181192e-01  7.0366561166514618e-01  6.2909141365305243e-01  5.6761737220595732e-01  5.2118559990434965e-01  4.8680923550338867e-01  4.6113467790563034e-01  4.4158190718243268e-01  4.2634927835391140e-01  4.1420629384281071e-01  4.0430923475160002e-01  3.9607174973698250e-01  3.8907960431176059e-01  3.8303519751700704e-01  3.7772124250948075e-01  3.7297671095965901e-01  3.6868069582039176e-01  3.6474146221978193e-01  3.6108895575749472e-01  3.5766965571047232e-01  3.5444304643072488e-01  3.5137922250586262e-01  3.4845729466108127e-01  3.4566435577471377e-01  3.4299481811858268e-01  3.4044995376581255e-01  3.3803745753142217e-01  3.3577077014056300e-01  3.3366760456857592e-01  3.3174608032279557e-01  3.3001332395993860e-01  3.2842964809852915e-01  3.2679561995442152e-01  3.2442045360925220e-01  3.1940920959971575e-01  3.0947477210653923e-01  3.5487627348028605e-01  4.3901166486989635e-01  6.4293244007515826e-01  7.1526524419945992e-01  7.4602582470395329e-01  7.2355624909841576e-01  6.6960094932821079e-01  6.0900016573318616e-01  5.5639491854992207e-01  5.1506238378418934e-01  4.8354624685208708e-01  4.5949756256673641e-01  4.4090720616008627e-01  4.2628341131481912e-01  4.1456288798580021e-01  4.0499240558826005e-01  3.9703467576330326e-01  3.9030191788956403e-01  3.8451050966233691e-01  3.7945020112668715e-01  3.7496311021402740e-01  3.7092927144391341e-01  3.6725660908800017e-01  3.6387393548641778e-01  3.6072604981523332e-01  3.5777032070692727e-01  3.5497433631819619e-01  3.5231433377056487e-01  3.4977419946104010e-01  3.4734487477943587e-01  3.4502401302809810e-01  3.4281570308325821e-01  3.4072995313331700e-01  3.3878122713989123e-01  3.3698398991164835e-01  3.3533881223257256e-01  3.3378837147197632e-01  3.3208010453653292e-01  3.2936731427554172e-01  3.2335339355415321e-01  3.1126807649092614e-01  3.5503053787810668e-01  3.6559948379419355e-01  4.5469382539554087e-01  6.0613138605439587e-01  6.5976632365513632e-01  6.5638472685478066e-01  6.2172722943001557e-01  5.7753170511890550e-01  5.3645249813854201e-01  5.0249123651594663e-01  4.7556442381550890e-01  4.5440091574299513e-01  4.3767860265928626e-01  4.2431616133456446e-01  4.1349242683666104e-01  4.0459769032815301e-01  3.9718076527571361e-01  3.9090621568520328e-01  3.8552263931549302e-01  3.8083981893029617e-01  3.7671239475327645e-01  3.7302819537421283e-01  3.6969987235114010e-01  3.6665888512870565e-01  3.6385117431533626e-01  3.6123406581835515e-01  3.5877409042051100e-01  3.5644549908038964e-01  3.5422931655070283e-01  3.5211280952326390e-01  3.5008924772323347e-01  3.4815778929862812e-01  3.4632315258031737e-01  3.4459420065984758e-01  3.4297885694674313e-01  3.4146733557117304e-01  3.3997863506854725e-01  3.3819531989013890e-01  3.3508960493358603e-01  3.2790870837554770e-01  3.1333705346619928e-01  3.5520858784908949e-01  3.6081720470039969e-01  3.9390019673723203e-01  5.2128767592440184e-01  5.8001429313190145e-01  5.8914770837166275e-01  5.7058881629844049e-01  5.4141093476503144e-01  5.1180185184923899e-01  4.8578501221490428e-01  4.6417992102631500e-01  4.4658590708470380e-01  4.3230444370171617e-01  4.2066136306681789e-01  4.1109385537505438e-01  4.0315564363067929e-01  3.9649974912064329e-01  3.9085798630761720e-01  3.8602295764895045e-01  3.8183365117781271e-01  3.7816435031071260e-01  3.7491623330474044e-01  3.7201105263232720e-01  3.6938639110686422e-01  3.6699210788304598e-01  3.6478768832652447e-01  3.6274029282263942e-01  3.6082336109787799e-01  3.5901567387961186e-01  3.5730080044800544e-01  3.5566686042467588e-01  3.5410647164656600e-01  3.5261653726954750e-01  3.5119683574999949e-01  3.4984421678831468e-01  3.4853251648030170e-01  3.4714805565427204e-01  3.4529282165741598e-01  3.4172769196678371e-01  3.3318255792830903e-01  3.1572847714841246e-01  3.5541428216534815e-01  3.5996624883457007e-01  3.7351909881410583e-01  4.6959839253314956e-01  5.1901158885399323e-01  5.3207358013689465e-01  5.2381649800790053e-01  5.0601934918214231e-01  4.8601312830616517e-01  4.6722476787877643e-01  4.5082195232063688e-01  4.3693729953160121e-01  4.2532551711061273e-01  4.1564233577425269e-01  4.0755219032092455e-01  4.0076265344195733e-01  3.9503077390634839e-01  3.9015915689713537e-01  3.8598909144624005e-01  3.8239348968711179e-01  3.7927061721393407e-01  3.7653885343138421e-01  3.7413243630334475e-01  3.7199805122560609e-01  3.7009210894455757e-01  3.6837857462631873e-01  3.6682723875442630e-01  3.6541235162779501e-01  3.6411157385678927e-01  3.6290522005912967e-01  3.6177578081663503e-01  3.6070765288225309e-01  3.5968675700077418e-01  3.5869888287097962e-01  3.5772287781092771e-01  3.5670662659419144e-01  3.5548992524939227e-01  3.5357228583341166e-01  3.4946599903677944e-01  3.3931495671529754e-01  3.1850289815730193e-01  3.5565258943562644e-01  3.5902384820062039e-01  3.5974384170537704e-01  4.3504492750491608e-01  4.7456447954117564e-01  4.8730118283247453e-01  4.8459339505052967e-01  4.7435319547351940e-01  4.6149306527063083e-01  4.4858287371057104e-01  4.3673231828735326e-01  4.2630040449984935e-01  4.1730561697467350e-01  4.0962746727167187e-01  4.0310135894039811e-01  3.9756020143049520e-01  3.9285152500877668e-01  3.8884309685483892e-01  3.8542337049840814e-01  3.8249974205182391e-01  3.7999604317628677e-01  3.7784992483335483e-01  3.7601040704505678e-01  3.7443568272011507e-01  3.7309117503711065e-01  3.7194781034391849e-01  3.7098045781780403e-01  3.7016649228891796e-01  3.6948445308585748e-01  3.6891279633111423e-01  3.6842875847461071e-01  3.6800731019586203e-01  3.6761994140844462e-01  3.6723201180431841e-01  3.6679408597992746e-01  3.6621295915492608e-01  3.6526005365680964e-01  3.6330031377476601e-01  3.5854991159480476e-01  3.4649011692761389e-01  3.2173910712221043e-01  3.5592991300223104e-01  3.5826952075091006e-01  3.4987664930739021e-01  4.1083532068269357e-01  4.4210812702958230e-01  4.5301210280766080e-01  4.5295245870652234e-01  4.4735811388540864e-01  4.3944357128435124e-01  4.3097210893814075e-01  4.2281706353766624e-01  4.1536538851483190e-01  4.0874958935704081e-01  4.0297518763512968e-01  3.9798859908843981e-01  3.9371263507178883e-01  3.9006497235425858e-01  3.8696728317715068e-01  3.8434933181961173e-01  3.8215035989967805e-01  3.8031906059415110e-01  3.7881285048920948e-01  3.7759681480795371e-01  3.7664250852307207e-01  3.7592668358521530e-01  3.7542994659203266e-01  3.7513531254664223e-01  3.7502659952981260e-01  3.7508660395679400e-01  3.7529500805592286e-01  3.7562598791767243e-01  3.7604547974515062e-01  3.7650783642525432e-01  3.7695044797010246e-01  3.7728125757098735e-01  3.7734250646547185e-01  3.7680162064451417e-01  3.7483894563115266e-01  3.6931110554387447e-01  3.5495312868137219e-01  3.2554019293109676e-01  3.5625449527600961e-01  3.5762973500004319e-01  3.4192212502174957e-01  3.9209563311510243e-01  4.1733107213477660e-01  4.2649005817015789e-01  4.2763632732984941e-01  4.2482316429704908e-01  4.2020508804685253e-01  4.1493730417426317e-01  4.0963727527674243e-01  4.0462665802960879e-01  4.0006003658127165e-01  3.9599766741209513e-01  3.9244706695707426e-01  3.8938781739781414e-01  3.8678644907878856e-01  3.8460522322480811e-01  3.8280716311640434e-01  3.8135876401951929e-01  3.8023129066304484e-01  3.7940121916949832e-01  3.7885015376366193e-01  3.7856439628982402e-01  3.7853424198298641e-01  3.7875299818129626e-01  3.7921566115029859e-01  3.7991713231745716e-01  3.8084980779395949e-01  3.8200033599738792e-01  3.8334530165725944e-01  3.8484555417206606e-01  3.8643857334941079e-01  3.8802711634222797e-01  3.8945838234433294e-01  3.9047417584513139e-01  3.9057925381609093e-01  3.8868846070084884e-01  3.8220782013965937e-01  3.6503587410732302e-01  3.3004170439974267e-01  3.5663682352198911e-01  3.5708990026250476e-01  3.3542148663685989e-01  3.7719702420452977e-01  3.9789647916889759e-01  4.0556473451675817e-01  4.0723278239068628e-01  4.0609673520369138e-01  4.0364881864630681e-01  4.006397624