<?xml version="1.0"?>
<VTKFile type="UnstructuredGrid"  version="0.1"  >
<UnstructuredGrid>
<Piece  NumberOfPoints="1681" NumberOfCells="3200">
<Points>
<DataArray  type="Float64"  NumberOfComponents="3"  format="ascii">0 0 0  0.025 0 0  0.05 0 0  0.075 0 0  0.1 0 0  0.125 0 0  0.15 0 0  0.175 0 0  0.2 0 0  0.225 0 0  0.25 0 0  0.275 0 0  0.3 0 0  0.325 0 0  0.35 0 0  0.375 0 0  0.4 0 0  0.425 0 0  0.45 0 0  0.475 0 0  0.5 0 0  0.525 0 0  0.55 0 0  0.575 0 0  0.6 0 0  0.625 0 0  0.65 0 0  0.675 0 0  0.7 0 0  0.725 0 0  0.75 0 0  0.775 0 0  0.8 0 0  0.825 0 0  0.85 0 0  0.875 0 0  0.9 0 0  0.925 0 0  0.95 0 0  0.975 0 0  1 0 0  0 0.025 0  0.025 0.025 0  0.05 0.025 0  0.075 0.025 0  0.1 0.025 0  0.125 0.025 0  0.15 0.025 0  0.175 0.025 0  0.2 0.025 0  0.225 0.025 0  0.25 0.025 0  0.275 0.025 0  0.3 0.025 0  0.325 0.025 0  0.35 0.025 0  0.375 0.025 0  0.4 0.025 0  0.425 0.025 0  0.45 0.025 0  0.475 0.025 0  0.5 0.025 0  0.525 0.025 0  0.55 0.025 0  0.575 0.025 0  0.6 0.025 0  0.625 0.025 0  0.65 0.025 0  0.675 0.025 0  0.7 0.025 0  0.725 0.025 0  0.75 0.025 0  0.775 0.025 0  0.8 0.025 0  0.825 0.025 0  0.85 0.025 0  0.875 0.025 0  0.9 0.025 0  0.925 0.025 0  0.95 0.025 0  0.975 0.025 0  1 0.025 0  0 0.05 0  0.025 0.05 0  0.05 0.05 0  0.075 0.05 0  0.1 0.05 0  0.125 0.05 0  0.15 0.05 0  0.175 0.05 0  0.2 0.05 0  0.225 0.05 0  0.25 0.05 0  0.275 0.05 0  0.3 0.05 0  0.325 0.05 0  0.35 0.05 0  0.375 0.05 0  0.4 0.05 0  0.425 0.05 0  0.45 0.05 0  0.475 0.05 0  0.5 0.05 0  0.525 0.05 0  0.55 0.05 0  0.575 0.05 0  0.6 0.05 0  0.625 0.05 0  0.65 0.05 0  0.675 0.05 0  0.7 0.05 0  0.725 0.05 0  0.75 0.05 0  0.775 0.05 0  0.8 0.05 0  0.825 0.05 0  0.85 0.05 0  0.875 0.05 0  0.9 0.05 0  0.925 0.05 0  0.95 0.05 0  0.975 0.05 0  1 0.05 0  0 0.075 0  0.025 0.075 0  0.05 0.075 0  0.075 0.075 0  0.1 0.075 0  0.125 0.075 0  0.15 0.075 0  0.175 0.075 0  0.2 0.075 0  0.225 0.075 0  0.25 0.075 0  0.275 0.075 0  0.3 0.075 0  0.325 0.075 0  0.35 0.075 0  0.375 0.075 0  0.4 0.075 0  0.425 0.075 0  0.45 0.075 0  0.475 0.075 0  0.5 0.075 0  0.525 0.075 0  0.55 0.075 0  0.575 0.075 0  0.6 0.075 0  0.625 0.075 0  0.65 0.075 0  0.675 0.075 0  0.7 0.075 0  0.725 0.075 0  0.75 0.075 0  0.775 0.075 0  0.8 0.075 0  0.825 0.075 0  0.85 0.075 0  0.875 0.075 0  0.9 0.075 0  0.925 0.075 0  0.95 0.075 0  0.975 0.075 0  1 0.075 0  0 0.1 0  0.025 0.1 0  0.05 0.1 0  0.075 0.1 0  0.1 0.1 0  0.125 0.1 0  0.15 0.1 0  0.175 0.1 0  0.2 0.1 0  0.225 0.1 0  0.25 0.1 0  0.275 0.1 0  0.3 0.1 0  0.325 0.1 0  0.35 0.1 0  0.375 0.1 0  0.4 0.1 0  0.425 0.1 0  0.45 0.1 0  0.475 0.1 0  0.5 0.1 0  0.525 0.1 0  0.55 0.1 0  0.575 0.1 0  0.6 0.1 0  0.625 0.1 0  0.65 0.1 0  0.675 0.1 0  0.7 0.1 0  0.725 0.1 0  0.75 0.1 0  0.775 0.1 0  0.8 0.1 0  0.825 0.1 0  0.85 0.1 0  0.875 0.1 0  0.9 0.1 0  0.925 0.1 0  0.95 0.1 0  0.975 0.1 0  1 0.1 0  0 0.125 0  0.025 0.125 0  0.05 0.125 0  0.075 0.125 0  0.1 0.125 0  0.125 0.125 0  0.15 0.125 0  0.175 0.125 0  0.2 0.125 0  0.225 0.125 0  0.25 0.125 0  0.275 0.125 0  0.3 0.125 0  0.325 0.125 0  0.35 0.125 0  0.375 0.125 0  0.4 0.125 0  0.425 0.125 0  0.45 0.125 0  0.475 0.125 0  0.5 0.125 0  0.525 0.125 0  0.55 0.125 0  0.575 0.125 0  0.6 0.125 0  0.625 0.125 0  0.65 0.125 0  0.675 0.125 0  0.7 0.125 0  0.725 0.125 0  0.75 0.125 0  0.775 0.125 0  0.8 0.125 0  0.825 0.125 0  0.85 0.125 0  0.875 0.125 0  0.9 0.125 0  0.925 0.125 0  0.95 0.125 0  0.975 0.125 0  1 0.125 0  0 0.15 0  0.025 0.15 0  0.05 0.15 0  0.075 0.15 0  0.1 0.15 0  0.125 0.15 0  0.15 0.15 0  0.175 0.15 0  0.2 0.15 0  0.225 0.15 0  0.25 0.15 0  0.275 0.15 0  0.3 0.15 0  0.325 0.15 0  0.35 0.15 0  0.375 0.15 0  0.4 0.15 0  0.425 0.15 0  0.45 0.15 0  0.475 0.15 0  0.5 0.15 0  0.525 0.15 0  0.55 0.15 0  0.575 0.15 0  0.6 0.15 0  0.625 0.15 0  0.65 0.15 0  0.675 0.15 0  0.7 0.15 0  0.725 0.15 0  0.75 0.15 0  0.775 0.15 0  0.8 0.15 0  0.825 0.15 0  0.85 0.15 0  0.875 0.15 0  0.9 0.15 0  0.925 0.15 0  0.95 0.15 0  0.975 0.15 0  1 0.15 0  0 0.175 0  0.025 0.175 0  0.05 0.175 0  0.075 0.175 0  0.1 0.175 0  0.125 0.175 0  0.15 0.175 0  0.175 0.175 0  0.2 0.175 0  0.225 0.175 0  0.25 0.175 0  0.275 0.175 0  0.3 0.175 0  0.325 0.175 0  0.35 0.175 0  0.375 0.175 0  0.4 0.175 0  0.425 0.175 0  0.45 0.175 0  0.475 0.175 0  0.5 0.175 0  0.525 0.175 0  0.55 0.175 0  0.575 0.175 0  0.6 0.175 0  0.625 0.175 0  0.65 0.175 0  0.675 0.175 0  0.7 0.175 0  0.725 0.175 0  0.75 0.175 0  0.775 0.175 0  0.8 0.175 0  0.825 0.175 0  0.85 0.175 0  0.875 0.175 0  0.9 0.175 0  0.925 0.175 0  0.95 0.175 0  0.975 0.175 0  1 0.175 0  0 0.2 0  0.025 0.2 0  0.05 0.2 0  0.075 0.2 0  0.1 0.2 0  0.125 0.2 0  0.15 0.2 0  0.175 0.2 0  0.2 0.2 0  0.225 0.2 0  0.25 0.2 0  0.275 0.2 0  0.3 0.2 0  0.325 0.2 0  0.35 0.2 0  0.375 0.2 0  0.4 0.2 0  0.425 0.2 0  0.45 0.2 0  0.475 0.2 0  0.5 0.2 0  0.525 0.2 0  0.55 0.2 0  0.575 0.2 0  0.6 0.2 0  0.625 0.2 0  0.65 0.2 0  0.675 0.2 0  0.7 0.2 0  0.725 0.2 0  0.75 0.2 0  0.775 0.2 0  0.8 0.2 0  0.825 0.2 0  0.85 0.2 0  0.875 0.2 0  0.9 0.2 0  0.925 0.2 0  0.95 0.2 0  0.975 0.2 0  1 0.2 0  0 0.225 0  0.025 0.225 0  0.05 0.225 0  0.075 0.225 0  0.1 0.225 0  0.125 0.225 0  0.15 0.225 0  0.175 0.225 0  0.2 0.225 0  0.225 0.225 0  0.25 0.225 0  0.275 0.225 0  0.3 0.225 0  0.325 0.225 0  0.35 0.225 0  0.375 0.225 0  0.4 0.225 0  0.425 0.225 0  0.45 0.225 0  0.475 0.225 0  0.5 0.225 0  0.525 0.225 0  0.55 0.225 0  0.575 0.225 0  0.6 0.225 0  0.625 0.225 0  0.65 0.225 0  0.675 0.225 0  0.7 0.225 0  0.725 0.225 0  0.75 0.225 0  0.775 0.225 0  0.8 0.225 0  0.825 0.225 0  0.85 0.225 0  0.875 0.225 0  0.9 0.225 0  0.925 0.225 0  0.95 0.225 0  0.975 0.225 0  1 0.225 0  0 0.25 0  0.025 0.25 0  0.05 0.25 0  0.075 0.25 0  0.1 0.25 0  0.125 0.25 0  0.15 0.25 0  0.175 0.25 0  0.2 0.25 0  0.225 0.25 0  0.25 0.25 0  0.275 0.25 0  0.3 0.25 0  0.325 0.25 0  0.35 0.25 0  0.375 0.25 0  0.4 0.25 0  0.425 0.25 0  0.45 0.25 0  0.475 0.25 0  0.5 0.25 0  0.525 0.25 0  0.55 0.25 0  0.575 0.25 0  0.6 0.25 0  0.625 0.25 0  0.65 0.25 0  0.675 0.25 0  0.7 0.25 0  0.725 0.25 0  0.75 0.25 0  0.775 0.25 0  0.8 0.25 0  0.825 0.25 0  0.85 0.25 0  0.875 0.25 0  0.9 0.25 0  0.925 0.25 0  0.95 0.25 0  0.975 0.25 0  1 0.25 0  0 0.275 0  0.025 0.275 0  0.05 0.275 0  0.075 0.275 0  0.1 0.275 0  0.125 0.275 0  0.15 0.275 0  0.175 0.275 0  0.2 0.275 0  0.225 0.275 0  0.25 0.275 0  0.275 0.275 0  0.3 0.275 0  0.325 0.275 0  0.35 0.275 0  0.375 0.275 0  0.4 0.275 0  0.425 0.275 0  0.45 0.275 0  0.475 0.275 0  0.5 0.275 0  0.525 0.275 0  0.55 0.275 0  0.575 0.275 0  0.6 0.275 0  0.625 0.275 0  0.65 0.275 0  0.675 0.275 0  0.7 0.275 0  0.725 0.275 0  0.75 0.275 0  0.775 0.275 0  0.8 0.275 0  0.825 0.275 0  0.85 0.275 0  0.875 0.275 0  0.9 0.275 0  0.925 0.275 0  0.95 0.275 0  0.975 0.275 0  1 0.275 0  0 0.3 0  0.025 0.3 0  0.05 0.3 0  0.075 0.3 0  0.1 0.3 0  0.125 0.3 0  0.15 0.3 0  0.175 0.3 0  0.2 0.3 0  0.225 0.3 0  0.25 0.3 0  0.275 0.3 0  0.3 0.3 0  0.325 0.3 0  0.35 0.3 0  0.375 0.3 0  0.4 0.3 0  0.425 0.3 0  0.45 0.3 0  0.475 0.3 0  0.5 0.3 0  0.525 0.3 0  0.55 0.3 0  0.575 0.3 0  0.6 0.3 0  0.625 0.3 0  0.65 0.3 0  0.675 0.3 0  0.7 0.3 0  0.725 0.3 0  0.75 0.3 0  0.775 0.3 0  0.8 0.3 0  0.825 0.3 0  0.85 0.3 0  0.875 0.3 0  0.9 0.3 0  0.925 0.3 0  0.95 0.3 0  0.975 0.3 0  1 0.3 0  0 0.325 0  0.025 0.325 0  0.05 0.325 0  0.075 0.325 0  0.1 0.325 0  0.125 0.325 0  0.15 0.325 0  0.175 0.325 0  0.2 0.325 0  0.225 0.325 0  0.25 0.325 0  0.275 0.325 0  0.3 0.325 0  0.325 0.325 0  0.35 0.325 0  0.375 0.325 0  0.4 0.325 0  0.425 0.325 0  0.45 0.325 0  0.475 0.325 0  0.5 0.325 0  0.525 0.325 0  0.55 0.325 0  0.575 0.325 0  0.6 0.325 0  0.625 0.325 0  0.65 0.325 0  0.675 0.325 0  0.7 0.325 0  0.725 0.325 0  0.75 0.325 0  0.775 0.325 0  0.8 0.325 0  0.825 0.325 0  0.85 0.325 0  0.875 0.325 0  0.9 0.325 0  0.925 0.325 0  0.95 0.325 0  0.975 0.325 0  1 0.325 0  0 0.35 0  0.025 0.35 0  0.05 0.35 0  0.075 0.35 0  0.1 0.35 0  0.125 0.35 0  0.15 0.35 0  0.175 0.35 0  0.2 0.35 0  0.225 0.35 0  0.25 0.35 0  0.275 0.35 0  0.3 0.35 0  0.325 0.35 0  0.35 0.35 0  0.375 0.35 0  0.4 0.35 0  0.425 0.35 0  0.45 0.35 0  0.475 0.35 0  0.5 0.35 0  0.525 0.35 0  0.55 0.35 0  0.575 0.35 0  0.6 0.35 0  0.625 0.35 0  0.65 0.35 0  0.675 0.35 0  0.7 0.35 0  0.725 0.35 0  0.75 0.35 0  0.775 0.35 0  0.8 0.35 0  0.825 0.35 0  0.85 0.35 0  0.875 0.35 0  0.9 0.35 0  0.925 0.35 0  0.95 0.35 0  0.975 0.35 0  1 0.35 0  0 0.375 0  0.025 0.375 0  0.05 0.375 0  0.075 0.375 0  0.1 0.375 0  0.125 0.375 0  0.15 0.375 0  0.175 0.375 0  0.2 0.375 0  0.225 0.375 0  0.25 0.375 0  0.275 0.375 0  0.3 0.375 0  0.325 0.375 0  0.35 0.375 0  0.375 0.375 0  0.4 0.375 0  0.425 0.375 0  0.45 0.375 0  0.475 0.375 0  0.5 0.375 0  0.525 0.375 0  0.55 0.375 0  0.575 0.375 0  0.6 0.375 0  0.625 0.375 0  0.65 0.375 0  0.675 0.375 0  0.7 0.375 0  0.725 0.375 0  0.75 0.375 0  0.775 0.375 0  0.8 0.375 0  0.825 0.375 0  0.85 0.375 0  0.875 0.375 0  0.9 0.375 0  0.925 0.375 0  0.95 0.375 0  0.975 0.375 0  1 0.375 0  0 0.4 0  0.025 0.4 0  0.05 0.4 0  0.075 0.4 0  0.1 0.4 0  0.125 0.4 0  0.15 0.4 0  0.175 0.4 0  0.2 0.4 0  0.225 0.4 0  0.25 0.4 0  0.275 0.4 0  0.3 0.4 0  0.325 0.4 0  0.35 0.4 0  0.375 0.4 0  0.4 0.4 0  0.425 0.4 0  0.45 0.4 0  0.475 0.4 0  0.5 0.4 0  0.525 0.4 0  0.55 0.4 0  0.575 0.4 0  0.6 0.4 0  0.625 0.4 0  0.65 0.4 0  0.675 0.4 0  0.7 0.4 0  0.725 0.4 0  0.75 0.4 0  0.775 0.4 0  0.8 0.4 0  0.825 0.4 0  0.85 0.4 0  0.875 0.4 0  0.9 0.4 0  0.925 0.4 0  0.95 0.4 0  0.975 0.4 0  1 0.4 0  0 0.425 0  0.025 0.425 0  0.05 0.425 0  0.075 0.425 0  0.1 0.425 0  0.125 0.425 0  0.15 0.425 0  0.175 0.425 0  0.2 0.425 0  0.225 0.425 0  0.25 0.425 0  0.275 0.425 0  0.3 0.425 0  0.325 0.425 0  0.35 0.425 0  0.375 0.425 0  0.4 0.425 0  0.425 0.425 0  0.45 0.425 0  0.475 0.425 0  0.5 0.425 0  0.525 0.425 0  0.55 0.425 0  0.575 0.425 0  0.6 0.425 0  0.625 0.425 0  0.65 0.425 0  0.675 0.425 0  0.7 0.425 0  0.725 0.425 0  0.75 0.425 0  0.775 0.425 0  0.8 0.425 0  0.825 0.425 0  0.85 0.425 0  0.875 0.425 0  0.9 0.425 0  0.925 0.425 0  0.95 0.425 0  0.975 0.425 0  1 0.425 0  0 0.45 0  0.02
[...]
<PointData  Scalars="ControlVisualisation"> 
<DataArray  type="Float64"  Name="ControlVisualisation"  format="ascii">3.7226684761974105e-01  3.5420867579333387e-01  3.5426847526964711e-01  3.5448929639788523e-01  3.5485665338546862e-01  3.5529664752305312e-01  3.5573047465748969e-01  3.5610161619040165e-01  3.5638243750492310e-01  3.5656831508864306e-01  3.5666834520604318e-01  3.5669753978615426e-01  3.5667187330735473e-01  3.5660575880265305e-01  3.5651109583193918e-01  3.5639718081219868e-01  3.5627100635487391e-01  3.5613768676992358e-01  3.5600088428499321e-01  3.5586317918352744e-01  3.5572637247015959e-01  3.5559172121094801e-01  3.5546011874622901e-01  3.5533222907478057e-01  3.5520858604917199e-01  3.5508966348210685e-01  3.5497592456035371e-01  3.5486785343867161e-01  3.5476597253238679e-01  3.5467084851450520e-01  3.5458308791152665e-01  3.5450332465587314e-01  3.5443220182167845e-01  3.5437035014541235e-01  3.5431837139603500e-01  3.5427684641774965e-01  3.5424638656015994e-01  3.5422761938443387e-01  3.5422040421403911e-01  3.5422082166065011e-01  3.9053842452178800e-01  3.5420613109170246e-01  3.0172960455201109e-01  3.0283129699073946e-01  3.0529267188855214e-01  3.0903084037314610e-01  3.1342347807151194e-01  3.1775388031494539e-01  3.2149463770589720e-01  3.2437594130920894e-01  3.2633912329576420e-01  3.2745644120114659e-01  3.2786119666906666e-01  3.2770143626755599e-01  3.2711484771568372e-01  3.2621809931361051e-01  3.2510455039975517e-01  3.2384606800359744e-01  3.2249645882466577e-01  3.2109518814864607e-01  3.1967078079202943e-01  3.1824368829704913e-01  3.1682859405913993e-01  3.1543621224205981e-01  3.1407466759530395e-01  3.1275052722580754e-01  3.1146956507133428e-01  3.1023730113988124e-01  3.0905936843636361e-01  3.0794173505930739e-01  3.0689079937802638e-01  3.0591338294775544e-01  3.0501663360089698e-01  3.0420785994291710e-01  3.0349432534092607e-01  3.0288304789721343e-01  3.0238068950137953e-01  3.0199344968447589e-01  3.0172603784449181e-01  3.0157569021244457e-01  3.0151993704485119e-01  3.5422082045084946e-01  3.5424384702226369e-01  3.0283511857248563e-01  3.0655932412767212e-01  3.1259031096191747e-01  3.2073642959222060e-01  3.2986981245626723e-01  3.3864268878247611e-01  3.4609104633397253e-01  3.5175321715303071e-01  3.5555908258982211e-01  3.5767210889396711e-01  3.5836158372927274e-01  3.5792018519802887e-01  3.5661932059369517e-01  3.5468987457450840e-01  3.5231783894788560e-01  3.4964749734770939e-01  3.4678773735265672e-01  3.4381905735806767e-01  3.4080009006333895e-01  3.3777318804457379e-01  3.3476897137556427e-01  3.3180992333292231e-01  3.2891317275288395e-01  3.2609260228447795e-01  3.2336041314040204e-01  3.2072825598478055e-01  3.1820800069173955e-01  3.1581221331037235e-01  3.1355437705632944e-01  3.1144889928504987e-01  3.0951093464359675e-01  3.0775605944165496e-01  3.0619984451701671e-01  3.0485735392358543e-01  3.0374247035198171e-01  3.0286628213679484e-01  3.0223143546381609e-01  3.0181640547872196e-01  3.0157571221793783e-01  3.5422038262868055e-01  3.5441326372112431e-01  3.0564792560578408e-01  3.1394540358318984e-01  3.2372204590862724e-01  3.3467471942214699e-01  3.4580755806001412e-01  3.5583285468933423e-01  3.6391064333267226e-01  3.6973088324494202e-01  3.7335679535441368e-01  3.7505212265908772e-01  3.7515815521205770e-01  3.7401968493581506e-01  3.7194670477581238e-01  3.6919906916213485e-01  3.6598446209815932e-01  3.6246316735591017e-01  3.5875559660745127e-01  3.5495031208313632e-01  3.5111141252562805e-01  3.4728484113313413e-01  3.4350353542799572e-01  3.3979149049893143e-01  3.3616692241554341e-01  3.3264466171316159e-01  3.2923793190102962e-01  3.2595963114009868e-01  3.2282320429149802e-01  3.1984317363031139e-01  3.1703537155963246e-01  3.1441692295309054e-01  3.1200601202370826e-01  3.0982145850460902e-01  3.0788212441842322e-01  3.0620605595927186e-01  3.0480880324430443e-01  3.0369875778580352e-01  3.0286295791944856e-01  3.0223550999542403e-01  3.0172714530710221e-01  3.5422754799800765e-01  3.5475270615760102e-01  3.1117092640123301e-01  3.2864528219043698e-01  3.4381512430609035e-01  3.5647733629725870e-01  3.6702165186506081e-01  3.7530466290130460e-01  3.8121973547623450e-01  3.8487806803557512e-01  3.8654509848190188e-01  3.8655298210488204e-01  3.8524151839229898e-01  3.8292400570426988e-01  3.7987052154678663e-01  3.7630264333295849e-01  3.7239519312191416e-01  3.6828173309836681e-01  3.6406155719458128e-01  3.5980677370119862e-01  3.5556873963850888e-01  3.5138355665836180e-01  3.4727656349571107e-01  3.4326590314100247e-01  3.3936530432575929e-01  3.3558620215874913e-01  3.3193930810396727e-01  3.2843574279480403e-01  3.2508779103456875e-01  3.2190934624042167e-01  3.1891606639877984e-01  3.1612528916461563e-01  3.1355572433686713e-01  3.1122693326212869e-01  3.0915855255143593e-01  3.0736897151901210e-01  3.0587225851374023e-01  3.0466913134769541e-01  3.0371997507834275e-01  3.0288664114346625e-01  3.0199995265265306e-01  3.5424639917877049e-01  3.5527596445264065e-01  3.2434228336096782e-01  3.5989814579146823e-01  3.8230202672944347e-01  3.9358527426887657e-01  3.9925258801609381e-01  4.0188712313987296e-01  4.0255654413428721e-01  4.0177951734329592e-01  3.9987842374636701e-01  3.9709891877798220e-01  3.9364875091085461e-01  3.8970787669921053e-01  3.8542942105009148e-01  3.8093930869417086e-01  3.7633721451342567e-01  3.7169909974069659e-01  3.6708076117203448e-01  3.6252174782515512e-01  3.5804914676861610e-01  3.5368099381220230e-01  3.4942916334120760e-01  3.4530174547309023e-01  3.4130495129537708e-01  3.3744458853789544e-01  3.3372717867450452e-01  3.3016075289398483e-01  3.2675537745548261e-01  3.2352342629616576e-01  3.2047961357107241e-01  3.1764080792025279e-01  3.1502563021346941e-01  3.1265381431805178e-01  3.1054521071042929e-01  3.0871789099459007e-01  3.0718328335063122e-01  3.0593128577237855e-01  3.0488534291644781e-01  3.0380529518427629e-01  3.0240290812988879e-01  3.5427749282088089e-01  3.6487178291218675e-01  3.6961818244256001e-01  4.3193869640655247e-01  4.5390693963656531e-01  4.5399129532710131e-01  4.4668831672656600e-01  4.3792341408677937e-01  4.2954612703088996e-01  4.2189796256708556e-01  4.1488572206271590e-01  4.0834711713841687e-01  4.0215242568266307e-01  3.9621917123022565e-01  3.9050187039956136e-01  3.8497827961536046e-01  3.7963851040550600e-01  3.7447796878576928e-01  3.6949343972612880e-01  3.6468130924524056e-01  3.6003709566711734e-01  3.5555570688982546e-01  3.5123202317346269e-01  3.4706160379214207e-01  3.4304138098850034e-01  3.3917027261021643e-01  3.3544968976419065e-01  3.3188390145793228e-01  3.2848025597140268e-01  3.2524924714111186e-01  3.2220439477564355e-01  3.1936194393315437e-01  3.1674035456715477e-01  3.1435952806399486e-01  3.1223955159257238e-01  3.1039809769140381e-01  3.0884328122582727e-01  3.0755115012253847e-01  3.0639732516382912e-01  3.0500900621253457e-01  3.0294013476256204e-01  3.5432087549936547e-01  4.8191602823856333e-01  5.3538175414157030e-01  5.7567949225384973e-01  5.6792243351605376e-01  5.4051121867059393e-01  5.0971724612804314e-01  4.8295438647447725e-01  4.6161597244910474e-01  4.4484248698904655e-01  4.3143316567336748e-01  4.2040095616383416e-01  4.1104140069331696e-01  4.0287700567622614e-01  3.9558934622865322e-01  3.8896565722447851e-01  3.8286174709677373e-01  3.7717758863841538e-01  3.7184172292747897e-01  3.6680146849177631e-01  3.6201688790947739e-01  3.5745712938701324e-01  3.5309825432414060e-01  3.4892198952792314e-01  3.4491503394060746e-01  3.4106870123226879e-01  3.3737873930429657e-01  3.3384522295053642e-01  3.3047244734165854e-01  3.2726877289870754e-01  3.2424635268846985e-01  3.2142071594359367e-01  3.1881014925088597e-01  3.1643477864148811e-01  3.1431501180537424e-01  3.1246806220319917e-01  3.1089794031889306e-01  3.0956341564241652e-01  3.0828070347316844e-01  3.0651295387784461e-01  3.0361705937497863e-01  3.5437686299505033e-01  7.0759904875439450e-01  7.8855131308414839e-01  7.4565368411748756e-01  7.0057834984210132e-01  6.4110474793897365e-01  5.8153485755814183e-01  5.3275730262997123e-01  4.9603963160298642e-01  4.6885292931817696e-01  4.4840867706213389e-01  4.3258576903868751e-01  4.1993498345799030e-01  4.0949632651110085e-01  4.0063496915920127e-01  3.9292651054748207e-01  3.8608239352011448e-01  3.7990243100440080e-01  3.7424472819590260e-01  3.6900650609495877e-01  3.6411185167443744e-01  3.5950384921064948e-01  3.5513951130740612e-01  3.5098651891307298e-01  3.4702111793172563e-01  3.4322678046807642e-01  3.3959334541152908e-01  3.3611643732354318e-01  3.3279705187076497e-01  3.2964118587622931e-01  3.2665943222388383e-01  3.2386646488568266e-01  3.2128032360304459e-01  3.1892134964849095e-01  3.1681026875940244e-01  3.1496364441347691e-01  3.1338033963970063e-01  3.1199795106941991e-01  3.1056094813693080e-01  3.0833572767597006e-01  3.0444150160712580e-01  3.5444605980250687e-01  7.9872116563477524e-01  8.8201917358726512e-01  8.4265319135230610e-01  8.0262162060620279e-01  7.2983221375682872e-01  6.4833829052928449e-01  5.7961923366301449e-01  5.2829906557675255e-01  4.9119216285791084e-01  4.6411254312646488e-01  4.4382747536803463e-01  4.2814705918400098e-01  4.1563700221980032e-01  4.0535719752148891e-01  3.9668269527247024e-01  3.8919010733145087e-01  3.8258666405374420e-01  3.7666573574262219e-01  3.7127861150758562e-01  3.6631635099255389e-01  3.6169802022571890e-01  3.5736295321308587e-01  3.5326566603680953e-01  3.4937247624244394e-01  3.4565927892557036e-01  3.4211007396373116e-01  3.3871596978822893e-01  3.3547450196368694e-01  3.3238908963528996e-01  3.2946853230587980e-01  3.2672642906135113e-01  3.2418039807979832e-01  3.2185086670423002e-01  3.1975874124872983e-01  3.1791956160081647e-01  3.1632570587559777e-01  3.1488917437584624e-01  3.1326937226086971e-01  3.1050134242409039e-01  3.0542394264055478e-01  3.5452931859837855e-01  8.1728602116887838e-01  9.0520835095288588e-01  8.7951596119047903e-01  8.5283878980754668e-01  7.8459179194539974e-01  6.9545992477805518e-01  6.1480640680265131e-01  5.5327963441495009e-01  5.0881204992344331e-01  4.7667473304376196e-01  4.5294280007834276e-01  4.3490675444539278e-01  4.2078360656706992e-01  4.0940342898769411e-01  3.9998801864709493e-01  3.9200972123710065e-01  3.8510338327704730e-01  3.7901119192317856e-01  3.7354767274734862e-01  3.6857711326534554e-01  3.6399881622497759e-01  3.5973732668365599e-01  3.5573592661138009e-01  3.5195225711035272e-01  3.4835539669887983e-01  3.4492390761011843e-01  3.4164451340166430e-01  3.3851121974743065e-01  3.3552466239022338e-01  3.3269155543314904e-01  3.3002409396027793e-01  3.2753914826426350e-01  3.2525693103366782e-01  3.2319819862594062e-01  3.2137684660974547e-01  3.1977705833378861e-01  3.1828013806618355e-01  3.1644581105198943e-01  3.1304066453408819e-01  3.0657793968636682e-01  3.5462775396799834e-01  7.9220921742455253e-01  8.8774767056422432e-01  8.7077194813563386e-01  8.5569664329848139e-01  7.9859150869639239e-01  7.1417137535126896e-01  6.3193073993861248e-01  5.6693919898848733e-01  5.1921597110095685e-01  4.8452784402998622e-01  4.5891713136053597e-01  4.3953474352714816e-01  4.2446629275969799e-01  4.1243886074652225e-01  4.0259735415515746e-01  3.9435728505898171e-01  3.8731139726163683e-01  3.8117049042267831e-01  3.7572550320660969e-01  3.7082284838355067e-01  3.6634813071868921e-01  3.6221525862514453e-01  3.5835910792996040e-01  3.5473054308555380e-01  3.5129304349489926e-01  3.4802044383646302e-01  3.4489541034631027e-01  3.4190843767817736e-01  3.3905716629111682e-01  3.3634584178639393e-01  3.3378476526698592e-01  3.3138952011982664e-01  3.2917954291251017e-01  3.2717481361502709e-01  3.2538660727476493e-01  3.2378867857975363e-01  3.2222561395589167e-01  3.2014114390961790e-01  3.1599315355314161e-01  3.0792083814584981e-01  3.5474279718913831e-01  6.7733511906392696e-01  8.2462380684809367e-01  8.1196642666464713e-01  8.1712690964975776e-01  7.7536453426190888e-01  7.0366556983775197e-01  6.2909137867755027e-01  5.6761734474476144e-01  5.2118557922357500e-01  4.8680921942811833e-01  4.6113466550065479e-01  4.4158189743306214e-01  4.2634927165269504e-01  4.1420628801184839e-01  4.0430923050594525e-01  3.9607174588160232e-01  3.8907960242902401e-01  3.8303519762709709e-01  3.7772124415476821e-01  3.7297671248506648e-01  3.6868069732322001e-01  3.6474146411492964e-01  3.6108895771236088e-01  3.5766965920377219e-01  3.5444305022528583e-01  3.5137922644566205e-01  3.4845729971738010e-01  3.4566436077687429e-01  3.4299482350434463e-01  3.4044995962524133e-01  3.3803746309764898e-01  3.3577077586173637e-01  3.3366761047478305e-01  3.3174608658302829e-01  3.3001332940602385e-01  3.2842965304697352e-01  3.2679562524732086e-01  3.2442045988328078e-01  3.1940921734461464e-01  3.0947478306840059e-01  3.5487627951828316e-01  4.3901166323325552e-01  6.4293242009012153e-01  7.1526521520783781e-01  7.4602578548234899e-01  7.2355620673678600e-01  6.6960091178527004e-01  6.0900013421119581e-01  5.5639489215450666e-01  5.1506236268654615e-01  4.8354623098395921e-01  4.5949755068719050e-01  4.4090719671261652e-01  4.2628340431391010e-01  4.1456288108222361e-01  4.0499240015097204e-01  3.9703467146001270e-01  3.9030191580428586e-01  3.8451050985951574e-01  3.7945020277546365e-01  3.7496311177656821e-01  3.7092927274976922e-01  3.6725661099139706e-01  3.6387393725894973e-01  3.6072605287749482e-01  3.5777032331597913e-01  3.5497433928514810e-01  3.5231433790621813e-01  3.4977420368341411e-01  3.4734487971852696e-01  3.4502401827810270e-01  3.4281570795786775e-01  3.4072995854886917e-01  3.3878123248486453e-01  3.3698399535986817e-01  3.3533881706460306e-01  3.3378837586524474e-01  3.3208010900206886e-01  3.2936731984227130e-01  3.2335340085787145e-01  3.1126808739926243e-01  3.5503054402101036e-01  3.6559949008892506e-01  4.5469382122074870e-01  6.0613136327497008e-01  6.5976629164386125e-01  6.5638469244113462e-01  6.2172719663397347e-01  5.7753167630562241e-01  5.3645247318486422e-01  5.0249121539915875e-01  4.7556440751930296e-01  4.5440090373110992e-01  4.3767859368128542e-01  4.2431615342680018e-01  4.1349241857083491e-01  4.0459768371942595e-01  3.9718076068701635e-01  3.9090621308361490e-01  3.8552263950700588e-01  3.8083982038734854e-01  3.7671239593413769e-01  3.7302819578023005e-01  3.6969987366300200e-01  3.6665888662380702e-01  3.6385117631897096e-01  3.6123406667416352e-01  3.5877409127465693e-01  3.5644550133068670e-01  3.5422931958130494e-01  3.5211281319623516e-01  3.5008925097508692e-01  3.4815779255610013e-01  3.4632315658974006e-01  3.4459420485176778e-01  3.4297886097060859e-01  3.4146733914636385e-01  3.3997863823912838e-01  3.3819532360386395e-01  3.3508960951662320e-01  3.2790871535110733e-01  3.1333706421296986e-01  3.5520859405821337e-01  3.6081721140425738e-01  3.9390019866781539e-01  5.2128765898089380e-01  5.8001426732739514e-01  5.8914767954986480e-01  5.7058878837037641e-01  5.4141091045253054e-01  5.1180183077078323e-01  4.8578499279045950e-01  4.6417990519098612e-01  4.4658589537844662e-01  4.3230443534556484e-01  4.2066135580285713e-01  4.1109384729728504e-01  4.0315563706289032e-01  3.9649974370396202e-01  3.9085798244675457e-01  3.8602295650437357e-01  3.8183365102182637e-01  3.7816435070032373e-01  3.7491623357658060e-01  3.7201105315633387e-01  3.6938639162087167e-01  3.6699210892251743e-01  3.6478768804758521e-01  3.6274029212581393e-01  3.6082336172018087e-01  3.5901567481437607e-01  3.5730080286330079e-01  3.5566686230527478e-01  3.5410647376930138e-01  3.5261653929543402e-01  3.5119683843703570e-01  3.4984421978276781e-01  3.4853251926402690e-01  3.4714805787006153e-01  3.4529282394755922e-01  3.4172769598449015e-01  3.3318256400734103e-01  3.1572848772350104e-01  3.5541428847373097e-01  3.5996625549111588e-01  3.7351910316633508e-01  4.6959838181650709e-01  5.1901157070563808e-01  5.3207355930174605e-01  5.2381647626805861e-01  5.0601933057495285e-01  4.8601311221228299e-01  4.6722475295482535e-01  4.5082193945490118e-01  4.3693729063508741e-01  4.2532551067968949e-01  4.1564233031185444e-01  4.0755218542766747e-01  4.0076264934205086e-01  3.9503077084711347e-01  3.9015915410902724e-01  3.8598909031366219e-01  3.8239348914684435e-01  3.7927061776240473e-01  3.7653885509217155e-01  3.7413243807279517e-01  3.7199805213758186e-01  3.7009211025325378e-01  3.6837857462007534e-01  3.6682723875371415e-01  3.6541235139624456e-01  3.6411157386902082e-01  3.6290522108829104e-01  3.6177578222521845e-01  3.6070765475435629e-01  3.5968675835262021e-01  3.5869888447561532e-01  3.5772288031201638e-01  3.5670662855765106e-01  3.5548992683476421e-01  3.5357228776546651e-01  3.4946600143098439e-01  3.3931496147741341e-01  3.1850290776244933e-01  3.5565259578147873e-01  3.5902385466606629e-01  3.5974384634635398e-01  4.3504491977089027e-01  4.7456446684931874e-01  4.8730116781187111e-01  4.8459337770732214e-01  4.7435318101087937e-01  4.6149305216519299e-01  4.4858286183979801e-01  4.3673230798931262e-01  4.2630039698624328e-01  4.1730561125786581e-01  4.0962746319352467e-01  4.0310135547872777e-01  3.9756019813665766e-01  3.9285152178547195e-01  3.8884309491079272e-01  3.8542336957173373e-01  3.8249974226418831e-01  3.7999604422881988e-01  3.7784992658298611e-01  3.7601040862026902e-01  3.7443568396927462e-01  3.7309117584716661e-01  3.7194781049724579e-01  3.7098045776714961e-01  3.7016649259297052e-01  3.6948445375806421e-01  3.6891279628964174e-01  3.6842875872788572e-01  3.6800731028328443e-01  3.6761994105118961e-01  3.6723201181777632e-01  3.6679408658130225e-01  3.6621295947082277e-01  3.6526005339945927e-01  3.6330031424388032e-01  3.5854991324048580e-01  3.4649012016810704e-01  3.2173911630076091e-01  3.5592991939925361e-01  3.5826952711180482e-01  3.4987665491293007e-01  4.1083531675846252e-01  4.4210811896755531e-01  4.5301209255823000e-01  4.5295244739591750e-01  4.4735810408795806e-01  4.3944356222773667e-01  4.3097210036182115e-01  4.2281705648895451e-01  4.1536538285516350e-01  4.0874958494828878e-01  4.0297518464575893e-01  3.9798859718188662e-01  3.9371263237303722e-01  3.9006497025817566e-01  3.8696728254240931e-01  3.8434933205380178e-01  3.8215036133649211e-01  3.8031906242893060e-01  3.7881285179264357e-01  3.7759681583064053e-01  3.7664250940425531e-01  3.7592668414558533e-01  3.7542994665211782e-01  3.7513531154647695e-01  3.7502659884833295e-01  3.7508660426176849e-01  3.7529500733186916e-01  3.7562598660976498e-01  3.7604547772070784e-01  3.7650783448631031e-01  3.7695044606457739e-01  3.7728125586156636e-01  3.7734250428783239e-01  3.7680161775152976e-01  3.7483894296102727e-01  3.6931110526369687e-01  3.5495313204538614e-01  3.2554020241092119e-01  3.5625450178446449e-01  3.5762974143578480e-01  3.4192213169156704e-01  3.9209563127089697e-01  4.1733106741071951e-01  4.2649005208672663e-01  4.2763632053036404e-01  4.2482315823181055e-01  4.2020508232628517e-01  4.1493729846846461e-01  4.0963726973218706e-01  4.0462665362563982e-01  4.0006003341969587e-01  3.9599766563334815e-01  3.9244706601084817e-01  3.8938781546097784e-01  3.8678644756687069e-01  3.8460522375235712e-01  3.8280716395224090e-01  3.8135876505903821e-01  3.8023129182627274e-01  3.7940121998068110e-01  3.7885015346658907e-01  3.7856439594393781e-01  3.7853424156131626e-01  3.7875299654464273e-01  3.7921565861101775e-01  3.7991712960181884e-01  3.8084980535797458e-01  3.8200033237578607e-01  3.8334529722970195e-01  3.8484554931187803e-01  3.8643856851724312e-01  3.8802711240116300e-01  3.8945837767121672e-01  3.9047417030265263e-01  3.9057924861288129e-01  3.8868845612221981e-01  3.8220781766624129e-01  3.6503587586944031e-01  3.3004171341891814e-01  3.5663683022864368e-01  3.5708990673826646e-01  3.3542149386656350e-01  3.7719702389710058e-01  3.9789647620082119e-01  4.0556473077140170e-01  4.0723277839892102e-01  4.0609673132042290e-01  4.0364881394543078e-01  4.006397576