<?xml version="1.0"?>
<VTKFile type="UnstructuredGrid"  version="0.1"  >
<UnstructuredGrid>
<Piece  NumberOfPoints="1681" NumberOfCells="3200">
<Points>
<DataArray  type="Float64"  NumberOfComponents="3"  format="ascii">0 0 0  0.025 0 0  0.05 0 0  0.075 0 0  0.1 0 0  0.125 0 0  0.15 0 0  0.175 0 0  0.2 0 0  0.225 0 0  0.25 0 0  0.275 0 0  0.3 0 0  0.325 0 0  0.35 0 0  0.375 0 0  0.4 0 0  0.425 0 0  0.45 0 0  0.475 0 0  0.5 0 0  0.525 0 0  0.55 0 0  0.575 0 0  0.6 0 0  0.625 0 0  0.65 0 0  0.675 0 0  0.7 0 0  0.725 0 0  0.75 0 0  0.775 0 0  0.8 0 0  0.825 0 0  0.85 0 0  0.875 0 0  0.9 0 0  0.925 0 0  0.95 0 0  0.975 0 0  1 0 0  0 0.025 0  0.025 0.025 0  0.05 0.025 0  0.075 0.025 0  0.1 0.025 0  0.125 0.025 0  0.15 0.025 0  0.175 0.025 0  0.2 0.025 0  0.225 0.025 0  0.25 0.025 0  0.275 0.025 0  0.3 0.025 0  0.325 0.025 0  0.35 0.025 0  0.375 0.025 0  0.4 0.025 0  0.425 0.025 0  0.45 0.025 0  0.475 0.025 0  0.5 0.025 0  0.525 0.025 0  0.55 0.025 0  0.575 0.025 0  0.6 0.025 0  0.625 0.025 0  0.65 0.025 0  0.675 0.025 0  0.7 0.025 0  0.725 0.025 0  0.75 0.025 0  0.775 0.025 0  0.8 0.025 0  0.825 0.025 0  0.85 0.025 0  0.875 0.025 0  0.9 0.025 0  0.925 0.025 0  0.95 0.025 0  0.975 0.025 0  1 0.025 0  0 0.05 0  0.025 0.05 0  0.05 0.05 0  0.075 0.05 0  0.1 0.05 0  0.125 0.05 0  0.15 0.05 0  0.175 0.05 0  0.2 0.05 0  0.225 0.05 0  0.25 0.05 0  0.275 0.05 0  0.3 0.05 0  0.325 0.05 0  0.35 0.05 0  0.375 0.05 0  0.4 0.05 0  0.425 0.05 0  0.45 0.05 0  0.475 0.05 0  0.5 0.05 0  0.525 0.05 0  0.55 0.05 0  0.575 0.05 0  0.6 0.05 0  0.625 0.05 0  0.65 0.05 0  0.675 0.05 0  0.7 0.05 0  0.725 0.05 0  0.75 0.05 0  0.775 0.05 0  0.8 0.05 0  0.825 0.05 0  0.85 0.05 0  0.875 0.05 0  0.9 0.05 0  0.925 0.05 0  0.95 0.05 0  0.975 0.05 0  1 0.05 0  0 0.075 0  0.025 0.075 0  0.05 0.075 0  0.075 0.075 0  0.1 0.075 0  0.125 0.075 0  0.15 0.075 0  0.175 0.075 0  0.2 0.075 0  0.225 0.075 0  0.25 0.075 0  0.275 0.075 0  0.3 0.075 0  0.325 0.075 0  0.35 0.075 0  0.375 0.075 0  0.4 0.075 0  0.425 0.075 0  0.45 0.075 0  0.475 0.075 0  0.5 0.075 0  0.525 0.075 0  0.55 0.075 0  0.575 0.075 0  0.6 0.075 0  0.625 0.075 0  0.65 0.075 0  0.675 0.075 0  0.7 0.075 0  0.725 0.075 0  0.75 0.075 0  0.775 0.075 0  0.8 0.075 0  0.825 0.075 0  0.85 0.075 0  0.875 0.075 0  0.9 0.075 0  0.925 0.075 0  0.95 0.075 0  0.975 0.075 0  1 0.075 0  0 0.1 0  0.025 0.1 0  0.05 0.1 0  0.075 0.1 0  0.1 0.1 0  0.125 0.1 0  0.15 0.1 0  0.175 0.1 0  0.2 0.1 0  0.225 0.1 0  0.25 0.1 0  0.275 0.1 0  0.3 0.1 0  0.325 0.1 0  0.35 0.1 0  0.375 0.1 0  0.4 0.1 0  0.425 0.1 0  0.45 0.1 0  0.475 0.1 0  0.5 0.1 0  0.525 0.1 0  0.55 0.1 0  0.575 0.1 0  0.6 0.1 0  0.625 0.1 0  0.65 0.1 0  0.675 0.1 0  0.7 0.1 0  0.725 0.1 0  0.75 0.1 0  0.775 0.1 0  0.8 0.1 0  0.825 0.1 0  0.85 0.1 0  0.875 0.1 0  0.9 0.1 0  0.925 0.1 0  0.95 0.1 0  0.975 0.1 0  1 0.1 0  0 0.125 0  0.025 0.125 0  0.05 0.125 0  0.075 0.125 0  0.1 0.125 0  0.125 0.125 0  0.15 0.125 0  0.175 0.125 0  0.2 0.125 0  0.225 0.125 0  0.25 0.125 0  0.275 0.125 0  0.3 0.125 0  0.325 0.125 0  0.35 0.125 0  0.375 0.125 0  0.4 0.125 0  0.425 0.125 0  0.45 0.125 0  0.475 0.125 0  0.5 0.125 0  0.525 0.125 0  0.55 0.125 0  0.575 0.125 0  0.6 0.125 0  0.625 0.125 0  0.65 0.125 0  0.675 0.125 0  0.7 0.125 0  0.725 0.125 0  0.75 0.125 0  0.775 0.125 0  0.8 0.125 0  0.825 0.125 0  0.85 0.125 0  0.875 0.125 0  0.9 0.125 0  0.925 0.125 0  0.95 0.125 0  0.975 0.125 0  1 0.125 0  0 0.15 0  0.025 0.15 0  0.05 0.15 0  0.075 0.15 0  0.1 0.15 0  0.125 0.15 0  0.15 0.15 0  0.175 0.15 0  0.2 0.15 0  0.225 0.15 0  0.25 0.15 0  0.275 0.15 0  0.3 0.15 0  0.325 0.15 0  0.35 0.15 0  0.375 0.15 0  0.4 0.15 0  0.425 0.15 0  0.45 0.15 0  0.475 0.15 0  0.5 0.15 0  0.525 0.15 0  0.55 0.15 0  0.575 0.15 0  0.6 0.15 0  0.625 0.15 0  0.65 0.15 0  0.675 0.15 0  0.7 0.15 0  0.725 0.15 0  0.75 0.15 0  0.775 0.15 0  0.8 0.15 0  0.825 0.15 0  0.85 0.15 0  0.875 0.15 0  0.9 0.15 0  0.925 0.15 0  0.95 0.15 0  0.975 0.15 0  1 0.15 0  0 0.175 0  0.025 0.175 0  0.05 0.175 0  0.075 0.175 0  0.1 0.175 0  0.125 0.175 0  0.15 0.175 0  0.175 0.175 0  0.2 0.175 0  0.225 0.175 0  0.25 0.175 0  0.275 0.175 0  0.3 0.175 0  0.325 0.175 0  0.35 0.175 0  0.375 0.175 0  0.4 0.175 0  0.425 0.175 0  0.45 0.175 0  0.475 0.175 0  0.5 0.175 0  0.525 0.175 0  0.55 0.175 0  0.575 0.175 0  0.6 0.175 0  0.625 0.175 0  0.65 0.175 0  0.675 0.175 0  0.7 0.175 0  0.725 0.175 0  0.75 0.175 0  0.775 0.175 0  0.8 0.175 0  0.825 0.175 0  0.85 0.175 0  0.875 0.175 0  0.9 0.175 0  0.925 0.175 0  0.95 0.175 0  0.975 0.175 0  1 0.175 0  0 0.2 0  0.025 0.2 0  0.05 0.2 0  0.075 0.2 0  0.1 0.2 0  0.125 0.2 0  0.15 0.2 0  0.175 0.2 0  0.2 0.2 0  0.225 0.2 0  0.25 0.2 0  0.275 0.2 0  0.3 0.2 0  0.325 0.2 0  0.35 0.2 0  0.375 0.2 0  0.4 0.2 0  0.425 0.2 0  0.45 0.2 0  0.475 0.2 0  0.5 0.2 0  0.525 0.2 0  0.55 0.2 0  0.575 0.2 0  0.6 0.2 0  0.625 0.2 0  0.65 0.2 0  0.675 0.2 0  0.7 0.2 0  0.725 0.2 0  0.75 0.2 0  0.775 0.2 0  0.8 0.2 0  0.825 0.2 0  0.85 0.2 0  0.875 0.2 0  0.9 0.2 0  0.925 0.2 0  0.95 0.2 0  0.975 0.2 0  1 0.2 0  0 0.225 0  0.025 0.225 0  0.05 0.225 0  0.075 0.225 0  0.1 0.225 0  0.125 0.225 0  0.15 0.225 0  0.175 0.225 0  0.2 0.225 0  0.225 0.225 0  0.25 0.225 0  0.275 0.225 0  0.3 0.225 0  0.325 0.225 0  0.35 0.225 0  0.375 0.225 0  0.4 0.225 0  0.425 0.225 0  0.45 0.225 0  0.475 0.225 0  0.5 0.225 0  0.525 0.225 0  0.55 0.225 0  0.575 0.225 0  0.6 0.225 0  0.625 0.225 0  0.65 0.225 0  0.675 0.225 0  0.7 0.225 0  0.725 0.225 0  0.75 0.225 0  0.775 0.225 0  0.8 0.225 0  0.825 0.225 0  0.85 0.225 0  0.875 0.225 0  0.9 0.225 0  0.925 0.225 0  0.95 0.225 0  0.975 0.225 0  1 0.225 0  0 0.25 0  0.025 0.25 0  0.05 0.25 0  0.075 0.25 0  0.1 0.25 0  0.125 0.25 0  0.15 0.25 0  0.175 0.25 0  0.2 0.25 0  0.225 0.25 0  0.25 0.25 0  0.275 0.25 0  0.3 0.25 0  0.325 0.25 0  0.35 0.25 0  0.375 0.25 0  0.4 0.25 0  0.425 0.25 0  0.45 0.25 0  0.475 0.25 0  0.5 0.25 0  0.525 0.25 0  0.55 0.25 0  0.575 0.25 0  0.6 0.25 0  0.625 0.25 0  0.65 0.25 0  0.675 0.25 0  0.7 0.25 0  0.725 0.25 0  0.75 0.25 0  0.775 0.25 0  0.8 0.25 0  0.825 0.25 0  0.85 0.25 0  0.875 0.25 0  0.9 0.25 0  0.925 0.25 0  0.95 0.25 0  0.975 0.25 0  1 0.25 0  0 0.275 0  0.025 0.275 0  0.05 0.275 0  0.075 0.275 0  0.1 0.275 0  0.125 0.275 0  0.15 0.275 0  0.175 0.275 0  0.2 0.275 0  0.225 0.275 0  0.25 0.275 0  0.275 0.275 0  0.3 0.275 0  0.325 0.275 0  0.35 0.275 0  0.375 0.275 0  0.4 0.275 0  0.425 0.275 0  0.45 0.275 0  0.475 0.275 0  0.5 0.275 0  0.525 0.275 0  0.55 0.275 0  0.575 0.275 0  0.6 0.275 0  0.625 0.275 0  0.65 0.275 0  0.675 0.275 0  0.7 0.275 0  0.725 0.275 0  0.75 0.275 0  0.775 0.275 0  0.8 0.275 0  0.825 0.275 0  0.85 0.275 0  0.875 0.275 0  0.9 0.275 0  0.925 0.275 0  0.95 0.275 0  0.975 0.275 0  1 0.275 0  0 0.3 0  0.025 0.3 0  0.05 0.3 0  0.075 0.3 0  0.1 0.3 0  0.125 0.3 0  0.15 0.3 0  0.175 0.3 0  0.2 0.3 0  0.225 0.3 0  0.25 0.3 0  0.275 0.3 0  0.3 0.3 0  0.325 0.3 0  0.35 0.3 0  0.375 0.3 0  0.4 0.3 0  0.425 0.3 0  0.45 0.3 0  0.475 0.3 0  0.5 0.3 0  0.525 0.3 0  0.55 0.3 0  0.575 0.3 0  0.6 0.3 0  0.625 0.3 0  0.65 0.3 0  0.675 0.3 0  0.7 0.3 0  0.725 0.3 0  0.75 0.3 0  0.775 0.3 0  0.8 0.3 0  0.825 0.3 0  0.85 0.3 0  0.875 0.3 0  0.9 0.3 0  0.925 0.3 0  0.95 0.3 0  0.975 0.3 0  1 0.3 0  0 0.325 0  0.025 0.325 0  0.05 0.325 0  0.075 0.325 0  0.1 0.325 0  0.125 0.325 0  0.15 0.325 0  0.175 0.325 0  0.2 0.325 0  0.225 0.325 0  0.25 0.325 0  0.275 0.325 0  0.3 0.325 0  0.325 0.325 0  0.35 0.325 0  0.375 0.325 0  0.4 0.325 0  0.425 0.325 0  0.45 0.325 0  0.475 0.325 0  0.5 0.325 0  0.525 0.325 0  0.55 0.325 0  0.575 0.325 0  0.6 0.325 0  0.625 0.325 0  0.65 0.325 0  0.675 0.325 0  0.7 0.325 0  0.725 0.325 0  0.75 0.325 0  0.775 0.325 0  0.8 0.325 0  0.825 0.325 0  0.85 0.325 0  0.875 0.325 0  0.9 0.325 0  0.925 0.325 0  0.95 0.325 0  0.975 0.325 0  1 0.325 0  0 0.35 0  0.025 0.35 0  0.05 0.35 0  0.075 0.35 0  0.1 0.35 0  0.125 0.35 0  0.15 0.35 0  0.175 0.35 0  0.2 0.35 0  0.225 0.35 0  0.25 0.35 0  0.275 0.35 0  0.3 0.35 0  0.325 0.35 0  0.35 0.35 0  0.375 0.35 0  0.4 0.35 0  0.425 0.35 0  0.45 0.35 0  0.475 0.35 0  0.5 0.35 0  0.525 0.35 0  0.55 0.35 0  0.575 0.35 0  0.6 0.35 0  0.625 0.35 0  0.65 0.35 0  0.675 0.35 0  0.7 0.35 0  0.725 0.35 0  0.75 0.35 0  0.775 0.35 0  0.8 0.35 0  0.825 0.35 0  0.85 0.35 0  0.875 0.35 0  0.9 0.35 0  0.925 0.35 0  0.95 0.35 0  0.975 0.35 0  1 0.35 0  0 0.375 0  0.025 0.375 0  0.05 0.375 0  0.075 0.375 0  0.1 0.375 0  0.125 0.375 0  0.15 0.375 0  0.175 0.375 0  0.2 0.375 0  0.225 0.375 0  0.25 0.375 0  0.275 0.375 0  0.3 0.375 0  0.325 0.375 0  0.35 0.375 0  0.375 0.375 0  0.4 0.375 0  0.425 0.375 0  0.45 0.375 0  0.475 0.375 0  0.5 0.375 0  0.525 0.375 0  0.55 0.375 0  0.575 0.375 0  0.6 0.375 0  0.625 0.375 0  0.65 0.375 0  0.675 0.375 0  0.7 0.375 0  0.725 0.375 0  0.75 0.375 0  0.775 0.375 0  0.8 0.375 0  0.825 0.375 0  0.85 0.375 0  0.875 0.375 0  0.9 0.375 0  0.925 0.375 0  0.95 0.375 0  0.975 0.375 0  1 0.375 0  0 0.4 0  0.025 0.4 0  0.05 0.4 0  0.075 0.4 0  0.1 0.4 0  0.125 0.4 0  0.15 0.4 0  0.175 0.4 0  0.2 0.4 0  0.225 0.4 0  0.25 0.4 0  0.275 0.4 0  0.3 0.4 0  0.325 0.4 0  0.35 0.4 0  0.375 0.4 0  0.4 0.4 0  0.425 0.4 0  0.45 0.4 0  0.475 0.4 0  0.5 0.4 0  0.525 0.4 0  0.55 0.4 0  0.575 0.4 0  0.6 0.4 0  0.625 0.4 0  0.65 0.4 0  0.675 0.4 0  0.7 0.4 0  0.725 0.4 0  0.75 0.4 0  0.775 0.4 0  0.8 0.4 0  0.825 0.4 0  0.85 0.4 0  0.875 0.4 0  0.9 0.4 0  0.925 0.4 0  0.95 0.4 0  0.975 0.4 0  1 0.4 0  0 0.425 0  0.025 0.425 0  0.05 0.425 0  0.075 0.425 0  0.1 0.425 0  0.125 0.425 0  0.15 0.425 0  0.175 0.425 0  0.2 0.425 0  0.225 0.425 0  0.25 0.425 0  0.275 0.425 0  0.3 0.425 0  0.325 0.425 0  0.35 0.425 0  0.375 0.425 0  0.4 0.425 0  0.425 0.425 0  0.45 0.425 0  0.475 0.425 0  0.5 0.425 0  0.525 0.425 0  0.55 0.425 0  0.575 0.425 0  0.6 0.425 0  0.625 0.425 0  0.65 0.425 0  0.675 0.425 0  0.7 0.425 0  0.725 0.425 0  0.75 0.425 0  0.775 0.425 0  0.8 0.425 0  0.825 0.425 0  0.85 0.425 0  0.875 0.425 0  0.9 0.425 0  0.925 0.425 0  0.95 0.425 0  0.975 0.425 0  1 0.425 0  0 0.45 0  0.02
[...]
<PointData  Scalars="ControlVisualisation"> 
<DataArray  type="Float64"  Name="ControlVisualisation"  format="ascii">2.5431455223348276e-01  1.7144854311969149e-01  1.7154727385465890e-01  1.7208049831496991e-01  1.7306885546580139e-01  1.7432915856374301e-01  1.7563556432114596e-01  1.7681356730819192e-01  1.7776974642568102e-01  1.7847841319446636e-01  1.7895461645885921e-01  1.7923114038020257e-01  1.7934440897225595e-01  1.7932771775049319e-01  1.7920890210863322e-01  1.7901020911024157e-01  1.7874905280683789e-01  1.7843899249121548e-01  1.7809065164051960e-01  1.7771248424426095e-01  1.7731137891703830e-01  1.7689312291778800e-01  1.7646275631183173e-01  1.7602484442784422e-01  1.7558369030221030e-01  1.7514350069377554e-01  1.7470851129377427e-01  1.7428307062946161e-01  1.7387167911494419e-01  1.7347898007240947e-01  1.7310970281266036e-01  1.7276856270313959e-01  1.7246013011390332e-01  1.7218868780659341e-01  1.7195811401455130e-01  1.7177184165718543e-01  1.7163294847113517e-01  1.7154390751510798e-01  1.7150398527351066e-01  1.7150000742168997e-01  3.5359186720352259e-01  1.7144130369660396e-01  6.0713882703532493e-02  6.1277592886848836e-02  6.2667839665820471e-02  6.5000758263901351e-02  6.8055769626303039e-02  7.1433785055935312e-02  7.4716047175548445e-02  7.7570846676103825e-02  7.9803808775161911e-02  8.1353255233250557e-02  8.2252921679405178e-02  8.2588590283759977e-02  8.2464247597839851e-02  8.1981505186030521e-02  8.1229742599129531e-02  8.0283011619255953e-02  7.9200493605803154e-02  7.8028467747281269e-02  7.6802670746101601e-02  7.5550515632179821e-02  7.4292970903946751e-02  7.3046074840564079e-02  7.1822139029810134e-02  7.0630718510828638e-02  6.9479416060521770e-02  6.8374561027710945e-02  6.7321772913877143e-02  6.6326398375825962e-02  6.5393803879698509e-02  6.4529514433402255e-02  6.3739206029343173e-02  6.3028580044334606e-02  6.2403163967255239e-02  6.1868101562208337e-02  6.1427972233781651e-02  6.1086582961138364e-02  6.0846075432495490e-02  6.0703333516077040e-02  6.0639795100394162e-02  1.7150000379801439e-01  1.7147768110603553e-01  6.1307442807390464e-02  6.3590737444716980e-02  6.7807790214435573e-02  7.4546621651650172e-02  8.3972475628588436e-02  9.5569607274643212e-02  1.0809610104534531e-01  1.1991340288337922e-01  1.2963095823010984e-01  1.3650374689381861e-01  1.4040795253958013e-01  1.4161655230309328e-01  1.4058338986593777e-01  1.3780422492493233e-01  1.3374561560807263e-01  1.2881572492008286e-01  1.2335669502556640e-01  1.1764660359305251e-01  1.1190496140568379e-01  1.0629907266955531e-01  1.0095026883983860e-01  9.5939854024971211e-02  9.1315011913605415e-02  8.7095025186457245e-02  8.3277937739184335e-02  7.9847373252920059e-02  7.6778887958969574e-02  7.4045199369297904e-02  7.1619891383788645e-02  6.9479569428506263e-02  6.7604736779722688e-02  6.5979798986100638e-02  6.4592588332881146e-02  6.3433701681873358e-02  6.2495703795635175e-02  6.1771860742981029e-02  6.1252516728544294e-02  6.0914904886816591e-02  6.0703329464706593e-02  1.7150391632395698e-01  1.7191224501433383e-01  6.3125923513347088e-02  6.9224485308177000e-02  7.8535676210067212e-02  9.2417864326483634e-02  1.1165636417103210e-01  1.3458183715405486e-01  1.5758067390130645e-01  1.7726220680199106e-01  1.9180825215480254e-01  2.0083697054002816e-01  2.0478741315801127e-01  2.0443696296086322e-01  2.0063498322029524e-01  1.9418365740899574e-01  1.8579730126486951e-01  1.7609697644580899e-01  1.6561739266627970e-01  1.5481509018499331e-01  1.4407342174510560e-01  1.3370368030497867e-01  1.2394423117485029e-01  1.1496059683043774e-01  1.0684872644242165e-01  9.9642061370972410e-02  9.3322102067776649e-02  8.7832015982651682e-02  8.3092075216971428e-02  7.9014449603798331e-02  7.5514661180833900e-02  7.2518348542936026e-02  6.9963758101653464e-02  6.7801388249037989e-02  6.5992243833768630e-02  6.4505636933075122e-02  6.3316673435659138e-02  6.2402504369273255e-02  6.1733792189161057e-02  6.1254285898251361e-02  6.0846479341648912e-02  1.7154363521688637e-01  1.7321690646285651e-01  6.7752468931383023e-02  8.6163898497102931e-02  1.1663834143062329e-01  1.5582747072232769e-01  1.9419754197005171e-01  2.2460772684299546e-01  2.4560184759333367e-01  2.5849671971253330e-01  2.6498564979969363e-01  2.6635896654117247e-01  2.6354203174603258e-01  2.5727800739221912e-01  2.4822969030547470e-01  2.3700879612503584e-01  2.2418091197854884e-01  2.1026854476276954e-01  1.9575475305111817e-01  1.8108459138684113e-01  1.6666200516884391e-01  1.5284109988876621e-01  1.3991280107514198e-01  1.2809097561709804e-01  1.1750401841630791e-01  1.0819604303072822e-01  1.0013737626586078e-01  9.3241570132430202e-02  8.7386321520040458e-02  8.2435224521723582e-02  7.8256122910863243e-02  7.4732755394184558e-02  7.1769310273145273e-02  6.9289895640880200e-02  6.7235444043121692e-02  6.5559722310240695e-02  6.4224640743747563e-02  6.3193047870230390e-02  6.2412916091911616e-02  6.1781117082052139e-02  6.1089201134854880e-02  1.7163268663643311e-01  1.7744114625932556e-01  8.7016392723026553e-02  1.9993069392908286e-01  3.4221916527176044e-01  4.2587368976904560e-01  4.5824613050247959e-01  4.5670364092772298e-01  4.3597568281844978e-01  4.0763513703932086e-01  3.7924777449934771e-01  3.5410730049978434e-01  3.3234087597411133e-01  3.1274119645601023e-01  2.9410917435458195e-01  2.7571953492559520e-01  2.5728182728250859e-01  2.3878613358661446e-01  2.2038343856357043e-01  2.0231277548267604e-01  1.8485538316953334e-01  1.6830009787282468e-01  1.5291186260705572e-01  1.3890188844531071e-01  1.2640397671225298e-01  1.1546373299537556e-01  1.0604314114197422e-01  9.8036756938252007e-02  9.1294247504659032e-02  8.5645262257928123e-02  8.0922155475731353e-02  7.6975900992469315e-02  7.3683288642039227e-02  7.0947022899652407e-02  6.8691814771403473e-02  6.6858767303176955e-02  6.5398219974718355e-02  6.4257888275142450e-02  6.3356458406005220e-02  6.2525565257760624e-02  6.1437318607131995e-02  1.7177281882227960e-01  2.3992775283552195e-01  3.8097616420577074e-01  8.1800198289000681e-01  9.2462058238248712e-01  9.2722467968384492e-01  8.9888504869279140e-01  8.4307582172844209e-01  7.6164519284394183e-01  6.6918899437274904e-01  5.7854941171918539e-01  4.9937457228048798e-01  4.3630333075117061e-01  3.8822827286690753e-01  3.5095289348388609e-01  3.2030960847332302e-01  2.9348183027606817e-01  2.6892053960856260e-01  2.4588949121801768e-01  2.2410948396768723e-01  2.0355074753320318e-01  1.8431522095112951e-01  1.6656138381623264e-01  1.5044799456543201e-01  1.3608976637699360e-01  1.2352823325286805e-01  1.1272264510402304e-01  1.0355920048597456e-01  9.5871380950958998e-02  8.9465033845835804e-02  8.4143522811957236e-02  7.9727755221038546e-02  7.6067239840644438e-02  7.3042239161777725e-02  7.0559935316837227e-02  6.8547388592506850e-02  6.6941363451168842e-02  6.5669975200810360e-02  6.4611459099496171e-02  6.3509290985934899e-02  6.1892842103335628e-02  1.7196324188699558e-01  9.7836845640133485e-01  9.9755049453060196e-01  9.9704144246325732e-01  9.9574021857818151e-01  9.9450201682292960e-01  9.8918902814006360e-01  9.7604374775236624e-01  9.6334497564724264e-01  9.3346949517106270e-01  8.4658300111993490e-01  7.2440692160256348e-01  6.0596154740303987e-01  5.0888280100625971e-01  4.3582323109141363e-01  3.8185144482746258e-01  3.4034634573793371e-01  3.0630499157120672e-01  2.7677944341007304e-01  2.5023916211521485e-01  2.2595729043643839e-01  2.0363868757891634e-01  1.8321547356658641e-01  1.6472616443476779e-01  1.4823393174763447e-01  1.3376894790609598e-01  1.2129513669017966e-01  1.1070280626993755e-01  1.0182115158639646e-01  9.4440979500676411e-02  8.8340734124241788e-02  8.3310407934797243e-02  7.9167934614168767e-02  7.5765497973965951e-02  7.2987264637863689e-02  7.0741321480121480e-02  6.8945683253705620e-02  6.7500897697622686e-02  6.6228802711488052e-02  6.4757079482768834e-02  6.2457653902734583e-02  1.7220315787229104e-01  9.9584578997953421e-01  9.9676962716837347e-01  9.9623408288034121e-01  9.9630331831326924e-01  9.9623885367666598e-01  9.9453368052082924e-01  9.9357100773590001e-01  9.8920396759994811e-01  9.7499973455823297e-01  9.6564726108239052e-01  9.3086415353473329e-01  8.3114705907163677e-01  6.9556325287385490e-01  5.7316534329838831e-01  4.7854346820893978e-01  4.0936749341242024e-01  3.5801203715181823e-01  3.1766375497305843e-01  2.8398418386895646e-01  2.5460783820620791e-01  2.2834372079471596e-01  2.0463649363856545e-01  1.8326452938851315e-01  1.6416721313491806e-01  1.4733494898992852e-01  1.3273658104535926e-01  1.2028049749241695e-01  1.0980746453446066e-01  1.0110546019668459e-01  9.3934614285152665e-02  8.8054172882579176e-02  8.3245114022496625e-02  7.9323110069295877e-02  7.6140300060108593e-02  7.3577329822558060e-02  7.1524778626464988e-02  6.9843441741777992e-02  6.8276701024194572e-02  6.6302810040920743e-02  6.3134585578569546e-02  1.7249193543693483e-01  9.9805538072207090e-01  9.9894308627667650e-01  9.9794768541539447e-01  9.9660988024170927e-01  9.9564619404942911e-01  9.9568888441619274e-01  9.9525856071736374e-01  9.9471245163726463e-01  9.9272695088749274e-01  9.8201861906788568e-01  9.6695878794785661e-01  9.6697124452823857e-01  8.9686865881556921e-01  7.7082882968390332e-01  6.3300765552394567e-01  5.2060119741863919e-01  4.3739707896231794e-01  3.7656523700386624e-01  3.3017590558566673e-01  2.9261763885708675e-01  2.6064717537291221e-01  2.3256673985229848e-01  2.0754594507904625e-01  1.8521478529248059e-01  1.6542989662830213e-01  1.4813022664448008e-01  1.3324515264737086e-01  1.2064654561177071e-01  1.1013992772921281e-01  1.0148155092059855e-01  9.4406343220834785e-02  8.8656412068699675e-02  8.4002542341558642e-02  8.0253287338988441e-02  7.7249513098702205e-02  7.4841059778152225e-02  7.2830784754037717e-02  7.0852824141922371e-02  6.8194513573457405e-02  6.3927964225382397e-02  1.7282893573939978e-01  9.9864844681571852e-01  9.9945263212602908e-01  9.9862896272941903e-01  9.9746895799562574e-01  9.9638096371666574e-01  9.9565393287468362e-01  9.9600012527487269e-01  9.9576770282106808e-01  9.9594811501144642e-01  9.9404094864275816e-01  9.8494446408779668e-01  9.6993588537529807e-01  9.7803600849108607e-01  9.3613538046719014e-01  8.3486934682048297e-01  6.9299071237466381e-01  5.6637241680476469e-01  4.6965725042055440e-01  3.9886611197314037e-01  3.4591798261241175e-01  3.0415704668285176e-01  2.6940718491508414e-01  2.3937402897402862e-01  2.1289723151348244e-01  1.8943797329185094e-01  1.6877111390650343e-01  1.5079600423765530e-01  1.3541786351224294e-01  1.2248557665261964e-01  1.1177857202366748e-01  1.0302606410243123e-01  9.5938870748027469e-02  9.0239725422100500e-02  8.5682457271108722e-02  8.2052503491478884e-02  7.9139742579140984e-02  7.6662102916020658e-02  7.4100904338136708e-02  7.0501218114009001e-02  6.4844371359582278e-02  1.7321347893418698e-01  9.9715800495748774e-01  9.9916599740410961e-01  9.9841466431210457e-01  9.9733301732859381e-01  9.9643973119439155e-01  9.9569433765031345e-01  9.9591368627214538e-01  9.9637788846244013e-01  9.9641312424843720e-01  9.9717641677842705e-01  9.9432378727483428e-01  9.8648003035846632e-01  9.7279789148255047e-01  9.7881139811132589e-01  9.6529064444286716e-01  8.8721822138689588e-01  7.5648820147550089e-01  6.1981671497688817e-01  5.0963844515822465e-01  4.2758696200788648e-01  3.6674989362687804e-01  3.1983721479817295e-01  2.8170232866975059e-01  2.4931369193178152e-01  2.2107246839331449e-01  1.9621331638556316e-01  1.7440741633864471e-01  1.5551249353998001e-01  1.3941635417201859e-01  1.2595300637320986e-01  1.1488112554828006e-01  1.0590429259750923e-01  9.8706480953577536e-02  9.2982130321766027e-02  8.8445456121047067e-02  8.4800974603715093e-02  8.1642457643898880e-02  7.8236462007717639e-02  7.3323194037275205e-02  6.5893786014853239e-02  1.7364491901388907e-01  9.9500101190597756e-01  9.9728342954181859e-01  9.9700047246842149e-01  9.9623598070467934e-01  9.9562976476332965e-01  9.9523502521359342e-01  9.9560537851239683e-01  9.9634761312349607e-01  9.9663232482645880e-01  9.9767958077490726e-01  9.9780122818029282e-01  9.9405140330628328e-01  9.8794602106472229e-01  9.7575717216968505e-01  9.7608226307197898e-01  9.8592432018250487e-01  9.2707149848181181e-01  8.2286050636850272e-01  6.8367478046067753e-01  5.6051231321768813e-01  4.6545273905929557e-01  3.9467170028965720e-01  3.4100141758558461e-01  2.9840987465048852e-01  2.6297404741266694e-01  2.3249495354542510e-01  2.0587649815515474e-01  1.8263298870706535e-01  1.6255871913366179e-01  1.4551867933097087e-01  1.3133316893660585e-01  1.1974128539112899e-01  1.1041791083809049e-01  1.0300813321420763e-01  9.7145298864220769e-02  9.2419135131636798e-02  8.8244736508656399e-02  8.3586808908005517e-02  7.6807441288808148e-02  6.7091210495097447e-02  1.7412279969219210e-01  8.7274002045819987e-01  9.9802318704065407e-01  9.9682991138402988e-01  9.9477252493034840e-01  9.9419561822222979e-01  9.9422623994868187e-01  9.9492303297930285e-01  9.9584925576118255e-01  9.9654162565705795e-01  9.9776659587295813e-01  9.9884572286069151e-01  9.9734047279528304e-01  9.9399222248172903e-01  9.8990839111029894e-01  9.7927814710530592e-01  9.7303209973124893e-01  9.9404968496023483e-01  9.6069530800269554e-01  8.8384985661994997e-01  7.5787534716877480e-01  6.2477238928074852e-01  5.1537036015035120e-01  4.3215058115988086e-01  3.6944150076116111e-01  3.2074216339322403e-01  2.8117784439211235e-01  2.4776345803572555e-01  2.1891534587228798e-01  1.9389311653626545e-01  1.7237476533706875e-01  1.5417676739554406e-01  1.3909412791651865e-01  1.2683779848334001e-01  1.1703563776250556e-01  1.0924457954250229e-01  1.0291035397772838e-01  9.7197598300141158e-02  9.0649806870709615e-02  8.1170723457925198e-02  6.8458888423183303e-02  1.7464707353045342e-01  2.2488186212713759e-01  8.3372897484999087e-01  9.9298966256126842e-01  9.9245753911016821e-01  9.9169924763233097e-01  9.9223994770563839e-01  9.9347442869243374e-01  9.9485763675153993e-01  9.9617184162755301e-01  9.9771471177516891e-01  9.9895609027177934e-01  9.9847062103802553e-01  9.9644239210315744e-01  9.9475692959238959e-01  9.9237488337747737e-01  9.8353222377114369e-01  9.7217177497963525e-01  9.8920929775285327e-01  9.8810497290484833e-01  9.3038163126293860e-01  8.3582616885908489e-01  7.0312820444662916e-01  5.8015573822466437e-01  4.8224151185464653e-01  4.0766381961991133e-01  3.5050392114215945e-01  3.0517627785782059e-01  2.6778632768748439e-01  2.3606467805893780e-01  2.0885812909203960e-01  1.8562655221260882e-01  1.6607696960092760e-01  1.4993965954731020e-01  1.3685643061510508e-01  1.2632786602962082e-01  1.1763133615531206e-01  1.0959121719925295e-01  1.0017115364690096e-01  8.6732906593954107e-02  7.0029328269766836e-02  1.7521837932148593e-01  1.9126863671381553e-01  3.1875138768590211e-01  9.5252177119783754e-01  9.8337876105255395e-01  9.8585481372374495e-01  9.8819020451741990e-01  9.9068074858640154e-01  9.9302988003853987e-01  9.9511452261700217e-01  9.9692451913836588e-01  9.9810394213911480e-01  9.9809220500884344e-01  9.9710062608398264e-01  9.9635717898900500e-01  9.9629767302230865e-01  9.9500740639553575e-01  9.8827909389977753e-01  9.7495751293093103e-01  9.7865967418227684e-01  9.9832149076687404e-01  9.6852732446991230e-01  9.0119101231937671e-01  7.9133442900193929e-01  6.6132900143162665e-01  5.4815751553448144e-01  4.5890421096155348e-01  3.9029090807591249e-01  3.3686714073210999e-01  2.9395759948731076e-01  2.5843642351165996e-01  2.2852051550741709e-01  2.0327974499196538e-01  1.8218749022181710e-01  1.6479991130634414e-01  1.5053717268460032e-01  1.3847182223304288e-01  1.2697671332335367e-01  1.1323157533602227e-01  9.3963498607178064e-02  7.1849591397370419e-02  1.7583838478602284e-01  1.8710950540563662e-01  1.8109112193631807e-01  6.8418138254876315e-01  9.4078225359844558e-01  9.6808150367747869e-01  9.7660680519800180e-01  9.8243995165128184e-01  9.8703636223886260e-01  9.9066965903231363e-01  9.9340426774963431e-01  9.9522327983960979e-01  9.9612101657660890e-01  9.9639859990636181e-01  9.9671563178537981e-01  9.9745154690653248e-01  9.9799332819867537e-01  9.9731303554049933e-01  9.9288700890175829e-01  9.8096210700660680e-01  9.7265579246136913e-01  9.8894959942817440e-01  9.9409462436161289e-01  9.4809296284568645e-01  8.7349792057332476e-01  7.5599155271804541e-01  6.3180203870869345e-01  5.2655248809511179e-01  4.4346064012451081e-01  3.7899295865665661e-01  3.2838320130694654e-01  2.8769603533012694e-01  2.5430742172272697e-01  2.2664147376002883e-01  2.0368721497373837e-01  1.8452389561059168e-01  1.6785572918656436e-01  1.5141910537526282e-01  1.3133138576171299e-01  1.0354519809007202e-01  7.3987894915343091e-02  1.7651024299947699e-01  1.8427212857905326e-01  1.2777449126139417e-01  4.5438838060919079e-01  7.3782800954095895e-01  8.9544918991678324e-01  9.4795911006176992e-01  9.6080774393594293e-01  9.6939895110141794e-01  9.7732925607586385e-01  9.8388995766910425e-01  9.8880467213557743e-01  9.9222951277975746e-01  9.9456608646043887e-01  9.9629881269917264e-01  9.9773617602718034e-01  9.9877941117415436e-01  9.9915554477956936e-01  9.9887389273686433e-01  9.9658609398196496e-01  9.8821849339981782e-01  9.7551518511831603e-01  9.7519730975830532e-01  9.9320793892993875e-01  9.8354499514722649e-01  9.3093870035559079e-01  8.4985075935207832e-01  7.3066803750887910e-01  6.1253235619062574e-01  5.1348046027915406e-01  4.3507528272080465e-01  3.7403477197857460e-01  3.2621057500671963e-01  2.8811915646791497e-01  2.5720618059331257e-01  2.3144697385805585e-01  2.0863794949896680e-01  1.8544784034016631e-01  1.5645488853075826e-01  1.1646498939407962e-01  7.6544923431388634e-02  1.7723933246384230e-01  1.8247804747559682e-01  1.0748777347282773e-01  3.2315574248691725e-01  5.3544644849157919e-01  6.9032505926883747e-01  8.1361279496409145e-01  9.0166092970085210e-01  9.4674372067672907e-01  9.5982773725611892e-01  9.6484168817823246e-01  9.7348644034064657e-01  9.8248746351832306e-01  9.8938545686393220e-01  9.9400342016400756e-01  9.9691881597204179e-01  9.9862707359078351e-01  9.9940991076339403e-01  9.9958575965363261e-01  9.9959335799263183e-01  9.9886427538433065e-01  9.9445170868723631e-01  9.8403776726753611e-01  9.7310502336658644e-01  9.7678552179222689e-01  9.9096614622730583e-01  9.7210340838609999e-01  9.1734912971420934e-01  8.3168219767654128e-01  7.1428610007195237e-01  6.0211112667534117e-01  5.0851739330609980e-01  4.3441452643472078e-01  3.7688033696608225e-01  3.3201178270036918e-01  2.9587992494199689e-01  2.6433953454428644e-01  2.3203648441226746e-01  1.9110027807386265e-01  1.3416206820080756e-01  7.9675597860045841e-02  1.7803480476187050e-01  1.8106622715145529e-01  9.6221455034754808e-02  2.4433477933769548e-01  3.9610809560148524e-01  5.0928001183700600e-01  6.0891310155102929e-01  7.1061834131138824e-01  8.1495119538395100e-01  8.9861344764698214e-01  9.4906978953465704e-01  9.6707310775441591e-01  9.6603175210071002e-01  9.7172661159046358e-01  9.8209789061632236e-01  9.9080595612126865e-01  9.9612489197370391e-01  9.9867585005844228e-01  9.9953895508050150e-01  9.9966743970469396e-01  9.9974478912381515e-01  9.9974808302118578e-01  9.9819945343009187e-01  9.9253141054019289e-01  9.8193297068242413e-01  9.7200563276968488e-01  9.7505660401835181e-01  9.8473976343552994e-01  9.6195770608833608e-01  9.0700072957098343e-01  8.1955334540597691e-01  7.0631892765416426e-01  6.0034687069060144e-01  5.1209147661033438e-01  4.4209462399956662e-01  3.8695378312740136e-01  3.4080106419054496e-01  2.9525347160066867e-01  2.3846936654691855e-01  1.5878521867984460e-01  8.3634335231652868e-02  1.7891286903773557e-01  1.7990382900824661e-01  8.8867497111791677e-02  1.9363801134909059e-01  3.0354332288745572e-01  3.8275090015530344e-01  4.4997986319657823e-01  5.2144180055799672e-01  6.0619320052537351e-01  7.063512720