<?xml version="1.0"?>
<VTKFile type="UnstructuredGrid"  version="0.1"  >
<UnstructuredGrid>
<Piece  NumberOfPoints="1681" NumberOfCells="3200">
<Points>
<DataArray  type="Float64"  NumberOfComponents="3"  format="ascii">0 0 0  0.025 0 0  0.05 0 0  0.075 0 0  0.1 0 0  0.125 0 0  0.15 0 0  0.175 0 0  0.2 0 0  0.225 0 0  0.25 0 0  0.275 0 0  0.3 0 0  0.325 0 0  0.35 0 0  0.375 0 0  0.4 0 0  0.425 0 0  0.45 0 0  0.475 0 0  0.5 0 0  0.525 0 0  0.55 0 0  0.575 0 0  0.6 0 0  0.625 0 0  0.65 0 0  0.675 0 0  0.7 0 0  0.725 0 0  0.75 0 0  0.775 0 0  0.8 0 0  0.825 0 0  0.85 0 0  0.875 0 0  0.9 0 0  0.925 0 0  0.95 0 0  0.975 0 0  1 0 0  0 0.025 0  0.025 0.025 0  0.05 0.025 0  0.075 0.025 0  0.1 0.025 0  0.125 0.025 0  0.15 0.025 0  0.175 0.025 0  0.2 0.025 0  0.225 0.025 0  0.25 0.025 0  0.275 0.025 0  0.3 0.025 0  0.325 0.025 0  0.35 0.025 0  0.375 0.025 0  0.4 0.025 0  0.425 0.025 0  0.45 0.025 0  0.475 0.025 0  0.5 0.025 0  0.525 0.025 0  0.55 0.025 0  0.575 0.025 0  0.6 0.025 0  0.625 0.025 0  0.65 0.025 0  0.675 0.025 0  0.7 0.025 0  0.725 0.025 0  0.75 0.025 0  0.775 0.025 0  0.8 0.025 0  0.825 0.025 0  0.85 0.025 0  0.875 0.025 0  0.9 0.025 0  0.925 0.025 0  0.95 0.025 0  0.975 0.025 0  1 0.025 0  0 0.05 0  0.025 0.05 0  0.05 0.05 0  0.075 0.05 0  0.1 0.05 0  0.125 0.05 0  0.15 0.05 0  0.175 0.05 0  0.2 0.05 0  0.225 0.05 0  0.25 0.05 0  0.275 0.05 0  0.3 0.05 0  0.325 0.05 0  0.35 0.05 0  0.375 0.05 0  0.4 0.05 0  0.425 0.05 0  0.45 0.05 0  0.475 0.05 0  0.5 0.05 0  0.525 0.05 0  0.55 0.05 0  0.575 0.05 0  0.6 0.05 0  0.625 0.05 0  0.65 0.05 0  0.675 0.05 0  0.7 0.05 0  0.725 0.05 0  0.75 0.05 0  0.775 0.05 0  0.8 0.05 0  0.825 0.05 0  0.85 0.05 0  0.875 0.05 0  0.9 0.05 0  0.925 0.05 0  0.95 0.05 0  0.975 0.05 0  1 0.05 0  0 0.075 0  0.025 0.075 0  0.05 0.075 0  0.075 0.075 0  0.1 0.075 0  0.125 0.075 0  0.15 0.075 0  0.175 0.075 0  0.2 0.075 0  0.225 0.075 0  0.25 0.075 0  0.275 0.075 0  0.3 0.075 0  0.325 0.075 0  0.35 0.075 0  0.375 0.075 0  0.4 0.075 0  0.425 0.075 0  0.45 0.075 0  0.475 0.075 0  0.5 0.075 0  0.525 0.075 0  0.55 0.075 0  0.575 0.075 0  0.6 0.075 0  0.625 0.075 0  0.65 0.075 0  0.675 0.075 0  0.7 0.075 0  0.725 0.075 0  0.75 0.075 0  0.775 0.075 0  0.8 0.075 0  0.825 0.075 0  0.85 0.075 0  0.875 0.075 0  0.9 0.075 0  0.925 0.075 0  0.95 0.075 0  0.975 0.075 0  1 0.075 0  0 0.1 0  0.025 0.1 0  0.05 0.1 0  0.075 0.1 0  0.1 0.1 0  0.125 0.1 0  0.15 0.1 0  0.175 0.1 0  0.2 0.1 0  0.225 0.1 0  0.25 0.1 0  0.275 0.1 0  0.3 0.1 0  0.325 0.1 0  0.35 0.1 0  0.375 0.1 0  0.4 0.1 0  0.425 0.1 0  0.45 0.1 0  0.475 0.1 0  0.5 0.1 0  0.525 0.1 0  0.55 0.1 0  0.575 0.1 0  0.6 0.1 0  0.625 0.1 0  0.65 0.1 0  0.675 0.1 0  0.7 0.1 0  0.725 0.1 0  0.75 0.1 0  0.775 0.1 0  0.8 0.1 0  0.825 0.1 0  0.85 0.1 0  0.875 0.1 0  0.9 0.1 0  0.925 0.1 0  0.95 0.1 0  0.975 0.1 0  1 0.1 0  0 0.125 0  0.025 0.125 0  0.05 0.125 0  0.075 0.125 0  0.1 0.125 0  0.125 0.125 0  0.15 0.125 0  0.175 0.125 0  0.2 0.125 0  0.225 0.125 0  0.25 0.125 0  0.275 0.125 0  0.3 0.125 0  0.325 0.125 0  0.35 0.125 0  0.375 0.125 0  0.4 0.125 0  0.425 0.125 0  0.45 0.125 0  0.475 0.125 0  0.5 0.125 0  0.525 0.125 0  0.55 0.125 0  0.575 0.125 0  0.6 0.125 0  0.625 0.125 0  0.65 0.125 0  0.675 0.125 0  0.7 0.125 0  0.725 0.125 0  0.75 0.125 0  0.775 0.125 0  0.8 0.125 0  0.825 0.125 0  0.85 0.125 0  0.875 0.125 0  0.9 0.125 0  0.925 0.125 0  0.95 0.125 0  0.975 0.125 0  1 0.125 0  0 0.15 0  0.025 0.15 0  0.05 0.15 0  0.075 0.15 0  0.1 0.15 0  0.125 0.15 0  0.15 0.15 0  0.175 0.15 0  0.2 0.15 0  0.225 0.15 0  0.25 0.15 0  0.275 0.15 0  0.3 0.15 0  0.325 0.15 0  0.35 0.15 0  0.375 0.15 0  0.4 0.15 0  0.425 0.15 0  0.45 0.15 0  0.475 0.15 0  0.5 0.15 0  0.525 0.15 0  0.55 0.15 0  0.575 0.15 0  0.6 0.15 0  0.625 0.15 0  0.65 0.15 0  0.675 0.15 0  0.7 0.15 0  0.725 0.15 0  0.75 0.15 0  0.775 0.15 0  0.8 0.15 0  0.825 0.15 0  0.85 0.15 0  0.875 0.15 0  0.9 0.15 0  0.925 0.15 0  0.95 0.15 0  0.975 0.15 0  1 0.15 0  0 0.175 0  0.025 0.175 0  0.05 0.175 0  0.075 0.175 0  0.1 0.175 0  0.125 0.175 0  0.15 0.175 0  0.175 0.175 0  0.2 0.175 0  0.225 0.175 0  0.25 0.175 0  0.275 0.175 0  0.3 0.175 0  0.325 0.175 0  0.35 0.175 0  0.375 0.175 0  0.4 0.175 0  0.425 0.175 0  0.45 0.175 0  0.475 0.175 0  0.5 0.175 0  0.525 0.175 0  0.55 0.175 0  0.575 0.175 0  0.6 0.175 0  0.625 0.175 0  0.65 0.175 0  0.675 0.175 0  0.7 0.175 0  0.725 0.175 0  0.75 0.175 0  0.775 0.175 0  0.8 0.175 0  0.825 0.175 0  0.85 0.175 0  0.875 0.175 0  0.9 0.175 0  0.925 0.175 0  0.95 0.175 0  0.975 0.175 0  1 0.175 0  0 0.2 0  0.025 0.2 0  0.05 0.2 0  0.075 0.2 0  0.1 0.2 0  0.125 0.2 0  0.15 0.2 0  0.175 0.2 0  0.2 0.2 0  0.225 0.2 0  0.25 0.2 0  0.275 0.2 0  0.3 0.2 0  0.325 0.2 0  0.35 0.2 0  0.375 0.2 0  0.4 0.2 0  0.425 0.2 0  0.45 0.2 0  0.475 0.2 0  0.5 0.2 0  0.525 0.2 0  0.55 0.2 0  0.575 0.2 0  0.6 0.2 0  0.625 0.2 0  0.65 0.2 0  0.675 0.2 0  0.7 0.2 0  0.725 0.2 0  0.75 0.2 0  0.775 0.2 0  0.8 0.2 0  0.825 0.2 0  0.85 0.2 0  0.875 0.2 0  0.9 0.2 0  0.925 0.2 0  0.95 0.2 0  0.975 0.2 0  1 0.2 0  0 0.225 0  0.025 0.225 0  0.05 0.225 0  0.075 0.225 0  0.1 0.225 0  0.125 0.225 0  0.15 0.225 0  0.175 0.225 0  0.2 0.225 0  0.225 0.225 0  0.25 0.225 0  0.275 0.225 0  0.3 0.225 0  0.325 0.225 0  0.35 0.225 0  0.375 0.225 0  0.4 0.225 0  0.425 0.225 0  0.45 0.225 0  0.475 0.225 0  0.5 0.225 0  0.525 0.225 0  0.55 0.225 0  0.575 0.225 0  0.6 0.225 0  0.625 0.225 0  0.65 0.225 0  0.675 0.225 0  0.7 0.225 0  0.725 0.225 0  0.75 0.225 0  0.775 0.225 0  0.8 0.225 0  0.825 0.225 0  0.85 0.225 0  0.875 0.225 0  0.9 0.225 0  0.925 0.225 0  0.95 0.225 0  0.975 0.225 0  1 0.225 0  0 0.25 0  0.025 0.25 0  0.05 0.25 0  0.075 0.25 0  0.1 0.25 0  0.125 0.25 0  0.15 0.25 0  0.175 0.25 0  0.2 0.25 0  0.225 0.25 0  0.25 0.25 0  0.275 0.25 0  0.3 0.25 0  0.325 0.25 0  0.35 0.25 0  0.375 0.25 0  0.4 0.25 0  0.425 0.25 0  0.45 0.25 0  0.475 0.25 0  0.5 0.25 0  0.525 0.25 0  0.55 0.25 0  0.575 0.25 0  0.6 0.25 0  0.625 0.25 0  0.65 0.25 0  0.675 0.25 0  0.7 0.25 0  0.725 0.25 0  0.75 0.25 0  0.775 0.25 0  0.8 0.25 0  0.825 0.25 0  0.85 0.25 0  0.875 0.25 0  0.9 0.25 0  0.925 0.25 0  0.95 0.25 0  0.975 0.25 0  1 0.25 0  0 0.275 0  0.025 0.275 0  0.05 0.275 0  0.075 0.275 0  0.1 0.275 0  0.125 0.275 0  0.15 0.275 0  0.175 0.275 0  0.2 0.275 0  0.225 0.275 0  0.25 0.275 0  0.275 0.275 0  0.3 0.275 0  0.325 0.275 0  0.35 0.275 0  0.375 0.275 0  0.4 0.275 0  0.425 0.275 0  0.45 0.275 0  0.475 0.275 0  0.5 0.275 0  0.525 0.275 0  0.55 0.275 0  0.575 0.275 0  0.6 0.275 0  0.625 0.275 0  0.65 0.275 0  0.675 0.275 0  0.7 0.275 0  0.725 0.275 0  0.75 0.275 0  0.775 0.275 0  0.8 0.275 0  0.825 0.275 0  0.85 0.275 0  0.875 0.275 0  0.9 0.275 0  0.925 0.275 0  0.95 0.275 0  0.975 0.275 0  1 0.275 0  0 0.3 0  0.025 0.3 0  0.05 0.3 0  0.075 0.3 0  0.1 0.3 0  0.125 0.3 0  0.15 0.3 0  0.175 0.3 0  0.2 0.3 0  0.225 0.3 0  0.25 0.3 0  0.275 0.3 0  0.3 0.3 0  0.325 0.3 0  0.35 0.3 0  0.375 0.3 0  0.4 0.3 0  0.425 0.3 0  0.45 0.3 0  0.475 0.3 0  0.5 0.3 0  0.525 0.3 0  0.55 0.3 0  0.575 0.3 0  0.6 0.3 0  0.625 0.3 0  0.65 0.3 0  0.675 0.3 0  0.7 0.3 0  0.725 0.3 0  0.75 0.3 0  0.775 0.3 0  0.8 0.3 0  0.825 0.3 0  0.85 0.3 0  0.875 0.3 0  0.9 0.3 0  0.925 0.3 0  0.95 0.3 0  0.975 0.3 0  1 0.3 0  0 0.325 0  0.025 0.325 0  0.05 0.325 0  0.075 0.325 0  0.1 0.325 0  0.125 0.325 0  0.15 0.325 0  0.175 0.325 0  0.2 0.325 0  0.225 0.325 0  0.25 0.325 0  0.275 0.325 0  0.3 0.325 0  0.325 0.325 0  0.35 0.325 0  0.375 0.325 0  0.4 0.325 0  0.425 0.325 0  0.45 0.325 0  0.475 0.325 0  0.5 0.325 0  0.525 0.325 0  0.55 0.325 0  0.575 0.325 0  0.6 0.325 0  0.625 0.325 0  0.65 0.325 0  0.675 0.325 0  0.7 0.325 0  0.725 0.325 0  0.75 0.325 0  0.775 0.325 0  0.8 0.325 0  0.825 0.325 0  0.85 0.325 0  0.875 0.325 0  0.9 0.325 0  0.925 0.325 0  0.95 0.325 0  0.975 0.325 0  1 0.325 0  0 0.35 0  0.025 0.35 0  0.05 0.35 0  0.075 0.35 0  0.1 0.35 0  0.125 0.35 0  0.15 0.35 0  0.175 0.35 0  0.2 0.35 0  0.225 0.35 0  0.25 0.35 0  0.275 0.35 0  0.3 0.35 0  0.325 0.35 0  0.35 0.35 0  0.375 0.35 0  0.4 0.35 0  0.425 0.35 0  0.45 0.35 0  0.475 0.35 0  0.5 0.35 0  0.525 0.35 0  0.55 0.35 0  0.575 0.35 0  0.6 0.35 0  0.625 0.35 0  0.65 0.35 0  0.675 0.35 0  0.7 0.35 0  0.725 0.35 0  0.75 0.35 0  0.775 0.35 0  0.8 0.35 0  0.825 0.35 0  0.85 0.35 0  0.875 0.35 0  0.9 0.35 0  0.925 0.35 0  0.95 0.35 0  0.975 0.35 0  1 0.35 0  0 0.375 0  0.025 0.375 0  0.05 0.375 0  0.075 0.375 0  0.1 0.375 0  0.125 0.375 0  0.15 0.375 0  0.175 0.375 0  0.2 0.375 0  0.225 0.375 0  0.25 0.375 0  0.275 0.375 0  0.3 0.375 0  0.325 0.375 0  0.35 0.375 0  0.375 0.375 0  0.4 0.375 0  0.425 0.375 0  0.45 0.375 0  0.475 0.375 0  0.5 0.375 0  0.525 0.375 0  0.55 0.375 0  0.575 0.375 0  0.6 0.375 0  0.625 0.375 0  0.65 0.375 0  0.675 0.375 0  0.7 0.375 0  0.725 0.375 0  0.75 0.375 0  0.775 0.375 0  0.8 0.375 0  0.825 0.375 0  0.85 0.375 0  0.875 0.375 0  0.9 0.375 0  0.925 0.375 0  0.95 0.375 0  0.975 0.375 0  1 0.375 0  0 0.4 0  0.025 0.4 0  0.05 0.4 0  0.075 0.4 0  0.1 0.4 0  0.125 0.4 0  0.15 0.4 0  0.175 0.4 0  0.2 0.4 0  0.225 0.4 0  0.25 0.4 0  0.275 0.4 0  0.3 0.4 0  0.325 0.4 0  0.35 0.4 0  0.375 0.4 0  0.4 0.4 0  0.425 0.4 0  0.45 0.4 0  0.475 0.4 0  0.5 0.4 0  0.525 0.4 0  0.55 0.4 0  0.575 0.4 0  0.6 0.4 0  0.625 0.4 0  0.65 0.4 0  0.675 0.4 0  0.7 0.4 0  0.725 0.4 0  0.75 0.4 0  0.775 0.4 0  0.8 0.4 0  0.825 0.4 0  0.85 0.4 0  0.875 0.4 0  0.9 0.4 0  0.925 0.4 0  0.95 0.4 0  0.975 0.4 0  1 0.4 0  0 0.425 0  0.025 0.425 0  0.05 0.425 0  0.075 0.425 0  0.1 0.425 0  0.125 0.425 0  0.15 0.425 0  0.175 0.425 0  0.2 0.425 0  0.225 0.425 0  0.25 0.425 0  0.275 0.425 0  0.3 0.425 0  0.325 0.425 0  0.35 0.425 0  0.375 0.425 0  0.4 0.425 0  0.425 0.425 0  0.45 0.425 0  0.475 0.425 0  0.5 0.425 0  0.525 0.425 0  0.55 0.425 0  0.575 0.425 0  0.6 0.425 0  0.625 0.425 0  0.65 0.425 0  0.675 0.425 0  0.7 0.425 0  0.725 0.425 0  0.75 0.425 0  0.775 0.425 0  0.8 0.425 0  0.825 0.425 0  0.85 0.425 0  0.875 0.425 0  0.9 0.425 0  0.925 0.425 0  0.95 0.425 0  0.975 0.425 0  1 0.425 0  0 0.45 0  0.02
[...]
<PointData  Scalars="ControlVisualisation"> 
<DataArray  type="Float64"  Name="ControlVisualisation"  format="ascii">3.7324950620588965e-01  3.5618676010434536e-01  3.5624811795425165e-01  3.5646451304602966e-01  3.5682165643455077e-01  3.5724871366135363e-01  3.5767031427212026e-01  3.5803025653707676e-01  3.5830196288036731e-01  3.5848107048961786e-01  3.5857727155884861e-01  3.5860594023506620e-01  3.5857833873039058e-01  3.5851842794899030e-01  3.5842933071793864e-01  3.5831918142605690e-01  3.5819807100992529e-01  3.5806842134621447e-01  3.5793543536850631e-01  3.5780076276888967e-01  3.5766864754037214e-01  3.5753946328396730e-01  3.5741323308114936e-01  3.5728892264152090e-01  3.5716955492795621e-01  3.5705474932157177e-01  3.5694327858650515e-01  3.5683811866253157e-01  3.5673809989450178e-01  3.5664460503126250e-01  3.5655989204619754e-01  3.5648206281893974e-01  3.5641173767612444e-01  3.5634952509763457e-01  3.5629767884470831e-01  3.5625675936830975e-01  3.5622652017039275e-01  3.5620673044775419e-01  3.5619809139982994e-01  3.5619765723279684e-01  3.9051851123033932e-01  3.5618178874763207e-01  3.0662954457480729e-01  3.0769399403037923e-01  3.1007032717487537e-01  3.1368125319134382e-01  3.1791714724690268e-01  3.2209964723452439e-01  3.2570544754052450e-01  3.2848248336509472e-01  3.3036927480102241e-01  3.3143723596414748e-01  3.3183233458826800e-01  3.3166100184340519e-01  3.3110900826113066e-01  3.3024887521651369e-01  3.2917740746853436e-01  3.2796226737067019e-01  3.2665952667891957e-01  3.2530973804884494e-01  3.2393620433336850e-01  3.2256029621149207e-01  3.2120284154840145e-01  3.1986076617979275e-01  3.1855025096645823e-01  3.1726757450801962e-01  3.1603502178255655e-01  3.1485288647911003e-01  3.1371404531049185e-01  3.1263177669362113e-01  3.1161475710101733e-01  3.1067374591532382e-01  3.0981229011533645e-01  3.0902823737757590e-01  3.0833528642851576e-01  3.0774271761551902e-01  3.0725863172005424e-01  3.0688650158099168e-01  3.0662752643777663e-01  3.0648155008663192e-01  3.0642688692415448e-01  3.5619765606630799e-01  3.5621518000445501e-01  3.0770210797829478e-01  3.1130268336969680e-01  3.1712264429381337e-01  3.2498109825800159e-01  3.3378829112179953e-01  3.4225333317276890e-01  3.4942162182946523e-01  3.5486341286530909e-01  3.5853557813839881e-01  3.6055070127706029e-01  3.6121083633163531e-01  3.6077490739798396e-01  3.5953115913582345e-01  3.5766492734731675e-01  3.5537246010360635e-01  3.5280131524769892e-01  3.5004896279142644e-01  3.4719382936519877e-01  3.4427985692903279e-01  3.4136539847138903e-01  3.3847909126179476e-01  3.3562583717408945e-01  3.3282462047138961e-01  3.3010384936246562e-01  3.2747107729913061e-01  3.2494169806109047e-01  3.2251375580551617e-01  3.2020353783615790e-01  3.1802403781714400e-01  3.1599416368634881e-01  3.1413187420432248e-01  3.1243713439517451e-01  3.1093081877894058e-01  3.0963666099415260e-01  3.0856303553486575e-01  3.0772064120747772e-01  3.0711119488098271e-01  3.0671224809710979e-01  3.0648073488550226e-01  3.5619807057691100e-01  3.5637587580432378e-01  3.1043111216502944e-01  3.1846089446446746e-01  3.2789412672334017e-01  3.3845826269170498e-01  3.4918729991376163e-01  3.5885188628918607e-01  3.6662789722161510e-01  3.7220794715923894e-01  3.7569776299494195e-01  3.7731758005313237e-01  3.7740543468555454e-01  3.7630644833154386e-01  3.7429751335705508e-01  3.7164539063903312e-01  3.6854628769660502e-01  3.6515813154696075e-01  3.6158696027025894e-01  3.5792312919774116e-01  3.5422502827622054e-01  3.5052433805692290e-01  3.4689457585619249e-01  3.4331531934404974e-01  3.3980909961129546e-01  3.3640941243565098e-01  3.3313315510604080e-01  3.2998269809121122e-01  3.2695676352361580e-01  3.2408523327823291e-01  3.2138503736795460e-01  3.1885929971018989e-01  3.1653642882214444e-01  3.1442955573664499e-01  3.1255436446841617e-01  3.1093579234026775e-01  3.0959135132745469e-01  3.0852244578719418e-01  3.0772074873518263e-01  3.0711512833179017e-01  3.0662692291753685e-01  3.5620666161259495e-01  3.5670378866493424e-01  3.1579305281059306e-01  3.3270878402244164e-01  3.4732949947839759e-01  3.5951598325114514e-01  3.6966658989028151e-01  3.7762700373725694e-01  3.8331813003150483e-01  3.8681132441448340e-01  3.8841320872815210e-01  3.8840010752948395e-01  3.8711228433940076e-01  3.8487499435411704e-01  3.8192303757796264e-01  3.7847521788363320e-01  3.7471852686220497e-01  3.7075995493414826e-01  3.6669014796166760e-01  3.6259778522362429e-01  3.5850887421099809e-01  3.5446232314210158e-01  3.5051176646425908e-01  3.4665455597320982e-01  3.4288547024523930e-01  3.3924476719050706e-01  3.3573437281677743e-01  3.3236832717761033e-01  3.2913586851087012e-01  3.2607380085983906e-01  3.2319554043784698e-01  3.2050692647994750e-01  3.1802934642433794e-01  3.1578166649550105e-01  3.1378701089110944e-01  3.1205810111047921e-01  3.1061353017256910e-01  3.0945566399856894e-01  3.0854376204525824e-01  3.0774196727261810e-01  3.0689194383524421e-01  3.5622569601611026e-01  3.5721491958681800e-01  3.2859366597512535e-01  3.6299377013160078e-01  3.8454100473045111e-01  3.9534051721524355e-01  4.0074981545708194e-01  4.0323962364719940e-01  4.0385857455463020e-01  4.0308425244194779e-01  4.0124926405892863e-01  3.9856106489849619e-01  3.9519994247334411e-01  3.9138796622683708e-01  3.8725518908889384e-01  3.8292546055713178e-01  3.7849143188266815e-01  3.7402956763294087e-01  3.6957764922363756e-01  3.6519878800910288e-01  3.6087633308223327e-01  3.5665936850673563e-01  3.5257264722520326e-01  3.4859796994440162e-01  3.4474545132399209e-01  3.4102064526409986e-01  3.3744987948526239e-01  3.3402413953718940e-01  3.3073805376403437e-01  3.2762277939727946e-01  3.2469249629512192e-01  3.2195761147011881e-01  3.1943942759746674e-01  3.1715195904558241e-01  3.1511853722958594e-01  3.1335827036678510e-01  3.1187465762920108e-01  3.1066882793752287e-01  3.0966188202795930e-01  3.0862451620429693e-01  3.0728342847692292e-01  3.5625822038323640e-01  3.6650688334149395e-01  3.7255536247369603e-01  4.3279566208695641e-01  4.5373993841414645e-01  4.5361160206724926e-01  4.4647021121275277e-01  4.3795860281873983e-01  4.2984827525110780e-01  4.2245551254550212e-01  4.1569175062206171e-01  4.0939095390342728e-01  4.0339275432450589e-01  3.9765805231784224e-01  3.9214512391697903e-01  3.8681299437721556e-01  3.8166946113383926e-01  3.7669483996681563e-01  3.7189590127963312e-01  3.6727152767990545e-01  3.6278465376171681e-01  3.5846289271062404e-01  3.5429620478160045e-01  3.5027772923380524e-01  3.4641281653594852e-01  3.4267946495190355e-01  3.3910242160847925e-01  3.3568326597479581e-01  3.3239894942815879e-01  3.2928383624784874e-01  3.2634928240569849e-01  3.2361178650555128e-01  3.2108580459181763e-01  3.1878802297668996e-01  3.1674534806258070e-01  3.1497148492191396e-01  3.1347426599884004e-01  3.1223058290540123e-01  3.1111622088082569e-01  3.0978555566450100e-01  3.0780201132662099e-01  3.5630177007664732e-01  4.7984345674873274e-01  5.3349310621644030e-01  5.7219328372135170e-01  5.6393580590258918e-01  5.3705458843922571e-01  5.0719087292600551e-01  4.8132144473075839e-01  4.6071616558097106e-01  4.4453095549022559e-01  4.3161542203597414e-01  4.2097614079754136e-01  4.1194610378628865e-01  4.0407886941647819e-01  3.9704749332478789e-01  3.9065389530375028e-01  3.8477878705264917e-01  3.7929535257286501e-01  3.7415623976092788e-01  3.6930212746454916e-01  3.6468768596073042e-01  3.6029142744975745e-01  3.5608600178993011e-01  3.5206877740963932e-01  3.4821265267315066e-01  3.4450167887689598e-01  3.4095012475003711e-01  3.3756389172133805e-01  3.3431447877972187e-01  3.3122582878605927e-01  3.2830965358098346e-01  3.2558929069131898e-01  3.2307652005022092e-01  3.2077988001470420e-01  3.1874080741061589e-01  3.1696169064049956e-01  3.1544724019956666e-01  3.1416018717514743e-01  3.1292484298127415e-01  3.1123304891819925e-01  3.0845627891651561e-01  3.5635665006545836e-01  7.0027477175889574e-01  7.8172607126426052e-01  7.3790146176953275e-01  6.9224969659950897e-01  6.3402808030338764e-01  5.7635066536854529e-01  5.2926658522693260e-01  4.9384630182725342e-01  4.6762079550783053e-01  4.4793452620740648e-01  4.3268734902620487e-01  4.2048342620544776e-01  4.1042662932880070e-01  4.0189561686011943e-01  3.9445300539081629e-01  3.8788960044477139e-01  3.8191338275181885e-01  3.7645674781318944e-01  3.7141707969169474e-01  3.6670515507062557e-01  3.6226598898077494e-01  3.5804884562153022e-01  3.5405846443388500e-01  3.5024762823794831e-01  3.4657777194384726e-01  3.4307921737103930e-01  3.3973517313442453e-01  3.3654407217007859e-01  3.3350666636112314e-01  3.3062730827092385e-01  3.2793854940702238e-01  3.2544691288811972e-01  3.2317452924770890e-01  3.2114390272845306e-01  3.1936265117597079e-01  3.1783386667545988e-01  3.1649734352875625e-01  3.1511902873256592e-01  3.1298996496420667e-01  3.0925043656120094e-01  3.5642511719887909e-01  7.9290942188141822e-01  8.7965818647599037e-01  8.3416654091152864e-01  7.9115605618591345e-01  7.1955736045365382e-01  6.4066812105254900e-01  5.7437173195922009e-01  5.2489708751617015e-01  4.8910846226136501e-01  4.6301898212002035e-01  4.4348703560391972e-01  4.2838065090801075e-01  4.1631531510037806e-01  4.0643299032802388e-01  3.9806607838466190e-01  3.9085946549508116e-01  3.8449626456429475e-01  3.7877283627794434e-01  3.7361254327809268e-01  3.6882907068241244e-01  3.6438526638256924e-01  3.6019411188949441e-01  3.5625518423060315e-01  3.5251002287109545e-01  3.4891861470176477e-01  3.4550648999402039e-01  3.4223410117914049e-01  3.3911913192785537e-01  3.3615232092936176e-01  3.3333712873600363e-01  3.3069084998271742e-01  3.2823716829537436e-01  3.2600164333329412e-01  3.2398185846293232e-01  3.2220284813056427e-01  3.2067148856310285e-01  3.1928698552031431e-01  3.1773319242249459e-01  3.1507531144522899e-01  3.1019878915181087e-01  3.5650715829215812e-01  8.1246759626669440e-01  9.0704378886590864e-01  8.7170065906367189e-01  8.3992243182736659e-01  7.7231566123636297e-01  6.8601703844440054e-01  6.0821281924865711e-01  5.4890874498960562e-01  5.0605055061514626e-01  4.7509115173428584e-01  4.5223280048224895e-01  4.3487284578071739e-01  4.2126054037955901e-01  4.1030960558017193e-01  4.0125656324352577e-01  3.9356463886298904e-01  3.8691742990435374e-01  3.8104606101893168e-01  3.7579997507335033e-01  3.7100552926974939e-01  3.6659731954191266e-01  3.6247490921917974e-01  3.5863039355389620e-01  3.5498942096029323e-01  3.5150373574143701e-01  3.4821370371469512e-01  3.4506216723376398e-01  3.4204584093132318e-01  3.3916532850220532e-01  3.3643630088710330e-01  3.3386968007115236e-01  3.3147420791598281e-01  3.2928276537694356e-01  3.2729864692717275e-01  3.2553191760549727e-01  3.2398907898287310e-01  3.2254725090348252e-01  3.2078822994591205e-01  3.1751722447054875e-01  3.1130857494074327e-01  3.5660301319313059e-01  7.8482146317356716e-01  8.8719138976446776e-01  8.6294026655189204e-01  8.4265088911632047e-01  7.8575191796956312e-01  7.0396352196088297e-01  6.2464100298014591e-01  5.6201746073855485e-01  5.1605664497316828e-01  4.8264067764346180e-01  4.5797279759329451e-01  4.3931533034972714e-01  4.2481278824034097e-01  4.1323452543372424e-01  4.0377812090573961e-01  3.9582945289307309e-01  3.8904242296608815e-01  3.8313965857520454e-01  3.7789935543445208e-01  3.7316661587578553e-01  3.6885530764394442e-01  3.6486561921737642e-01  3.6115143156332580e-01  3.5766950627401922e-01  3.5434193370287648e-01  3.5119448609479509e-01  3.4820457526852955e-01  3.4532705290022542e-01  3.4257301975735877e-01  3.3995827679555179e-01  3.3748941041105501e-01  3.3518563237479054e-01  3.3306234456032086e-01  3.3113296697873612e-01  3.2938998061358188e-01  3.2784070418104327e-01  3.2633436185885989e-01  3.2433745386849361e-01  3.2035381544326896e-01  3.1260073082358786e-01  3.5671406428742491e-01  6.6955772341598763e-01  8.1841320969374576e-01  8.0376589141984944e-01  8.0500494336324524e-01  7.6327002115522991e-01  6.9379780027858584e-01  6.2186474252310575e-01  5.6264288936395401e-01  5.1793730432314644e-01  4.8483521383186889e-01  4.6011473128865349e-01  4.4128629628374244e-01  4.2663094448378441e-01  4.1492558980629052e-01  4.0539725753757155e-01  3.9745349642201072e-01  3.9073398495816308e-01  3.8492901247991718e-01  3.7982224356428507e-01  3.7524157882842302e-01  3.7109545494889962e-01  3.6729953975308416e-01  3.6377536092630486e-01  3.6049720788445860e-01  3.5738750290098820e-01  3.5443328294953252e-01  3.5162944809099700e-01  3.4893342546386835e-01  3.4636324434081983e-01  3.4391427221772508e-01  3.4158221669608557e-01  3.3939677183200517e-01  3.3737000329311345e-01  3.3552190142068311e-01  3.3383843571348859e-01  3.3230308783022511e-01  3.3073181583801781e-01  3.2845459530742299e-01  3.2363963108368810e-01  3.1409664964665773e-01  3.5684458993405466e-01  4.3816791758644419e-01  6.3776884750931850e-01  7.0779413069290198e-01  7.3581473188218061e-01  7.1322974645077641e-01  6.6096846185532554e-01  6.0251603486793859e-01  5.5181952382615396e-01  5.1201487078335228e-01  4.8168111579271233e-01  4.5853551560465805e-01  4.4063338142757214e-01  4.2655804065061387e-01  4.1524940281034445e-01  4.0603603008003741e-01  3.9837282295136750e-01  3.9190743051351812e-01  3.8635117232661104e-01  3.8148865898966150e-01  3.7715753025925430e-01  3.7326044827960986e-01  3.6972530876969650e-01  3.6645833167075420e-01  3.6343972091492116e-01  3.6058066109745018e-01  3.5788752698194864e-01  3.5533739280870874e-01  3.5288794280930902e-01  3.5055386152894474e-01  3.4831866273401130e-01  3.4618294321268622e-01  3.4417810627288720e-01  3.4229718885753435e-01  3.4056502158490853e-01  3.3896878069632003e-01  3.3746657436203231e-01  3.3582059206304743e-01  3.3321952025144630e-01  3.2744037235495377e-01  3.1582703274940527e-01  3.5699518050996770e-01  3.6723709926244325e-01  4.5466503383036250e-01  6.0099382663630974e-01  6.5215713956488564e-01  6.4842534381826056e-01  6.1482934751919238e-01  5.7218908255740464e-01  5.3259626587320952e-01  4.9988095359872453e-01  4.7396897601989280e-01  4.5361144987559848e-01  4.3752044316334127e-01  4.2464251950880255e-01  4.1419378636285825e-01  4.0563455093638551e-01  3.9850695478788112e-01  3.9248070305543947e-01  3.8732580998163990e-01  3.8282530388294816e-01  3.7883811346156077e-01  3.7527191627408180e-01  3.7207339593299565e-01  3.6914129267003881e-01  3.6643851226838320e-01  3.6389711717421858e-01  3.6152330352815432e-01  3.5929641711092331e-01  3.5716887654225027e-01  3.5513593116482378e-01  3.5317770672595744e-01  3.5131430742443798e-01  3.4955530481934977e-01  3.4789000761638250e-01  3.4632940839397275e-01  3.4486491741417108e-01  3.4342344095485960e-01  3.4171210936441943e-01  3.3872890718890009e-01  3.3183373749125311e-01  3.1782278861506114e-01  3.5716790128079806e-01  3.6260539243255158e-01  3.9569918520793829e-01  5.1859226198385344e-01  5.7499017444225409e-01  5.8355273785616180e-01  5.6554778695094932e-01  5.3740388055732025e-01  5.0886756807707900e-01  4.8378399121753390e-01  4.6298887443746944e-01  4.4607238341535421e-01  4.3234051146231961e-01  4.2112246057284447e-01  4.1187932404249761e-01  4.0424158311866065e-01  3.9783599471557307e-01  3.9241469964599796e-01  3.8778765093537954e-01  3.8375935902947728e-01  3.8022694552583192e-01  3.7709089181332567e-01  3.7429076985058141e-01  3.7175800095902595e-01  3.6945509231565526e-01  3.6730866478764673e-01  3.6532719961129240e-01  3.6349679411698843e-01  3.6175683225160477e-01  3.6012326283220186e-01  3.5853945995584802e-01  3.5703762898908903e-01  3.5559973022008379e-01  3.5423977595283107e-01  3.5293967617741367e-01  3.5167253836893464e-01  3.5032957202519144e-01  3.4854183964381946e-01  3.4512839332937445e-01  3.3691181205640114e-01  3.2012912761410267e-01  3.5736731782083919e-01  3.6177504954488721e-01  3.7594283369034531e-01  4.6857149589935998e-01  5.1608924743660078e-01  5.2854818066761311e-01  5.2049845539081696e-01  5.0333891408755360e-01  4.8405861025206048e-01  4.6594159404399688e-01  4.5014224892958482e-01  4.3680155745901661e-01  4.2563347767676823e-01  4.1630381257628840e-01  4.0850621224445771e-01  4.0196683746267836e-01  3.9645042355771515e-01  3.9175396604909218e-01  3.8775445629323774e-01  3.8429331076530016e-01  3.8129496847574323e-01  3.7867566864876234e-01  3.7635440342351739e-01  3.7428308953011763e-01  3.7244896185025189e-01  3.7077711049303724e-01  3.6928023148092104e-01  3.6791174675028521e-01  3.6666016012485686e-01  3.6551151823343880e-01  3.6442719771777393e-01  3.6340387639159255e-01  3.6241209394348639e-01  3.6146409052174444e-01  3.6053613266200729e-01  3.5954953673242840e-01  3.5837156140298598e-01  3.5652854426223907e-01  3.5257525233985432e-01  3.4281412698141378e-01  3.2279371831160830e-01  3.5759823294479126e-01  3.6085864611592960e-01  3.6259419350637617e-01  4.3515915481937661e-01  4.7319927936709133e-01  4.8539758910553049e-01  4.8270789972538858e-01  4.7284511331883500e-01  4.6044394344085171e-01  4.4799902638643252e-01  4.3658457589160182e-01  4.2655797007418045e-01  4.1790449053811790e-01  4.1051921695626775e-01  4.0423143524381777e-01  3.9888652471358038e-01  3.9434485712896311e-01  3.9049555780583078e-01  3.8721007928656193e-01  3.8440576481578498e-01  3.8200159796956373e-01  3.7994077382632474e-01  3.7816323734282375e-01  3.7663870011606942e-01  3.7533548646374343e-01  3.7422305034067410e-01  3.7328636509321722e-01  3.7250613284038359e-01  3.7185414462312316e-01  3.7129207670874292e-01  3.7082978991777121e-01  3.7042225833343545e-01  3.7004285033908652e-01  3.6967491670519764e-01  3.6926244519366430e-01  3.6869969183214252e-01  3.6777544020506747e-01  3.6589791049351500e-01  3.6133422535388071e-01  3.4972048835089559e-01  3.2591284908305429e-01  3.5786683872869846e-01  3.6012674510633375e-01  3.5305482341240396e-01  4.1179279526516810e-01  4.4189946483598619e-01  4.5235682915080605e-01  4.5225670657645678e-01  4.4686340278343473e-01  4.3922708364666280e-01  4.3105525142034939e-01  4.2320538070409724e-01  4.1603386084525029e-01  4.0966710597595718e-01  4.0411596177490539e-01  3.9931933132069258e-01  3.9518254970035205e-01  3.9167129765058839e-01  3.8870327173693653e-01  3.8618977117766967e-01  3.8408554882250384e-01  3.8232436697695699e-01  3.8086263089123112e-01  3.7968589917892254e-01  3.7876255228213662e-01  3.7806766151927557e-01  3.7758085801037872e-01  3.7728159175376252e-01  3.7718104652840173e-01  3.7725345513798292e-01  3.7744077428007916e-01  3.7775243890949955e-01  3.7814727908102025e-01  3.7859638336138163e-01  3.7902520683643032e-01  3.7935005565013397e-01  3.7940548347922787e-01  3.7887667192743751e-01  3.7699124591779243e-01  3.7169663087479426e-01  3.5789477468385628e-01  3.2958796428339815e-01  3.5818194667393272e-01  3.5950974946186504e-01  3.4537728478391139e-01  3.9370411976360359e-01  4.1800992176069685e-01  4.2680793621400109e-01  4.2788635635238359e-01  4.2517084685263934e-01  4.2071237950899293e-01  4.1562488939922015e-01  4.1051060275400830e-01  4.0569007673642205e-01  4.0130116792626430e-01  3.9740007694017482e-01  3.9398635785227037e-01  3.9102012480037807e-01  3.8851586323598808e-01  3.8644046338307786e-01  3.8470970013736244e-01  3.8331549062852760e-01  3.8222926441484528e-01  3.8142330199066093e-01  3.8087567280659373e-01  3.8059909939597003e-01  3.8056916994171663e-01  3.8076271087172153e-01  3.8119583005985214e-01  3.8187033045883356e-01  3.8277473311668370e-01  3.8386860340669343e-01  3.8515535472535573e-01  3.8659814341852816e-01  3.8813676885987514e-01  3.8968425692498049e-01  3.9105825316404275e-01  3.9203001057162334e-01  3.9214215537364405e-01  3.9033359637769871e-01  3.8411890963052947e-01  3.6760973087123539e-01  3.3392944757217458e-01  3.5855371282145548e-01  3.5898805615516216e-01  3.3910142917312086e-01  3.7932895285561624e-01  3.9926268640951407e-01  4.0663901967389571e-01  4.0823294438156982e-01  4.0713014937415098e-01  4.0475078752040772e-01  4.018427121