<?xml version="1.0"?>
<VTKFile type="UnstructuredGrid"  version="0.1"  >
<UnstructuredGrid>
<Piece  NumberOfPoints="1681" NumberOfCells="3200">
<Points>
<DataArray  type="Float64"  NumberOfComponents="3"  format="ascii">0 0 0  0.025 0 0  0.05 0 0  0.075 0 0  0.1 0 0  0.125 0 0  0.15 0 0  0.175 0 0  0.2 0 0  0.225 0 0  0.25 0 0  0.275 0 0  0.3 0 0  0.325 0 0  0.35 0 0  0.375 0 0  0.4 0 0  0.425 0 0  0.45 0 0  0.475 0 0  0.5 0 0  0.525 0 0  0.55 0 0  0.575 0 0  0.6 0 0  0.625 0 0  0.65 0 0  0.675 0 0  0.7 0 0  0.725 0 0  0.75 0 0  0.775 0 0  0.8 0 0  0.825 0 0  0.85 0 0  0.875 0 0  0.9 0 0  0.925 0 0  0.95 0 0  0.975 0 0  1 0 0  0 0.025 0  0.025 0.025 0  0.05 0.025 0  0.075 0.025 0  0.1 0.025 0  0.125 0.025 0  0.15 0.025 0  0.175 0.025 0  0.2 0.025 0  0.225 0.025 0  0.25 0.025 0  0.275 0.025 0  0.3 0.025 0  0.325 0.025 0  0.35 0.025 0  0.375 0.025 0  0.4 0.025 0  0.425 0.025 0  0.45 0.025 0  0.475 0.025 0  0.5 0.025 0  0.525 0.025 0  0.55 0.025 0  0.575 0.025 0  0.6 0.025 0  0.625 0.025 0  0.65 0.025 0  0.675 0.025 0  0.7 0.025 0  0.725 0.025 0  0.75 0.025 0  0.775 0.025 0  0.8 0.025 0  0.825 0.025 0  0.85 0.025 0  0.875 0.025 0  0.9 0.025 0  0.925 0.025 0  0.95 0.025 0  0.975 0.025 0  1 0.025 0  0 0.05 0  0.025 0.05 0  0.05 0.05 0  0.075 0.05 0  0.1 0.05 0  0.125 0.05 0  0.15 0.05 0  0.175 0.05 0  0.2 0.05 0  0.225 0.05 0  0.25 0.05 0  0.275 0.05 0  0.3 0.05 0  0.325 0.05 0  0.35 0.05 0  0.375 0.05 0  0.4 0.05 0  0.425 0.05 0  0.45 0.05 0  0.475 0.05 0  0.5 0.05 0  0.525 0.05 0  0.55 0.05 0  0.575 0.05 0  0.6 0.05 0  0.625 0.05 0  0.65 0.05 0  0.675 0.05 0  0.7 0.05 0  0.725 0.05 0  0.75 0.05 0  0.775 0.05 0  0.8 0.05 0  0.825 0.05 0  0.85 0.05 0  0.875 0.05 0  0.9 0.05 0  0.925 0.05 0  0.95 0.05 0  0.975 0.05 0  1 0.05 0  0 0.075 0  0.025 0.075 0  0.05 0.075 0  0.075 0.075 0  0.1 0.075 0  0.125 0.075 0  0.15 0.075 0  0.175 0.075 0  0.2 0.075 0  0.225 0.075 0  0.25 0.075 0  0.275 0.075 0  0.3 0.075 0  0.325 0.075 0  0.35 0.075 0  0.375 0.075 0  0.4 0.075 0  0.425 0.075 0  0.45 0.075 0  0.475 0.075 0  0.5 0.075 0  0.525 0.075 0  0.55 0.075 0  0.575 0.075 0  0.6 0.075 0  0.625 0.075 0  0.65 0.075 0  0.675 0.075 0  0.7 0.075 0  0.725 0.075 0  0.75 0.075 0  0.775 0.075 0  0.8 0.075 0  0.825 0.075 0  0.85 0.075 0  0.875 0.075 0  0.9 0.075 0  0.925 0.075 0  0.95 0.075 0  0.975 0.075 0  1 0.075 0  0 0.1 0  0.025 0.1 0  0.05 0.1 0  0.075 0.1 0  0.1 0.1 0  0.125 0.1 0  0.15 0.1 0  0.175 0.1 0  0.2 0.1 0  0.225 0.1 0  0.25 0.1 0  0.275 0.1 0  0.3 0.1 0  0.325 0.1 0  0.35 0.1 0  0.375 0.1 0  0.4 0.1 0  0.425 0.1 0  0.45 0.1 0  0.475 0.1 0  0.5 0.1 0  0.525 0.1 0  0.55 0.1 0  0.575 0.1 0  0.6 0.1 0  0.625 0.1 0  0.65 0.1 0  0.675 0.1 0  0.7 0.1 0  0.725 0.1 0  0.75 0.1 0  0.775 0.1 0  0.8 0.1 0  0.825 0.1 0  0.85 0.1 0  0.875 0.1 0  0.9 0.1 0  0.925 0.1 0  0.95 0.1 0  0.975 0.1 0  1 0.1 0  0 0.125 0  0.025 0.125 0  0.05 0.125 0  0.075 0.125 0  0.1 0.125 0  0.125 0.125 0  0.15 0.125 0  0.175 0.125 0  0.2 0.125 0  0.225 0.125 0  0.25 0.125 0  0.275 0.125 0  0.3 0.125 0  0.325 0.125 0  0.35 0.125 0  0.375 0.125 0  0.4 0.125 0  0.425 0.125 0  0.45 0.125 0  0.475 0.125 0  0.5 0.125 0  0.525 0.125 0  0.55 0.125 0  0.575 0.125 0  0.6 0.125 0  0.625 0.125 0  0.65 0.125 0  0.675 0.125 0  0.7 0.125 0  0.725 0.125 0  0.75 0.125 0  0.775 0.125 0  0.8 0.125 0  0.825 0.125 0  0.85 0.125 0  0.875 0.125 0  0.9 0.125 0  0.925 0.125 0  0.95 0.125 0  0.975 0.125 0  1 0.125 0  0 0.15 0  0.025 0.15 0  0.05 0.15 0  0.075 0.15 0  0.1 0.15 0  0.125 0.15 0  0.15 0.15 0  0.175 0.15 0  0.2 0.15 0  0.225 0.15 0  0.25 0.15 0  0.275 0.15 0  0.3 0.15 0  0.325 0.15 0  0.35 0.15 0  0.375 0.15 0  0.4 0.15 0  0.425 0.15 0  0.45 0.15 0  0.475 0.15 0  0.5 0.15 0  0.525 0.15 0  0.55 0.15 0  0.575 0.15 0  0.6 0.15 0  0.625 0.15 0  0.65 0.15 0  0.675 0.15 0  0.7 0.15 0  0.725 0.15 0  0.75 0.15 0  0.775 0.15 0  0.8 0.15 0  0.825 0.15 0  0.85 0.15 0  0.875 0.15 0  0.9 0.15 0  0.925 0.15 0  0.95 0.15 0  0.975 0.15 0  1 0.15 0  0 0.175 0  0.025 0.175 0  0.05 0.175 0  0.075 0.175 0  0.1 0.175 0  0.125 0.175 0  0.15 0.175 0  0.175 0.175 0  0.2 0.175 0  0.225 0.175 0  0.25 0.175 0  0.275 0.175 0  0.3 0.175 0  0.325 0.175 0  0.35 0.175 0  0.375 0.175 0  0.4 0.175 0  0.425 0.175 0  0.45 0.175 0  0.475 0.175 0  0.5 0.175 0  0.525 0.175 0  0.55 0.175 0  0.575 0.175 0  0.6 0.175 0  0.625 0.175 0  0.65 0.175 0  0.675 0.175 0  0.7 0.175 0  0.725 0.175 0  0.75 0.175 0  0.775 0.175 0  0.8 0.175 0  0.825 0.175 0  0.85 0.175 0  0.875 0.175 0  0.9 0.175 0  0.925 0.175 0  0.95 0.175 0  0.975 0.175 0  1 0.175 0  0 0.2 0  0.025 0.2 0  0.05 0.2 0  0.075 0.2 0  0.1 0.2 0  0.125 0.2 0  0.15 0.2 0  0.175 0.2 0  0.2 0.2 0  0.225 0.2 0  0.25 0.2 0  0.275 0.2 0  0.3 0.2 0  0.325 0.2 0  0.35 0.2 0  0.375 0.2 0  0.4 0.2 0  0.425 0.2 0  0.45 0.2 0  0.475 0.2 0  0.5 0.2 0  0.525 0.2 0  0.55 0.2 0  0.575 0.2 0  0.6 0.2 0  0.625 0.2 0  0.65 0.2 0  0.675 0.2 0  0.7 0.2 0  0.725 0.2 0  0.75 0.2 0  0.775 0.2 0  0.8 0.2 0  0.825 0.2 0  0.85 0.2 0  0.875 0.2 0  0.9 0.2 0  0.925 0.2 0  0.95 0.2 0  0.975 0.2 0  1 0.2 0  0 0.225 0  0.025 0.225 0  0.05 0.225 0  0.075 0.225 0  0.1 0.225 0  0.125 0.225 0  0.15 0.225 0  0.175 0.225 0  0.2 0.225 0  0.225 0.225 0  0.25 0.225 0  0.275 0.225 0  0.3 0.225 0  0.325 0.225 0  0.35 0.225 0  0.375 0.225 0  0.4 0.225 0  0.425 0.225 0  0.45 0.225 0  0.475 0.225 0  0.5 0.225 0  0.525 0.225 0  0.55 0.225 0  0.575 0.225 0  0.6 0.225 0  0.625 0.225 0  0.65 0.225 0  0.675 0.225 0  0.7 0.225 0  0.725 0.225 0  0.75 0.225 0  0.775 0.225 0  0.8 0.225 0  0.825 0.225 0  0.85 0.225 0  0.875 0.225 0  0.9 0.225 0  0.925 0.225 0  0.95 0.225 0  0.975 0.225 0  1 0.225 0  0 0.25 0  0.025 0.25 0  0.05 0.25 0  0.075 0.25 0  0.1 0.25 0  0.125 0.25 0  0.15 0.25 0  0.175 0.25 0  0.2 0.25 0  0.225 0.25 0  0.25 0.25 0  0.275 0.25 0  0.3 0.25 0  0.325 0.25 0  0.35 0.25 0  0.375 0.25 0  0.4 0.25 0  0.425 0.25 0  0.45 0.25 0  0.475 0.25 0  0.5 0.25 0  0.525 0.25 0  0.55 0.25 0  0.575 0.25 0  0.6 0.25 0  0.625 0.25 0  0.65 0.25 0  0.675 0.25 0  0.7 0.25 0  0.725 0.25 0  0.75 0.25 0  0.775 0.25 0  0.8 0.25 0  0.825 0.25 0  0.85 0.25 0  0.875 0.25 0  0.9 0.25 0  0.925 0.25 0  0.95 0.25 0  0.975 0.25 0  1 0.25 0  0 0.275 0  0.025 0.275 0  0.05 0.275 0  0.075 0.275 0  0.1 0.275 0  0.125 0.275 0  0.15 0.275 0  0.175 0.275 0  0.2 0.275 0  0.225 0.275 0  0.25 0.275 0  0.275 0.275 0  0.3 0.275 0  0.325 0.275 0  0.35 0.275 0  0.375 0.275 0  0.4 0.275 0  0.425 0.275 0  0.45 0.275 0  0.475 0.275 0  0.5 0.275 0  0.525 0.275 0  0.55 0.275 0  0.575 0.275 0  0.6 0.275 0  0.625 0.275 0  0.65 0.275 0  0.675 0.275 0  0.7 0.275 0  0.725 0.275 0  0.75 0.275 0  0.775 0.275 0  0.8 0.275 0  0.825 0.275 0  0.85 0.275 0  0.875 0.275 0  0.9 0.275 0  0.925 0.275 0  0.95 0.275 0  0.975 0.275 0  1 0.275 0  0 0.3 0  0.025 0.3 0  0.05 0.3 0  0.075 0.3 0  0.1 0.3 0  0.125 0.3 0  0.15 0.3 0  0.175 0.3 0  0.2 0.3 0  0.225 0.3 0  0.25 0.3 0  0.275 0.3 0  0.3 0.3 0  0.325 0.3 0  0.35 0.3 0  0.375 0.3 0  0.4 0.3 0  0.425 0.3 0  0.45 0.3 0  0.475 0.3 0  0.5 0.3 0  0.525 0.3 0  0.55 0.3 0  0.575 0.3 0  0.6 0.3 0  0.625 0.3 0  0.65 0.3 0  0.675 0.3 0  0.7 0.3 0  0.725 0.3 0  0.75 0.3 0  0.775 0.3 0  0.8 0.3 0  0.825 0.3 0  0.85 0.3 0  0.875 0.3 0  0.9 0.3 0  0.925 0.3 0  0.95 0.3 0  0.975 0.3 0  1 0.3 0  0 0.325 0  0.025 0.325 0  0.05 0.325 0  0.075 0.325 0  0.1 0.325 0  0.125 0.325 0  0.15 0.325 0  0.175 0.325 0  0.2 0.325 0  0.225 0.325 0  0.25 0.325 0  0.275 0.325 0  0.3 0.325 0  0.325 0.325 0  0.35 0.325 0  0.375 0.325 0  0.4 0.325 0  0.425 0.325 0  0.45 0.325 0  0.475 0.325 0  0.5 0.325 0  0.525 0.325 0  0.55 0.325 0  0.575 0.325 0  0.6 0.325 0  0.625 0.325 0  0.65 0.325 0  0.675 0.325 0  0.7 0.325 0  0.725 0.325 0  0.75 0.325 0  0.775 0.325 0  0.8 0.325 0  0.825 0.325 0  0.85 0.325 0  0.875 0.325 0  0.9 0.325 0  0.925 0.325 0  0.95 0.325 0  0.975 0.325 0  1 0.325 0  0 0.35 0  0.025 0.35 0  0.05 0.35 0  0.075 0.35 0  0.1 0.35 0  0.125 0.35 0  0.15 0.35 0  0.175 0.35 0  0.2 0.35 0  0.225 0.35 0  0.25 0.35 0  0.275 0.35 0  0.3 0.35 0  0.325 0.35 0  0.35 0.35 0  0.375 0.35 0  0.4 0.35 0  0.425 0.35 0  0.45 0.35 0  0.475 0.35 0  0.5 0.35 0  0.525 0.35 0  0.55 0.35 0  0.575 0.35 0  0.6 0.35 0  0.625 0.35 0  0.65 0.35 0  0.675 0.35 0  0.7 0.35 0  0.725 0.35 0  0.75 0.35 0  0.775 0.35 0  0.8 0.35 0  0.825 0.35 0  0.85 0.35 0  0.875 0.35 0  0.9 0.35 0  0.925 0.35 0  0.95 0.35 0  0.975 0.35 0  1 0.35 0  0 0.375 0  0.025 0.375 0  0.05 0.375 0  0.075 0.375 0  0.1 0.375 0  0.125 0.375 0  0.15 0.375 0  0.175 0.375 0  0.2 0.375 0  0.225 0.375 0  0.25 0.375 0  0.275 0.375 0  0.3 0.375 0  0.325 0.375 0  0.35 0.375 0  0.375 0.375 0  0.4 0.375 0  0.425 0.375 0  0.45 0.375 0  0.475 0.375 0  0.5 0.375 0  0.525 0.375 0  0.55 0.375 0  0.575 0.375 0  0.6 0.375 0  0.625 0.375 0  0.65 0.375 0  0.675 0.375 0  0.7 0.375 0  0.725 0.375 0  0.75 0.375 0  0.775 0.375 0  0.8 0.375 0  0.825 0.375 0  0.85 0.375 0  0.875 0.375 0  0.9 0.375 0  0.925 0.375 0  0.95 0.375 0  0.975 0.375 0  1 0.375 0  0 0.4 0  0.025 0.4 0  0.05 0.4 0  0.075 0.4 0  0.1 0.4 0  0.125 0.4 0  0.15 0.4 0  0.175 0.4 0  0.2 0.4 0  0.225 0.4 0  0.25 0.4 0  0.275 0.4 0  0.3 0.4 0  0.325 0.4 0  0.35 0.4 0  0.375 0.4 0  0.4 0.4 0  0.425 0.4 0  0.45 0.4 0  0.475 0.4 0  0.5 0.4 0  0.525 0.4 0  0.55 0.4 0  0.575 0.4 0  0.6 0.4 0  0.625 0.4 0  0.65 0.4 0  0.675 0.4 0  0.7 0.4 0  0.725 0.4 0  0.75 0.4 0  0.775 0.4 0  0.8 0.4 0  0.825 0.4 0  0.85 0.4 0  0.875 0.4 0  0.9 0.4 0  0.925 0.4 0  0.95 0.4 0  0.975 0.4 0  1 0.4 0  0 0.425 0  0.025 0.425 0  0.05 0.425 0  0.075 0.425 0  0.1 0.425 0  0.125 0.425 0  0.15 0.425 0  0.175 0.425 0  0.2 0.425 0  0.225 0.425 0  0.25 0.425 0  0.275 0.425 0  0.3 0.425 0  0.325 0.425 0  0.35 0.425 0  0.375 0.425 0  0.4 0.425 0  0.425 0.425 0  0.45 0.425 0  0.475 0.425 0  0.5 0.425 0  0.525 0.425 0  0.55 0.425 0  0.575 0.425 0  0.6 0.425 0  0.625 0.425 0  0.65 0.425 0  0.675 0.425 0  0.7 0.425 0  0.725 0.425 0  0.75 0.425 0  0.775 0.425 0  0.8 0.425 0  0.825 0.425 0  0.85 0.425 0  0.875 0.425 0  0.9 0.425 0  0.925 0.425 0  0.95 0.425 0  0.975 0.425 0  1 0.425 0  0 0.45 0  0.02
[...]
<PointData  Scalars="ControlVisualisation"> 
<DataArray  type="Float64"  Name="ControlVisualisation"  format="ascii">2.7615198968784044e-01  1.9407953052215957e-01  1.9410617504260305e-01  1.9417737984196573e-01  1.9429852065344400e-01  1.9446814926993228e-01  1.9468313250021799e-01  1.9493973427739117e-01  1.9523366984841831e-01  1.9556009029846530e-01  1.9591369712156892e-01  1.9628892901246917e-01  1.9668017290866954e-01  1.9708195854830318e-01  1.9748910692212523e-01  1.9789681420223409e-01  1.9830066392459947e-01  1.9869657011772554e-01  1.9908066008246655e-01  1.9944910657213594e-01  1.9979791629069424e-01  2.0012267751218923e-01  2.0041826304101537e-01  2.0067847390186194e-01  2.0089559169125953e-01  2.0105978987005094e-01  2.0115833585548057e-01  2.0117452917874559e-01  2.0108647945609118e-01  2.0086623800298628e-01  2.0048043921731185e-01  1.9989466372931083e-01  1.9908504392479295e-01  1.9805942612981325e-01  1.9688489688999158e-01  1.9570795807421199e-01  1.9473258544603231e-01  1.9414483730830767e-01  1.9398610022078991e-01  1.9404891511959627e-01  3.7701214300659142e-01  1.9407950930476484e-01  7.6344605659751902e-02  7.6430474153096797e-02  7.6613892153080773e-02  7.6915116431020891e-02  7.7337779350959285e-02  7.7879399683935008e-02  7.8535829853929789e-02  7.9302024188291409e-02  8.0172127093163098e-02  8.1139526531590442e-02  8.2196973556537697e-02  8.3336734801448681e-02  8.4550714229585613e-02  8.5830497589875751e-02  8.7167290680859974e-02  8.8551738417759859e-02  8.9973620957182837e-02  9.1421420983471585e-02  9.2881742083350649e-02  9.4338538400112915e-02  9.5772099665573263e-02  9.7157729371460597e-02  9.8464063437238875e-02  9.9650992819031239e-02  1.0066717927714722e-01  1.0144719916175776e-01  1.0190860267418912e-01  1.0194985845032525e-01  1.0145152435764050e-01  1.0028518729401330e-01  9.8337632989857690e-02  9.5557776975190412e-02  9.2024226537952739e-02  8.8009346590068427e-02  8.3981467024436748e-02  8.0496213641158318e-02  7.8015463854135644e-02  7.6696038740286313e-02  7.6292142731575058e-02  1.9404834388464912e-01  1.9410598527092959e-01  7.6430444275751103e-02  7.6665449352405907e-02  7.7064301817446612e-02  7.7689350390040032e-02  7.8569281019051793e-02  7.9718030456966432e-02  8.1146295057699394e-02  8.2865208592282760e-02  8.4887344962647882e-02  8.7226641354974391e-02  8.9897916767437996e-02  9.2915952727886317e-02  9.6293967040797804e-02  1.0004136213008008e-01  1.0416079676433680e-01  1.0864487851541760e-01  1.1347299914095754e-01  1.1860887384067018e-01  1.2399905358329924e-01  1.2957207289096156e-01  1.3523722429623905e-01  1.4088163221254432e-01  1.4636459769388208e-01  1.5150895994809771e-01  1.5609010231253656e-01  1.5982398283600391e-01  1.6235700238606318e-01  1.6326347539767597e-01  1.6206345840109262e-01  1.5828346026417336e-01  1.5158472563450137e-01  1.4195197307209972e-01  1.2987778786869578e-01  1.1644590681035753e-01  1.0327396394273188e-01  9.2152622569531398e-02  8.4159371679534620e-02  7.9215568913925893e-02  7.6731270870319918e-02  1.9397273732528117e-01  1.9417680333445941e-01  7.6614172869718847e-02  7.7066020250674244e-02  7.7643449807749634e-02  7.8467555674570560e-02  7.9605799697437585e-02  8.1098646548709880e-02  8.2978987252663144e-02  8.5281105404620153e-02  8.8044060133436311e-02  9.1312335523337493e-02  9.5134909548051205e-02  9.9562602384246982e-02  1.0464340798229992e-01  1.1041604055849992e-01  1.1690312933411258e-01  1.2410665674881202e-01  1.3200792539163445e-01  1.4057150974701796e-01  1.4974860523056982e-01  1.5947365955980197e-01  1.6965159552352824e-01  1.8013887235240053e-01  1.9072466353909479e-01  2.0111646314548165e-01  2.1092961796806745e-01  2.1967636712641225e-01  2.2674936320211339e-01  2.3140020712734649e-01  2.3273092006263812e-01  2.2973532757514747e-01  2.2143403906924769e-01  2.0713555946583845e-01  1.8691775799526103e-01  1.6237999408398165e-01  1.3689270586674063e-01  1.1425144903675469e-01  9.7026730072749950e-02  8.5599491713785419e-02  7.8522158012986190e-02  1.9409572520263221e-01  1.9429766062297757e-01  7.6917391020415352e-02  7.7698696560754357e-02  7.8478740549445578e-02  7.9462233531391549e-02  8.0770534503869909e-02  8.2474902935754379e-02  8.4628705543000476e-02  8.7284427833219685e-02  9.0500670188277121e-02  9.4344272234174700e-02  9.8889397908713400e-02  1.0421364523758898e-01  1.1039120186183378e-01  1.1748448488951795e-01  1.2553797698245225e-01  1.3457858293526834e-01  1.4462276923898124e-01  1.5568313540929812e-01  1.6776364860383558e-01  1.8083997894040107e-01  1.9483366661016460e-01  2.0959373188133298e-01  2.2489289500740903e-01  2.4043591524774630e-01  2.5586941935236995e-01  2.7078190421704651e-01  2.8469154378746719e-01  2.9705812579286051e-01  3.0737683282857703e-01  3.1531420874946470e-01  3.2060591937598770e-01  3.2228753349320582e-01  3.1700569462436656e-01  2.9839452751282292e-01  2.5975862938767236e-01  2.0169668745183517e-01  1.4219486287467722e-01  1.0260387421938934e-01  8.3077593397614780e-02  1.9485849318047938e-01  1.9446790898919977e-01  7.7346481049639634e-02  7.8600380028711309e-02  7.9649677113513132e-02  8.0808233281525504e-02  8.2273767347704613e-02  8.4157244183562879e-02  8.6533746924578089e-02  8.9471447098138729e-02  9.3043835290077953e-02  9.7333852958247230e-02  1.0243325149266681e-01  1.0843802730593669e-01  1.1544086345584777e-01  1.2352369176038402e-01  1.3275573375596486e-01  1.4320042371292607e-01  1.5492626411589999e-01  1.6800860978709528e-01  1.8251348819369548e-01  1.9847057809197427e-01  2.1585388609541506e-01  2.3458363295148665e-01  2.5454842306340608e-01  2.7563411330774151e-01  2.9774195110385127e-01  3.2083270327410790e-01  3.4517514781216740e-01  3.7213035938604089e-01  4.0521806338514865e-01  4.4992751030155526e-01  5.1011931745630923e-01  5.8218991868321268e-01  6.5076796512093438e-01  6.9726466425662326e-01  7.0579386604538585e-01  6.5040830775694292e-01  4.9948180700341255e-01  2.5203103134835808e-01  9.6842304238402011e-02  1.9860760646798201e-01  1.9468562880171500e-01  7.7903255875482122e-02  7.9798684687419449e-02  8.1217807189635796e-02  8.2602114074155672e-02  8.4253830012660930e-02  8.6338730876824282e-02  8.8959535173484608e-02  9.2201768369102891e-02  9.6153534740032756e-02  1.0091230036783896e-01  1.0658465028928722e-01  1.1328143629269549e-01  1.2111091407775947e-01  1.3017487168007078e-01  1.4057329731860937e-01  1.5241713601955920e-01  1.6583827782340371e-01  1.8098363442515022e-01  1.9799401453950188e-01  2.1698568914450836e-01  2.3805311816371003e-01  2.6129308920610733e-01  2.8682769618215875e-01  3.1480344280723838e-01  3.4549566852752611e-01  3.8013055066902951e-01  4.2323907557834117e-01  4.8539986306966304e-01  5.7991094396729248e-01  7.0546550761817239e-01  8.3225608164593612e-01  9.1107524263424344e-01  9.3716061913541593e-01  9.5647457528017710e-01  9.6289882900306789e-01  9.6878469971270120e-01  9.6893166498483518e-01  9.3616048311578459e-01  4.8064500139659477e-01  2.1361363082232454e-01  1.9494861143325987e-01  7.8589523820688401e-02  8.1325142682549256e-02  8.3249723504353917e-02  8.4939227412253793e-02  8.6833737844275546e-02  8.9175033899533171e-02  9.2103704250002499e-02  9.5727720649708192e-02  1.0015275874355907e-01  1.0549262205579624e-01  1.1186975266143433e-01  1.1941094402070201e-01  1.2824336567556960e-01  1.3849725881230002e-01  1.5031828199680761e-01  1.6388263590906627e-01  1.7940127674276185e-01  1.9710839759627452e-01  2.1724774926205528e-01  2.4007491907237291e-01  2.6587045048408653e-01  2.9492024604839034e-01  3.2744037245901386e-01  3.6379193639081564e-01  4.0637074350484820e-01  4.6453387129565660e-01  5.5784617633828537e-01  6.9985631775498702e-01  8.5297010877890667e-01  9.2581579244791823e-01  9.5885983703719757e-01  9.6600177143517463e-01  9.8072669458017891e-01  9.9024499584506132e-01  9.9246090758616601e-01  9.9380620557170607e-01  9.9583182866187359e-01  9.9766873758257868e-01  9.9563707531652601e-01  9.3538093309061976e-01  1.9525429771475203e-01  7.9408075877194784e-02  8.3221458012747773e-02  8.5831501431985160e-02  8.7938181687590128e-02  9.0158765489674206e-02  9.2839372138053669e-02  9.6173368456294178e-02  1.0029940403585308e-01  1.0534620247785317e-01  1.1144827272530650e-01  1.1874838569362253e-01  1.2739614003226485e-01  1.3755046422018902e-01  1.4939128143544089e-01  1.6313688922311018e-01  1.7905476494398592e-01  1.9745814144692519e-01  2.1869732498123387e-01  2.4315815943616592e-01  2.7124678534003166e-01  3.0328457691924293e-01  3.3932748033246840e-01  3.7969141350549285e-01  4.2863209784367445e-01  5.0227328627957690e-01  6.2837306841368612e-01  8.0327706939333587e-01  9.2105121865075656e-01  9.5843463643466464e-01  9.6569299310161461e-01  9.7722530318378231e-01  9.8942623917977002e-01  9.9282402542261694e-01  9.9370364169359771e-01  9.9486980139017844e-01  9.9513498739811801e-01  9.9569858482859896e-01  9.9711591276581502e-01  9.9779304948239911e-01  9.9373920759327872e-01  1.9559964305540450e-01  8.0363152280716180e-02  8.5544348599336087e-02  8.9080406705148857e-02  9.1759506944956826e-02  9.4422739613293838e-02  9.7558251832506479e-02  1.0143298891115597e-01  1.0622810829588300e-01  1.1210360668329444e-01  1.1922239154552637e-01  1.2775793840659069e-01  1.3790021067166325e-01  1.4986831972305445e-01  1.6392921212116696e-01  1.8041173167054989e-01  1.9970719024264158e-01  2.2226118779044549e-01  2.4855787462317153e-01  2.7904771748831997e-01  3.1391275103062161e-01  3.5283038761529895e-01  3.9627718686569530e-01  4.5184695055599233e-01  5.4423061117482541e-01  7.0388744378903589e-01  8.8489816033639990e-01  9.4546254110131023e-01  9.7439834826906913e-01  9.6873037407380125e-01  9.8257906333984579e-01  9.9197084030439819e-01  9.9411746454898420e-01  9.9462050126011037e-01  9.9519831350529175e-01  9.9549820014486945e-01  9.9655883274786239e-01  9.9780797532659105e-01  9.9887054650937757e-01  9.9930424638837023e-01  9.9802259812486083e-01  1.9598113880147472e-01  8.1461115767741982e-02  8.8370971118469116e-02  9.3157524905422395e-02  9.6624763809698810e-02  9.9892933356879363e-02  1.0364232821721567e-01  1.0824230764591149e-01  1.1393352286383246e-01  1.2092034526451123e-01  1.2940936548451831e-01  1.3962850570637977e-01  1.5184532723530716e-01  1.6638829753073683e-01  1.8366228560399661e-01  2.0414877104280535e-01  2.2838982113224782e-01  2.5693812989927922e-01  2.9018481262681978e-01  3.2797286729424324e-01  3.6953423155734960e-01  4.1637815947370299e-01  4.8179178729504901e-01  5.9934258850728683e-01  7.8884802058234815e-01  9.3622744708278038e-01  9.6548388011709396e-01  9.7787101120537723e-01  9.7190743967475957e-01  9.8513319048215009e-01  9.9316387216574653e-01  9.9522202911632796e-01  9.9533677227011319e-01  9.9558989141657139e-01  9.9561824095068052e-01  9.9635725869957237e-01  9.9748762645209843e-01  9.9834443897832781e-01  9.9908210110473639e-01  9.9952593640335397e-01  9.9925983526314699e-01  1.9639497075291523e-01  8.2711544429903167e-02  9.1806002381383658e-02  9.8282772916079869e-02  1.0283800621726963e-01  1.0693684895170832e-01  1.1151835774756934e-01  1.1709492180183251e-01  1.2399317893206752e-01  1.3248674112501344e-01  1.4285939110407242e-01  1.5544258554168450e-01  1.7064452635488753e-01  1.8896737836214569e-01  2.1100325152485699e-01  2.3739814092633571e-01  2.6873584178846432e-01  3.0521961062731917e-01  3.4620401251586125e-01  3.9086254605242782e-01  4.4367484898925458e-01  5.2627810153548915e-01  6.7682136862688158e-01  8.7825876287176119e-01  9.5736573914257916e-01  9.8336706567406096e-01  9.7676308896552277e-01  9.7499821608077464e-01  9.8689962020012623e-01  9.9383957118216992e-01  9.9617042261589528e-01  9.9608454791993584e-01  9.9602375060498261e-01  9.9582745673748441e-01  9.9578717484772183e-01  9.9654939201633086e-01  9.9742368885020372e-01  9.9811521088841071e-01  9.9880153827385565e-01  9.9929400045441286e-01  9.9896179586467038e-01  1.9683730607507913e-01  8.4128849422783994e-02  9.5990500755158512e-02  1.0475088620543559e-01  1.1080747683018490e-01  1.1605021075543166e-01  1.2176587308501141e-01  1.2866999275533239e-01  1.3722216149346889e-01  1.4781652569275250e-01  1.6088016803926825e-01  1.7692715211781704e-01  1.9658254880637224e-01  2.2057077252755533e-01  2.4964155308388836e-01  2.8434649600909384e-01  3.2457126682294840e-01  3.6929405004701510e-01  4.1894928050603664e-01  4.8408736214382464e-01  5.9549376379560326e-01  7.8109564500887763e-01  9.4841279338627915e-01  9.6717385770885833e-01  9.9358872876611226e-01  9.7446279934006497e-01  9.7856694393093868e-01  9.8879260897475474e-01  9.9436008607528426e-01  9.9691581906847859e-01  9.9700458516407697e-01  9.9648152856498784e-01  9.9622922109986212e-01  9.9571753736344426e-01  9.9548510331819240e-01  9.9591503609666754e-01  9.9648873612213462e-01  9.9697390387610230e-01  9.9750603867878684e-01  9.9812854710009313e-01  9.9609009303714569e-01  1.9730470160428090e-01  8.5734527163194463e-02  1.0111187478938294e-01  1.1294495316903666e-01  1.2106657872948949e-01  1.2789392729329538e-01  1.3518176347355776e-01  1.4394339534352335e-01  1.5485765502199739e-01  1.6853198078228787e-01  1.8563466882819804e-01  2.0694594671346550e-01  2.3333743195035975e-01  2.6563493821401724e-01  3.0426299285526076e-01  3.4877805246993576e-01  3.9857703452503040e-01  4.5801104042009105e-01  5.4674202175722653e-01  6.9860281375786204e-01  8.9716093569963140e-01  9.7240411122700621e-01  9.8239094858012344e-01  9.9241023872746359e-01  9.7364844142870277e-01  9.8294957111557069e-01  9.9109859601466876e-01  9.9498827455407746e-01  9.9738264156800271e-01  9.9798357797270232e-01  9.9729367363336885e-01  9.9656502541784653e-01  9.9605480991018258e-01  9.9528376925784334e-01  9.9464135077232074e-01  9.9445664960772284e-01  9.9447140721479477e-01  9.9444789444494108e-01  9.9430510427956431e-01  9.9593171366779576e-01  9.8888583242976424e-01  1.9779463982645695e-01  8.7560276377226881e-02  1.0741352956764635e-01  1.2335023546322010e-01  1.3431983016872368e-01  1.4339625807158402e-01  1.5296177134249592e-01  1.6447570760716224e-01  1.7897513069076168e-01  1.9740635300633341e-01  2.2076515089112098e-01  2.5007806981759606e-01  2.8618531019941590e-01  3.2932308908931152e-01  3.7914260875352274e-01  4.3742660148683482e-01  5.1592637461653790e-01  6.4240826569498322e-01  8.3177110185909198e-01  9.7483053785448381e-01  9.7275732721189689e-01  9.9641324377083496e-01  9.8314368923275119e-01  9.7628593790157647e-01  9.8792959177821726e-01  9.9364124827521494e-01  9.9583111542201475e-01  9.9758815524651911e-01  9.9857169036337845e-01  9.9838347660489868e-01  9.9737579461236570e-01  9.9634903454055579e-01  9.9546585343434923e-01  9.9436564397706317e-01  9.9317526175140347e-01  9.9215392723959372e-01  9.9141553439791275e-01  9.9150644324630122e-01  9.9200073229138352e-01  9.5150854133655582e-01  3.7516156237650300e-01  1.9830627574818616e-01  8.9652534499911035e-02  1.1520434752193000e-01  1.3660754850299198e-01  1.5161558284133442e-01  1.6405922139009632e-01  1.7714381607495749e-01  1.9299220485133176e-01  2.1318430540729941e-01  2.3910323346707624e-01  2.7197272353003799e-01  3.1261688631387263e-01  3.6129773948073463e-01  4.1908932449762032e-01  4.9319428718558250e-01  6.0414261580726003e-01  7.7495963662130141e-01  9.5426331843772116e-01  9.8084794798739272e-01  9.8547571143995460e-01  9.9475252008322956e-01  9.7578648489196540e-01  9.8231904566273387e-01  9.9275457119679078e-01  9.9600687114992503e-01  9.9683097112391583e-01  9.9769532527454308e-01  9.9859366116113357e-01  9.9890424089725316e-01  9.9840499533865668e-01  9.9720730199091290e-01  9.9576662687885331e-01  9.9427620676543760e-01  9.9255189620395623e-01  9.9055404667644176e-01  9.8836174142547528e-01  9.8610646119602763e-01  9.8404350036375876e-01  9.6996748877889494e-01  4.7523150463932756e-01  2.2125302359535193e-01  1.9884166975700579e-01  9.2079823770982214e-02  1.2488125997467922e-01  1.5372275699572416e-01  1.7478350794487743e-01  1.9254170147969688e-01  2.1129898035036851e-01  2.3416286042170686e-01  2.6342298685101206e-01  3.0075382122144056e-01  3.4721606586698445e-01  4.0401722951138269e-01  4.7597786946586773e-01  5.7774063748609916e-01  7.3133295514635421e-01  9.1931225608881684e-01  9.9407851474631914e-01  9.7614617737652587e-01  9.9593353324658707e-01  9.8131775731472948e-01  9.7717798106877707e-01  9.8961331946359510e-01  9.9649586129886802e-01  9.9779284323045569e-01  9.9782444139173521e-01  9.9792457032027337e-01  9.9832296091371209e-01  9.9865407197122458e-01  9.9853360781718992e-01  9.9773398845864236e-01  9.9620048171217146e-01  9.9410107451897955e-01  9.9155427793516726e-01  9.8851241862722694e-01  9.8494539614030985e-01  9.8074965412987181e-01  9.7512533356747078e-01  9.6043235178413333e-01  7.9422792909729945e-01  2.2408063703767958e-01  2.1111145309892712e-01  1.9940833797826218e-01  9.4946498204301649e-02  1.3702255066549493e-01  1.7655395894502299e-01  2.0703965234893162e-01  2.3328765152889711e-01  2.6125262274240540e-01  2.9542687216453395e-01  3.3885826704332095e-01  3.9387397155939358e-01  4.6446809963176006e-01  5.6105984435807632e-01  7.0136358680458843e-01  8.8319551190595602e-01  9.9819474566470312e-01  9.7482235175721155e-01  9.8909597820801376e-01  9.8598724182253017e-01  9.7492991257185724e-01  9.8502435293177804e-01  9.9545416552071764e-01  9.9859565617804469e-01  9.9880663005848280e-01  9.9861027415072090e-01  9.9836012992926071e-01  9.9821792755789596e-01  9.9813204556968471e-01  9.9783527197488464e-01  9.9699995199988578e-01  9.9530057681342632e-01  9.9249446834527622e-01  9.8847635860542860e-01  9.8325271904386491e-01  9.7694434853162393e-01  9.6968277950854853e-01  9.6070122642751044e-01  9.4088395124844548e-01  8.4137064852510501e-01  5.1881680094518645e-01  1.5484592611073894e-01  2.0627487680069584e-01  2.0002465132558248e-01  9.8420104113094750e-02  1.5269359631886478e-01  2.0846273642493485e-01  2.5348557008403777e-01  2.9318156043728461e-01  3.3618871441708498e-01  3.8916486890267471e-01  4.5794398727650759e-01  5.5114623413279418e-01  6.8203851099323776e-01  8.5269226238530083e-01  9.8894972902271827e-01  9.7840427509064942e-01  9.7974158868535277e-01  9.8594807436067389e-01  9.7419711039893020e-01  9.8088656927253315e-01  9.9287982509602413e-01  9.9839528163793767e-01  9.9926091539400075e-01  9.9917054478047862e-01  9.9905959797063004e-01  9.9884188538952001e-01  9.9850848294806360e-01  9.9804731044107797e-01  9.9729690857313036e-01  9.9590893643957046e-01  9.9333378334923950e-01  9.8890221476584117e-01  9.8219215694897566e-01  9.7373294419493850e-01  9.6552989878181628e-01  9.5877208176430606e-01  9.4511137185707006e-01  9.1589618259077688e-01  8.0906497321644211e-01  6.1215725731759196e-01  3.5034351285013698e-01  1.2921968101178602e-01  2.0411748220737252e-01  2.0072883437851458e-01  1.0278381846889928e-01  1.7415982286386736e-01  2.5496387905314039e-01  3.2202189381511009e-01  3.8351494399642966e-01  4.5300869994529674e-01  5.4285126070544143e-01  6.6546485985480308e-01  8.2388187715879302e-01  9.6636734473193608e-01  9.7796210198706313e-01  9.7088116322049522e-01  9.8122404390095197e-01  9.7265794640280334e-01  9.7772073064604492e-01  9.8967373228408273e-01  9.9690334817646831e-01  9.9905380526069321e-01  9.9925961199423186e-01  9.9922336682124901e-01  9.9921472998184990e-01  9.9914061231496409e-01  9.9892430584027547e-01  9.9846425436963537e-01  9.9749871693110193e-01  9.9542346023965522e-01  9.9115640564080509e-01  9.8358264420156727e-01  9.7348189343785996e-01  9.6615040078911218e-01  9.6467136977655277e-01  9.5245916799749097e-01  9.3931147336288079e-01  8.7862777996010188e-01  7.3860334068340194e-01  5.8963873005971323e-01  4.3587203062906715e-01  2.5821515766310887e-01  1.1656988976980943e-01  2.0269088180888867e-01  2.0158832803199267e-01  1.0852973093797641e-01  2.0614123465911202e-01  3.2519105522702230e-01  4.2645215314782003e-01  5.2537309224985418e-01  6.4280958839042524e-01  7.8813366175826538e-01  9.283526540