<?xml version="1.0"?>
<VTKFile type="UnstructuredGrid"  version="0.1"  >
<UnstructuredGrid>
<Piece  NumberOfPoints="1681" NumberOfCells="3200">
<Points>
<DataArray  type="Float64"  NumberOfComponents="3"  format="ascii">0 0 0  0.025 0 0  0.05 0 0  0.075 0 0  0.1 0 0  0.125 0 0  0.15 0 0  0.175 0 0  0.2 0 0  0.225 0 0  0.25 0 0  0.275 0 0  0.3 0 0  0.325 0 0  0.35 0 0  0.375 0 0  0.4 0 0  0.425 0 0  0.45 0 0  0.475 0 0  0.5 0 0  0.525 0 0  0.55 0 0  0.575 0 0  0.6 0 0  0.625 0 0  0.65 0 0  0.675 0 0  0.7 0 0  0.725 0 0  0.75 0 0  0.775 0 0  0.8 0 0  0.825 0 0  0.85 0 0  0.875 0 0  0.9 0 0  0.925 0 0  0.95 0 0  0.975 0 0  1 0 0  0 0.025 0  0.025 0.025 0  0.05 0.025 0  0.075 0.025 0  0.1 0.025 0  0.125 0.025 0  0.15 0.025 0  0.175 0.025 0  0.2 0.025 0  0.225 0.025 0  0.25 0.025 0  0.275 0.025 0  0.3 0.025 0  0.325 0.025 0  0.35 0.025 0  0.375 0.025 0  0.4 0.025 0  0.425 0.025 0  0.45 0.025 0  0.475 0.025 0  0.5 0.025 0  0.525 0.025 0  0.55 0.025 0  0.575 0.025 0  0.6 0.025 0  0.625 0.025 0  0.65 0.025 0  0.675 0.025 0  0.7 0.025 0  0.725 0.025 0  0.75 0.025 0  0.775 0.025 0  0.8 0.025 0  0.825 0.025 0  0.85 0.025 0  0.875 0.025 0  0.9 0.025 0  0.925 0.025 0  0.95 0.025 0  0.975 0.025 0  1 0.025 0  0 0.05 0  0.025 0.05 0  0.05 0.05 0  0.075 0.05 0  0.1 0.05 0  0.125 0.05 0  0.15 0.05 0  0.175 0.05 0  0.2 0.05 0  0.225 0.05 0  0.25 0.05 0  0.275 0.05 0  0.3 0.05 0  0.325 0.05 0  0.35 0.05 0  0.375 0.05 0  0.4 0.05 0  0.425 0.05 0  0.45 0.05 0  0.475 0.05 0  0.5 0.05 0  0.525 0.05 0  0.55 0.05 0  0.575 0.05 0  0.6 0.05 0  0.625 0.05 0  0.65 0.05 0  0.675 0.05 0  0.7 0.05 0  0.725 0.05 0  0.75 0.05 0  0.775 0.05 0  0.8 0.05 0  0.825 0.05 0  0.85 0.05 0  0.875 0.05 0  0.9 0.05 0  0.925 0.05 0  0.95 0.05 0  0.975 0.05 0  1 0.05 0  0 0.075 0  0.025 0.075 0  0.05 0.075 0  0.075 0.075 0  0.1 0.075 0  0.125 0.075 0  0.15 0.075 0  0.175 0.075 0  0.2 0.075 0  0.225 0.075 0  0.25 0.075 0  0.275 0.075 0  0.3 0.075 0  0.325 0.075 0  0.35 0.075 0  0.375 0.075 0  0.4 0.075 0  0.425 0.075 0  0.45 0.075 0  0.475 0.075 0  0.5 0.075 0  0.525 0.075 0  0.55 0.075 0  0.575 0.075 0  0.6 0.075 0  0.625 0.075 0  0.65 0.075 0  0.675 0.075 0  0.7 0.075 0  0.725 0.075 0  0.75 0.075 0  0.775 0.075 0  0.8 0.075 0  0.825 0.075 0  0.85 0.075 0  0.875 0.075 0  0.9 0.075 0  0.925 0.075 0  0.95 0.075 0  0.975 0.075 0  1 0.075 0  0 0.1 0  0.025 0.1 0  0.05 0.1 0  0.075 0.1 0  0.1 0.1 0  0.125 0.1 0  0.15 0.1 0  0.175 0.1 0  0.2 0.1 0  0.225 0.1 0  0.25 0.1 0  0.275 0.1 0  0.3 0.1 0  0.325 0.1 0  0.35 0.1 0  0.375 0.1 0  0.4 0.1 0  0.425 0.1 0  0.45 0.1 0  0.475 0.1 0  0.5 0.1 0  0.525 0.1 0  0.55 0.1 0  0.575 0.1 0  0.6 0.1 0  0.625 0.1 0  0.65 0.1 0  0.675 0.1 0  0.7 0.1 0  0.725 0.1 0  0.75 0.1 0  0.775 0.1 0  0.8 0.1 0  0.825 0.1 0  0.85 0.1 0  0.875 0.1 0  0.9 0.1 0  0.925 0.1 0  0.95 0.1 0  0.975 0.1 0  1 0.1 0  0 0.125 0  0.025 0.125 0  0.05 0.125 0  0.075 0.125 0  0.1 0.125 0  0.125 0.125 0  0.15 0.125 0  0.175 0.125 0  0.2 0.125 0  0.225 0.125 0  0.25 0.125 0  0.275 0.125 0  0.3 0.125 0  0.325 0.125 0  0.35 0.125 0  0.375 0.125 0  0.4 0.125 0  0.425 0.125 0  0.45 0.125 0  0.475 0.125 0  0.5 0.125 0  0.525 0.125 0  0.55 0.125 0  0.575 0.125 0  0.6 0.125 0  0.625 0.125 0  0.65 0.125 0  0.675 0.125 0  0.7 0.125 0  0.725 0.125 0  0.75 0.125 0  0.775 0.125 0  0.8 0.125 0  0.825 0.125 0  0.85 0.125 0  0.875 0.125 0  0.9 0.125 0  0.925 0.125 0  0.95 0.125 0  0.975 0.125 0  1 0.125 0  0 0.15 0  0.025 0.15 0  0.05 0.15 0  0.075 0.15 0  0.1 0.15 0  0.125 0.15 0  0.15 0.15 0  0.175 0.15 0  0.2 0.15 0  0.225 0.15 0  0.25 0.15 0  0.275 0.15 0  0.3 0.15 0  0.325 0.15 0  0.35 0.15 0  0.375 0.15 0  0.4 0.15 0  0.425 0.15 0  0.45 0.15 0  0.475 0.15 0  0.5 0.15 0  0.525 0.15 0  0.55 0.15 0  0.575 0.15 0  0.6 0.15 0  0.625 0.15 0  0.65 0.15 0  0.675 0.15 0  0.7 0.15 0  0.725 0.15 0  0.75 0.15 0  0.775 0.15 0  0.8 0.15 0  0.825 0.15 0  0.85 0.15 0  0.875 0.15 0  0.9 0.15 0  0.925 0.15 0  0.95 0.15 0  0.975 0.15 0  1 0.15 0  0 0.175 0  0.025 0.175 0  0.05 0.175 0  0.075 0.175 0  0.1 0.175 0  0.125 0.175 0  0.15 0.175 0  0.175 0.175 0  0.2 0.175 0  0.225 0.175 0  0.25 0.175 0  0.275 0.175 0  0.3 0.175 0  0.325 0.175 0  0.35 0.175 0  0.375 0.175 0  0.4 0.175 0  0.425 0.175 0  0.45 0.175 0  0.475 0.175 0  0.5 0.175 0  0.525 0.175 0  0.55 0.175 0  0.575 0.175 0  0.6 0.175 0  0.625 0.175 0  0.65 0.175 0  0.675 0.175 0  0.7 0.175 0  0.725 0.175 0  0.75 0.175 0  0.775 0.175 0  0.8 0.175 0  0.825 0.175 0  0.85 0.175 0  0.875 0.175 0  0.9 0.175 0  0.925 0.175 0  0.95 0.175 0  0.975 0.175 0  1 0.175 0  0 0.2 0  0.025 0.2 0  0.05 0.2 0  0.075 0.2 0  0.1 0.2 0  0.125 0.2 0  0.15 0.2 0  0.175 0.2 0  0.2 0.2 0  0.225 0.2 0  0.25 0.2 0  0.275 0.2 0  0.3 0.2 0  0.325 0.2 0  0.35 0.2 0  0.375 0.2 0  0.4 0.2 0  0.425 0.2 0  0.45 0.2 0  0.475 0.2 0  0.5 0.2 0  0.525 0.2 0  0.55 0.2 0  0.575 0.2 0  0.6 0.2 0  0.625 0.2 0  0.65 0.2 0  0.675 0.2 0  0.7 0.2 0  0.725 0.2 0  0.75 0.2 0  0.775 0.2 0  0.8 0.2 0  0.825 0.2 0  0.85 0.2 0  0.875 0.2 0  0.9 0.2 0  0.925 0.2 0  0.95 0.2 0  0.975 0.2 0  1 0.2 0  0 0.225 0  0.025 0.225 0  0.05 0.225 0  0.075 0.225 0  0.1 0.225 0  0.125 0.225 0  0.15 0.225 0  0.175 0.225 0  0.2 0.225 0  0.225 0.225 0  0.25 0.225 0  0.275 0.225 0  0.3 0.225 0  0.325 0.225 0  0.35 0.225 0  0.375 0.225 0  0.4 0.225 0  0.425 0.225 0  0.45 0.225 0  0.475 0.225 0  0.5 0.225 0  0.525 0.225 0  0.55 0.225 0  0.575 0.225 0  0.6 0.225 0  0.625 0.225 0  0.65 0.225 0  0.675 0.225 0  0.7 0.225 0  0.725 0.225 0  0.75 0.225 0  0.775 0.225 0  0.8 0.225 0  0.825 0.225 0  0.85 0.225 0  0.875 0.225 0  0.9 0.225 0  0.925 0.225 0  0.95 0.225 0  0.975 0.225 0  1 0.225 0  0 0.25 0  0.025 0.25 0  0.05 0.25 0  0.075 0.25 0  0.1 0.25 0  0.125 0.25 0  0.15 0.25 0  0.175 0.25 0  0.2 0.25 0  0.225 0.25 0  0.25 0.25 0  0.275 0.25 0  0.3 0.25 0  0.325 0.25 0  0.35 0.25 0  0.375 0.25 0  0.4 0.25 0  0.425 0.25 0  0.45 0.25 0  0.475 0.25 0  0.5 0.25 0  0.525 0.25 0  0.55 0.25 0  0.575 0.25 0  0.6 0.25 0  0.625 0.25 0  0.65 0.25 0  0.675 0.25 0  0.7 0.25 0  0.725 0.25 0  0.75 0.25 0  0.775 0.25 0  0.8 0.25 0  0.825 0.25 0  0.85 0.25 0  0.875 0.25 0  0.9 0.25 0  0.925 0.25 0  0.95 0.25 0  0.975 0.25 0  1 0.25 0  0 0.275 0  0.025 0.275 0  0.05 0.275 0  0.075 0.275 0  0.1 0.275 0  0.125 0.275 0  0.15 0.275 0  0.175 0.275 0  0.2 0.275 0  0.225 0.275 0  0.25 0.275 0  0.275 0.275 0  0.3 0.275 0  0.325 0.275 0  0.35 0.275 0  0.375 0.275 0  0.4 0.275 0  0.425 0.275 0  0.45 0.275 0  0.475 0.275 0  0.5 0.275 0  0.525 0.275 0  0.55 0.275 0  0.575 0.275 0  0.6 0.275 0  0.625 0.275 0  0.65 0.275 0  0.675 0.275 0  0.7 0.275 0  0.725 0.275 0  0.75 0.275 0  0.775 0.275 0  0.8 0.275 0  0.825 0.275 0  0.85 0.275 0  0.875 0.275 0  0.9 0.275 0  0.925 0.275 0  0.95 0.275 0  0.975 0.275 0  1 0.275 0  0 0.3 0  0.025 0.3 0  0.05 0.3 0  0.075 0.3 0  0.1 0.3 0  0.125 0.3 0  0.15 0.3 0  0.175 0.3 0  0.2 0.3 0  0.225 0.3 0  0.25 0.3 0  0.275 0.3 0  0.3 0.3 0  0.325 0.3 0  0.35 0.3 0  0.375 0.3 0  0.4 0.3 0  0.425 0.3 0  0.45 0.3 0  0.475 0.3 0  0.5 0.3 0  0.525 0.3 0  0.55 0.3 0  0.575 0.3 0  0.6 0.3 0  0.625 0.3 0  0.65 0.3 0  0.675 0.3 0  0.7 0.3 0  0.725 0.3 0  0.75 0.3 0  0.775 0.3 0  0.8 0.3 0  0.825 0.3 0  0.85 0.3 0  0.875 0.3 0  0.9 0.3 0  0.925 0.3 0  0.95 0.3 0  0.975 0.3 0  1 0.3 0  0 0.325 0  0.025 0.325 0  0.05 0.325 0  0.075 0.325 0  0.1 0.325 0  0.125 0.325 0  0.15 0.325 0  0.175 0.325 0  0.2 0.325 0  0.225 0.325 0  0.25 0.325 0  0.275 0.325 0  0.3 0.325 0  0.325 0.325 0  0.35 0.325 0  0.375 0.325 0  0.4 0.325 0  0.425 0.325 0  0.45 0.325 0  0.475 0.325 0  0.5 0.325 0  0.525 0.325 0  0.55 0.325 0  0.575 0.325 0  0.6 0.325 0  0.625 0.325 0  0.65 0.325 0  0.675 0.325 0  0.7 0.325 0  0.725 0.325 0  0.75 0.325 0  0.775 0.325 0  0.8 0.325 0  0.825 0.325 0  0.85 0.325 0  0.875 0.325 0  0.9 0.325 0  0.925 0.325 0  0.95 0.325 0  0.975 0.325 0  1 0.325 0  0 0.35 0  0.025 0.35 0  0.05 0.35 0  0.075 0.35 0  0.1 0.35 0  0.125 0.35 0  0.15 0.35 0  0.175 0.35 0  0.2 0.35 0  0.225 0.35 0  0.25 0.35 0  0.275 0.35 0  0.3 0.35 0  0.325 0.35 0  0.35 0.35 0  0.375 0.35 0  0.4 0.35 0  0.425 0.35 0  0.45 0.35 0  0.475 0.35 0  0.5 0.35 0  0.525 0.35 0  0.55 0.35 0  0.575 0.35 0  0.6 0.35 0  0.625 0.35 0  0.65 0.35 0  0.675 0.35 0  0.7 0.35 0  0.725 0.35 0  0.75 0.35 0  0.775 0.35 0  0.8 0.35 0  0.825 0.35 0  0.85 0.35 0  0.875 0.35 0  0.9 0.35 0  0.925 0.35 0  0.95 0.35 0  0.975 0.35 0  1 0.35 0  0 0.375 0  0.025 0.375 0  0.05 0.375 0  0.075 0.375 0  0.1 0.375 0  0.125 0.375 0  0.15 0.375 0  0.175 0.375 0  0.2 0.375 0  0.225 0.375 0  0.25 0.375 0  0.275 0.375 0  0.3 0.375 0  0.325 0.375 0  0.35 0.375 0  0.375 0.375 0  0.4 0.375 0  0.425 0.375 0  0.45 0.375 0  0.475 0.375 0  0.5 0.375 0  0.525 0.375 0  0.55 0.375 0  0.575 0.375 0  0.6 0.375 0  0.625 0.375 0  0.65 0.375 0  0.675 0.375 0  0.7 0.375 0  0.725 0.375 0  0.75 0.375 0  0.775 0.375 0  0.8 0.375 0  0.825 0.375 0  0.85 0.375 0  0.875 0.375 0  0.9 0.375 0  0.925 0.375 0  0.95 0.375 0  0.975 0.375 0  1 0.375 0  0 0.4 0  0.025 0.4 0  0.05 0.4 0  0.075 0.4 0  0.1 0.4 0  0.125 0.4 0  0.15 0.4 0  0.175 0.4 0  0.2 0.4 0  0.225 0.4 0  0.25 0.4 0  0.275 0.4 0  0.3 0.4 0  0.325 0.4 0  0.35 0.4 0  0.375 0.4 0  0.4 0.4 0  0.425 0.4 0  0.45 0.4 0  0.475 0.4 0  0.5 0.4 0  0.525 0.4 0  0.55 0.4 0  0.575 0.4 0  0.6 0.4 0  0.625 0.4 0  0.65 0.4 0  0.675 0.4 0  0.7 0.4 0  0.725 0.4 0  0.75 0.4 0  0.775 0.4 0  0.8 0.4 0  0.825 0.4 0  0.85 0.4 0  0.875 0.4 0  0.9 0.4 0  0.925 0.4 0  0.95 0.4 0  0.975 0.4 0  1 0.4 0  0 0.425 0  0.025 0.425 0  0.05 0.425 0  0.075 0.425 0  0.1 0.425 0  0.125 0.425 0  0.15 0.425 0  0.175 0.425 0  0.2 0.425 0  0.225 0.425 0  0.25 0.425 0  0.275 0.425 0  0.3 0.425 0  0.325 0.425 0  0.35 0.425 0  0.375 0.425 0  0.4 0.425 0  0.425 0.425 0  0.45 0.425 0  0.475 0.425 0  0.5 0.425 0  0.525 0.425 0  0.55 0.425 0  0.575 0.425 0  0.6 0.425 0  0.625 0.425 0  0.65 0.425 0  0.675 0.425 0  0.7 0.425 0  0.725 0.425 0  0.75 0.425 0  0.775 0.425 0  0.8 0.425 0  0.825 0.425 0  0.85 0.425 0  0.875 0.425 0  0.9 0.425 0  0.925 0.425 0  0.95 0.425 0  0.975 0.425 0  1 0.425 0  0 0.45 0  0.02
[...]
<PointData  Scalars="ControlVisualisation"> 
<DataArray  type="Float64"  Name="ControlVisualisation"  format="ascii">3.7251417564710776e-01  3.1651041207574071e-01  3.1652339529691931e-01  3.1683307619546386e-01  3.1751351859481641e-01  3.1846829822248957e-01  3.1954639777862592e-01  3.2062252738058739e-01  3.2162484285829895e-01  3.2252628814532325e-01  3.2332485021354940e-01  3.2402760710178641e-01  3.2464236337120633e-01  3.2517503175687890e-01  3.2562984981663928e-01  3.2601034669956896e-01  3.2632006242141864e-01  3.2656276738362144e-01  3.2674227754543317e-01  3.2686204527035745e-01  3.2692467047344292e-01  3.2693141361074546e-01  3.2688174336734449e-01  3.2677292927640045e-01  3.2659969178594361e-01  3.2635394653401406e-01  3.2602472459908671e-01  3.2559841850055782e-01  3.2505959437647847e-01  3.2439272871236474e-01  3.2358535968414770e-01  3.2263322160432972e-01  3.2154799211634633e-01  3.2036745524970417e-01  3.1916581885179524e-01  3.1805834130587529e-01  3.1718366710692730e-01  3.1665698063400560e-01  3.1649310439166933e-01  3.1653911209858221e-01  4.3200533196160823e-01  3.1650334627518506e-01  1.8208074012517736e-01  1.8311937785344276e-01  1.8603532490305380e-01  1.9125564705324263e-01  1.9835322082656950e-01  2.0648633273399053e-01  2.1486529462522941e-01  2.2296657284064361e-01  2.3053629469230427e-01  2.3749442799861076e-01  2.4383569837868005e-01  2.4956932013882491e-01  2.5469717197477648e-01  2.5921415214457666e-01  2.6311555321981950e-01  2.6640294044503954e-01  2.6908583506583711e-01  2.7117969909240802e-01  2.7270174084011933e-01  2.7366591874052010e-01  2.7407801400936310e-01  2.7393119728618276e-01  2.7320227978037115e-01  2.7184882684913031e-01  2.6980749234893375e-01  2.6699427760452937e-01  2.6330790922175656e-01  2.5863811552091021e-01  2.5288119766773520e-01  2.4596563675616612e-01  2.3789030806455158e-01  2.2877640305244942e-01  2.1892805915851871e-01  2.0888801995326647e-01  1.9944752901176310e-01  1.9153708059355001e-01  1.8596251105115291e-01  1.8296235677420467e-01  1.8197628322859713e-01  3.1653849488800745e-01  3.1644008899121889e-01  1.8301616109434457e-01  1.8778112402890185e-01  1.9704171764044454e-01  2.1153712813833667e-01  2.3058227766897638e-01  2.5226641152300056e-01  2.7450018137651422e-01  2.9575045447645110e-01  3.1521030197223504e-01  3.3261138701740706e-01  3.4796526200021072e-01  3.6138150609178932e-01  3.7298107280407744e-01  3.8287116890283984e-01  3.9114644102083984e-01  3.9789532996140509e-01  4.0320302565931371e-01  4.0714957408727703e-01  4.0980446444468344e-01  4.1121944291274137e-01  4.1142083235317983e-01  4.1040208614630364e-01  4.0811699502031457e-01  4.0447398215966351e-01  3.9933226553496259e-01  3.9250133525713554e-01  3.8374620968708506e-01  3.7280230867522668e-01  3.5940551924454034e-01  3.4334472409074546e-01  3.2454543119309587e-01  3.0319024744092016e-01  2.7987135924917877e-01  2.5574332930547083e-01  2.3256525194797181e-01  2.1249064756625902e-01  1.9740391294400930e-01  1.8783225700566383e-01  1.8285386562113726e-01  3.1647322015323548e-01  3.1651520504107572e-01  1.8609886994660516e-01  1.9933783253237164e-01  2.1984364322986275e-01  2.4711320894537472e-01  2.7944413261696477e-01  3.1344679795500396e-01  3.4602174948595821e-01  3.7540465743259571e-01  4.0106131036232268e-01  4.2314263975958333e-01  4.4203209588205478e-01  4.5811212751425917e-01  4.7169022818549600e-01  4.8300051190018500e-01  4.9222681647111477e-01  4.9952331978907932e-01  5.0502597761416568e-01  5.0885544930498394e-01  5.1111421306780713e-01  5.1188040188850070e-01  5.1120010561019458e-01  5.0907916288013577e-01  5.0547503600015353e-01  5.0028926217103165e-01  4.9336119406569817e-01  4.8446427973310707e-01  4.7330702661830570e-01  4.5954213073803218e-01  4.4278923099827261e-01  4.2267946483475927e-01  3.9893412959553787e-01  3.7149219783337184e-01  3.4070584072922783e-01  3.0759468415790076e-01  2.7407986022492464e-01  2.4299048282606922e-01  2.1719500093257779e-01  1.9810444652493625e-01  1.8551043333140543e-01  3.1652536355435335e-01  3.1694558676918666e-01  1.9427145989003425e-01  2.3094926321214418e-01  2.7848827870734588e-01  3.2778833006388908e-01  3.7399983150720983e-01  4.1416857837667115e-01  4.4738964290983668e-01  4.7436326234272164e-01  4.9639583405842769e-01  5.1469862384433773e-01  5.3013324535280837e-01  5.4322312470537448e-01  5.5425749680949454e-01  5.6339491554972576e-01  5.7073562709572867e-01  5.7636216436549959e-01  5.8035682372105502e-01  5.8280489968508731e-01  5.8379015597662909e-01  5.8338658905858798e-01  5.8164877451299324e-01  5.7860197400397473e-01  5.7423255947000984e-01  5.6847903236290409e-01  5.6122387366134341e-01  5.5228658597657287e-01  5.4141854327207917e-01  5.2830065149941441e-01  5.1254550760600659e-01  4.9370705236866363e-01  4.7130419869420331e-01  4.4487125942815409e-01  4.1406746894660440e-01  3.7887815346986131e-01  3.3998809032782407e-01  2.9912660628006832e-01  2.5882731442240281e-01  2.2173631883445188e-01  1.9185501855994283e-01  3.1682297610509724e-01  3.1880501266789335e-01  2.2698408480287435e-01  3.4202210868724370e-01  4.5329537161797367e-01  5.2366098319126941e-01  5.6344794418255983e-01  5.8546455538446729e-01  5.9788592703760735e-01  6.0561508012412879e-01  6.1139369823856782e-01  6.1653430977607659e-01  6.2147970617980708e-01  6.2621633056651382e-01  6.3054448728908863e-01  6.3423152157277041e-01  6.3708458037422167e-01  6.3897525450480952e-01  6.3983904266629854e-01  6.3966364374040285e-01  6.3847360170315659e-01  6.3631486487953026e-01  6.3324069616216694e-01  6.2929934073622440e-01  6.2452338456222611e-01  6.1892050114384978e-01  6.1246510914418140e-01  6.0509023271979734e-01  5.9667846784633105e-01  5.8705034593744132e-01  5.7594759558046849e-01  5.6300818503277617e-01  5.4773106223397305e-01  5.2943212358408809e-01  5.0720643295038370e-01  4.7991262702177889e-01  4.4622169085376739e-01  4.0429014702706412e-01  3.5097136943598289e-01  2.8114010830299979e-01  2.0685431757235234e-01  3.1724007645351887e-01  3.5929939199380351e-01  4.3474758126454316e-01  7.3398689870044920e-01  8.3777453602434249e-01  8.4705557945499232e-01  8.2933105584774780e-01  8.0421388746627498e-01  7.7872309508063320e-01  7.5633322233530698e-01  7.3849551409740843e-01  7.2519843457674960e-01  7.1564586837931310e-01  7.0881372065280990e-01  7.0375401879631161e-01  6.9970906064087357e-01  6.9612631087587984e-01  6.9263263783329576e-01  6.8899738418563972e-01  6.8509701371977749e-01  6.8088564760288572e-01  6.7637199531923153e-01  6.7160180556715732e-01  6.6664469514516900e-01  6.6158430319732642e-01  6.5651078314376787e-01  6.5151451025827201e-01  6.4667944687054080e-01  6.4207377850220049e-01  6.3773419074266224e-01  6.3363871382578951e-01  6.2966253683656814e-01  6.2551410805965957e-01  6.2065935970149710e-01  6.1426667332299545e-01  6.0520814377339360e-01  5.9202967886714775e-01  5.7188102233705651e-01  5.3595437927517842e-01  4.5254993776491725e-01  2.8393603961887165e-01  3.2242998506865789e-01  9.0385112347847596e-01  9.9553803376557004e-01  9.9831191989771939e-01  9.9476944335730300e-01  9.8592626041148657e-01  9.7030243746098166e-01  9.4666730373959662e-01  9.1622111158904274e-01  8.8326150265870895e-01  8.5235729489226686e-01  8.2591875585935248e-01  8.0424048785453783e-01  7.8657952927054864e-01  7.7196582116342616e-01  7.5954961052513825e-01  7.4868597301526951e-01  7.3892087456030708e-01  7.2995356132931000e-01  7.2160086844143423e-01  7.1376965227862543e-01  7.0643715862063883e-01  6.9963760695182253e-01  6.9345335421418897e-01  6.8800939476384493e-01  6.8347014041162379e-01  6.8003720255069955e-01  6.7794613707084095e-01  6.7745865190881283e-01  6.7884449257325230e-01  6.8234442965683118e-01  6.8810461509576404e-01  6.9607938175611972e-01  7.0593261852934552e-01  7.1705378047621116e-01  7.2893415862223243e-01  7.4207604134546690e-01  7.5830287661877727e-01  7.7700793292203052e-01  7.7814512510278777e-01  7.0082544656253265e-01  4.5470243146805611e-01  9.8434036024583460e-01  9.9143198950448341e-01  9.8741211051734723e-01  9.8294353100625875e-01  9.7956513948414126e-01  9.7686419275464098e-01  9.7440512454053807e-01  9.6756767098172780e-01  9.5195013082168167e-01  9.2889790015403317e-01  9.0279952510661987e-01  8.7698841484701762e-01  8.5295015719122458e-01  8.3107946456962667e-01  8.1133394025018823e-01  7.9353641076771786e-01  7.7748799014393488e-01  7.6301030568936246e-01  7.4996372645671250e-01  7.3825682416840654e-01  7.2785204907677947e-01  7.1876959798050866e-01  7.1109057096410588e-01  7.0496013821128023e-01  7.0059098983672952e-01  6.9826652875077733e-01  6.9834179010298691e-01  7.0123745648596691e-01  7.0741789832462565e-01  7.1733743611684475e-01  7.3133167423492407e-01  7.4943305780953540e-01  7.7113897924484709e-01  7.9533220269105720e-01  8.2090555251586750e-01  8.4851689679643827e-01  8.8119028972899849e-01  9.1850971702378503e-01  9.5132972754927791e-01  9.5835454524577468e-01  8.6612476676698580e-01  9.9615317061954367e-01  9.9807465176912591e-01  9.9521693673355371e-01  9.9027507390960123e-01  9.8568879890841021e-01  9.7958392238140457e-01  9.7453007116396806e-01  9.7355320894937669e-01  9.7294929451184731e-01  9.6570582971772900e-01  9.4990408722007802e-01  9.2797944415331768e-01  9.0302324852985627e-01  8.7732610284878643e-01  8.5232335718110486e-01  8.2882375201699643e-01  8.0722172056212271e-01  7.8766153040901721e-01  7.7015636339273819e-01  7.5466969418680963e-01  7.4116842412949335e-01  7.2965683892779587e-01  7.2019860472171016e-01  7.1293191769801390e-01  7.0808098032680744e-01  7.0596503724292725e-01  7.0700376402279885e-01  7.1171395746676902e-01  7.2068573256711121e-01  7.3451482486968278e-01  7.5365060159400576e-01  7.7810741165619535e-01  8.0703020542606496e-01  8.3834587623068058e-01  8.6932304788321801e-01  8.9878447699019437e-01  9.2777532759612735e-01  9.5317650664022890e-01  9.7058588559120051e-01  9.7529060121678712e-01  9.5923817908696518e-01  9.9771372186790197e-01  9.9898358753387673e-01  9.9687430500398500e-01  9.9270561271439139e-01  9.8915754754706098e-01  9.8326900228608971e-01  9.7618755926000267e-01  9.7216328924032325e-01  9.7449393118920002e-01  9.7725233669249412e-01  9.7237884353480242e-01  9.5763171934265845e-01  9.3524812762147036e-01  9.0859246244710912e-01  8.8050667154287354e-01  8.5292094487123482e-01  8.2696495166085926e-01  8.0320659070295330e-01  7.8187328939799039e-01  7.6301596286217199e-01  7.4661831549551350e-01  7.3266601063470849e-01  7.2118985207880137e-01  7.1229349994282487e-01  7.0617256127367001e-01  7.0312870225177471e-01  7.0357923244631826e-01  7.0805830709092632e-01  7.1719860511786671e-01  7.3166921678021080e-01  7.5202393517128530e-01  7.7839033296170046e-01  8.0994945647476868e-01  8.4438081659240183e-01  8.7810846989379576e-01  9.0847976276154618e-01  9.3538409370108644e-01  9.5703355682167435e-01  9.7232668689637725e-01  9.7925854826599323e-01  9.7128886334136133e-01  9.9302829083414124e-01  9.9855262841293957e-01  9.9596849945901356e-01  9.9187787036998709e-01  9.8863623071050366e-01  9.8302123853304901e-01  9.7570024180794901e-01  9.6989876265459007e-01  9.7111617829548791e-01  9.7721976377694819e-01  9.7880219801880819e-01  9.6984227199211415e-01  9.5058809126135690e-01  9.2439325812248696e-01  8.9488566056119678e-01  8.6481794845126025e-01  8.3592417673081487e-01  8.0914512411785178e-01  7.8490737314840930e-01  7.6334769357691235e-01  7.4446706751612723e-01  7.2822874473233867e-01  7.1461872376314006e-01  7.0368325599730552e-01  6.9555319947943450e-01  6.9046102445526181e-01  6.8875282908604363e-01  6.9089395826317124e-01  6.9746122334115834e-01  7.0910500225432993e-01  7.2644814465546048e-01  7.4986764770289005e-01  7.7910630183292529e-01  8.1279221875138663e-01  8.4839477148731657e-01  8.8358366090897522e-01  9.1751993363127138e-01  9.4686312993385480e-01  9.6631134587079370e-01  9.7457353286670567e-01  9.6954659188059866e-01  9.7513027818947795e-01  9.9243704201504890e-01  9.9107756872005570e-01  9.8710482483574613e-01  9.8397719614886769e-01  9.7825763622119377e-01  9.7079459236709853e-01  9.6472075522360667e-01  9.6512504072377892e-01  9.7124251851841448e-01  9.7455745988140285e-01  9.6800969990795827e-01  9.5057041380271645e-01  9.2509071655672637e-01  8.9528759389549672e-01  8.6420783898746056e-01  8.3386949250745657e-01  8.0541759824976134e-01  7.7940039831578856e-01  7.5601084341347824e-01  7.3525869781350139e-01  7.1708213793890918e-01  7.0141684000182336e-01  6.8823812284688413e-01  6.7758705434336430e-01  6.6958731916752290e-01  6.6445640298937581e-01  6.6251179062880472e-01  6.6416959902689210e-01  6.6992832089706955e-01  6.8032319998506341e-01  6.9582849477957387e-01  7.1668801885205113e-01  7.4271536031428331e-01  7.7332222868971745e-01  8.0833938963236462e-01  8.4905422718018519e-01  8.9495355725218606e-01  9.3577240248461124e-01  9.5651144863936877e-01  9.2301013233440909e-01  7.1080206616552533e-01  9.7802057393760677e-01  9.7958963046171532e-01  9.7727896368268408e-01  9.7397639761323707e-01  9.6749757622369592e-01  9.5975087900000022e-01  9.5400622554262704e-01  9.5400226356852880e-01  9.5843606099485812e-01  9.6014893264541967e-01  9.5305998889159982e-01  9.3599320464143576e-01  9.1125314965521464e-01  8.8213139528228268e-01  8.5146475721350257e-01  8.2120950587289687e-01  7.9251859432486027e-01  7.6596665418711729e-01  7.4176530717454392e-01  7.1992410480258040e-01  7.0035820489572731e-01  6.8295625721720232e-01  6.6762177096274022e-01  6.5429779563395518e-01  6.4298127490357992e-01  6.3373064659933664e-01  6.2666804427926492e-01  6.2197548241644407e-01  6.1988235841140349e-01  6.2063940557240860e-01  6.2447288731555184e-01  6.3151726279766218e-01  6.4174992968878397e-01  6.5503244229059154e-01  6.7146618352301679e-01  6.9179653284224496e-01  7.1502449358007625e-01  7.2392440893494725e-01  6.4256354153537032e-01  5.6551213011093904e-01  3.4360824933593975e-01  6.3163475678798908e-01  9.6053991353180368e-01  9.6341220928505122e-01  9.5428214880933504e-01  9.4552098938607299e-01  9.3755289396749730e-01  9.3243253119096059e-01  9.3194074833984297e-01  9.3388222341770799e-01  9.3266473316628462e-01  9.2396934113501117e-01  9.0703483176997179e-01  8.8364952382617623e-01  8.5641035039473445e-01  8.2763650366441122e-01  7.9899190525417030e-01  7.7149881166816869e-01  7.4568945771934736e-01  7.2176881704926044e-01  6.9974437068438222e-01  6.7951711980669127e-01  6.6094098872081730e-01  6.4385968373840907e-01  6.2812837283039935e-01  6.1362517826029650e-01  6.0025532481994237e-01  5.8794897118380940e-01  5.7665215016826166e-01  5.6630870332337546e-01  5.5682954721851707e-01  5.4804425959712011e-01  5.3962989762359515e-01  5.3101638646922777e-01  5.2127993640383219e-01  5.0900304304713151e-01  4.9169121689793693e-01  4.6252535453389410e-01  3.9994035090614111e-01  2.8048706663792700e-01  3.3543078147317451e-01  3.2594856403750666e-01  3.4482611411913655e-01  7.2886550016727736e-01  8.7293208029979641e-01  8.9456621695171024e-01  8.9490548105943124e-01  8.9206738920793982e-01  8.9038550604672273e-01  8.9098008812107743e-01  8.9173951890014891e-01  8.8889346785328183e-01  8.7986464635101391e-01  8.6436551696731978e-01  8.4372656071027896e-01  8.1983624300651048e-01  7.9443524418139888e-01  7.6882988239815575e-01  7.4386491094198703e-01  7.2000614311254663e-01  6.9744636567786622e-01  6.7619781242181731e-01  6.5616149935119994e-01  6.3717499058480886e-01  6.1904337594147774e-01  6.0155814041786249e-01  5.8450744645357000e-01  5.6768000092775017e-01  5.5086338905775378e-01  5.3383655687517417e-01  5.1635503758295387e-01  4.9812674400001122e-01  4.7877636280981956e-01  4.5779961987934131e-01  4.3451978352761494e-01  4.0808431204817475e-01  3.7756645406330441e-01  3.4215040078579251e-01  3.0089690076604664e-01  2.5245203322745391e-01  2.0433460355738742e-01  3.1811839768816041e-01  3.2412402928781819e-01  2.7917802434950362e-01  5.2394010039443362e-01  6.9976166122194516e-01  7.7295885551737931e-01  8.0112746187154771e-01  8.1383506073474654e-01  8.2146462509684282e-01  8.2707279358308017e-01  8.3011585363419371e-01  8.2884875098803024e-01  8.2217574968772089e-01  8.1022547947582002e-01  7.9401441176001319e-01  7.7489131621407037e-01  7.5413024506865900e-01  7.3273488128934006e-01  7.1139457993243427e-01  6.9051816470188099e-01  6.7029406180648232e-01  6.5075000000464500e-01  6.3180193930102291e-01  6.1329039524880324e-01  5.9500582174352235e-01  5.7670567409082640e-01  5.5812565221215982e-01  5.3898712878389465e-01  5.1900220408578346e-01  4.9787735829274454e-01  4.7531652066638735e-01  4.5102506056947111e-01  4.2471895778883112e-01  3.9615080253265289e-01  3.6517992562222223e-01  3.3193878553760248e-01  2.9715691621766183e-01  2.6258659870811285e-01  2.3107657872868068e-01  2.0568875009875479e-01  1.8844861411846134e-01  3.1714286253906299e-01  3.2277575275035886e-01  2.5050887698659119e-01  4.1307795640799638e-01  5.5438163306843768e-01  6.3872417184061914e-01  6.8590202420609625e-01  7.1416846275839618e-01  7.3289059835401327e-01  7.4590794179691566e-01  7.5408115244657437e-01  7.5721603450110342e-01  7.5523205176813535e-01  7.4855077879544296e-01  7.3800611276209804e-01  7.2460029074701016e-01  7.0929123347308431e-01  6.9286842962544903e-01  6.7590863438398197e-01  6.5878193464514201e-01  6.4168120374545734e-01  6.2465747367360802e-01  6.0765242853833445e-01  5.9052490253363710e-01  5.7307134060799136e-01  5.5504161968204790e-01  5.3615222284614517e-01  5.1609899797750325e-01  4.9457188227125232e-01  4.7127420087622546e-01  4.4594961712121955e-01  4.1842077763122493e-01  3.8864567091634561e-01  3.5680092242393474e-01  3.2340422861507662e-01  2.8948307601752826e-01  2.5675633016819721e-01  2.2767760500136006e-01  2.0500973288544785e-01  1.9057698767579434e-01  1.8388441508464787e-01  3.1674283224365363e-01  3.2207665704941313e-01  2.3706014680596002e-01  3.5523037210500424e-01  4.5992622822668489e-01  5.3208135735614248e-01  5.8095475513202743e-01  6.1541306059591250e-01  6.4078957386017343e-01  6.5969699364079637e-01  6.7312983242784008e-01  6.8143948535570009e-01  6.8492180032173611e-01  6.8405829784820948e-01  6.7952023293611896e-01  6.7206851594518646e-01  6.6244164416989637e-01  6.5127501623731154e-01  6.3906063950956749e-01  6.2613858134700551e-01  6.1270720499935372e-01  5.9884152258134749e-01  5.8451302571650221e-01  5.6960783477065402e-01  5.5394240856984478e-01  5.3727757456339020e-01  5.1933262730441754e-01  4.9980199100747946e-01  4.7837762598853939e-01  4.5478104077087800e-01  4.2880933689565004e-01  4.0039982022187104e-01  3.6971649507137005e-01  3.3725701049828666e-01  3.0396730062944111e-01  2.7132638040889895e-01  2.4132202069673103e-01  2.1620025004842236e-01  1.9788688071260405e-01  1.8714868167054363e-01  1.8282931478163150e-01  3.1661349605588351e-01  3.2156760323231920e-01  2.2890143491005405e-01  3.2025557984324216e-01  3.9890039360904739e-01  4.5588836494300405e-01  4.9818175857416741e-01  5.3116361535908707e-01  5.5772598413904062e-01  5.7916994106482667e-01  5.9600222951322046e-01  6.0843134160695833e-01  6.1665781442948442e-01  6.2100735639299365e-01  6.2194149444371283e-01  6.2000363864261288e-01  6.1574699213582595e-01  6.0967370552045030e-01  6.0219634149206869e-01  5.9362048306140913e-01  5.8414233629419066e-01  5.7385483222703049e-01  5.6275740540565067e-01  5.5076666791801376e-01  5.3772695616063548e-01  5.2342110616011261e-01  5.0758293529369847e-01  4.8991393316054654e-01  4.7010770407644797e-01  4.4788674059253292e-01  4.2305685013352279e-01  3.9558425798520025e-01  3.6569706396176693e-01  3.3400328994815137e-01  3.0159838837483499e-01  2.7010130753067513e-01  2.4152932699551413e-01  2.1792532742560233e-01  2.0073262248466128e-01  1.9003702513358953e-01  1.8414667356052047e-01  3.1669497374111460e-01  3.2112127136873625e-01  2.2325320378483690e-01  2.9713200854482602e-01  3.5769096704695158e-01  4.0171274363940507e-01  4.3576184035720439e-01  4.6406802179587076e-01  4.8851177715535704e-01  5.097179875