<?xml version="1.0"?>
<VTKFile type="UnstructuredGrid"  version="0.1"  >
<UnstructuredGrid>
<Piece  NumberOfPoints="1681" NumberOfCells="3200">
<Points>
<DataArray  type="Float64"  NumberOfComponents="3"  format="ascii">0 0 0  0.025 0 0  0.05 0 0  0.075 0 0  0.1 0 0  0.125 0 0  0.15 0 0  0.175 0 0  0.2 0 0  0.225 0 0  0.25 0 0  0.275 0 0  0.3 0 0  0.325 0 0  0.35 0 0  0.375 0 0  0.4 0 0  0.425 0 0  0.45 0 0  0.475 0 0  0.5 0 0  0.525 0 0  0.55 0 0  0.575 0 0  0.6 0 0  0.625 0 0  0.65 0 0  0.675 0 0  0.7 0 0  0.725 0 0  0.75 0 0  0.775 0 0  0.8 0 0  0.825 0 0  0.85 0 0  0.875 0 0  0.9 0 0  0.925 0 0  0.95 0 0  0.975 0 0  1 0 0  0 0.025 0  0.025 0.025 0  0.05 0.025 0  0.075 0.025 0  0.1 0.025 0  0.125 0.025 0  0.15 0.025 0  0.175 0.025 0  0.2 0.025 0  0.225 0.025 0  0.25 0.025 0  0.275 0.025 0  0.3 0.025 0  0.325 0.025 0  0.35 0.025 0  0.375 0.025 0  0.4 0.025 0  0.425 0.025 0  0.45 0.025 0  0.475 0.025 0  0.5 0.025 0  0.525 0.025 0  0.55 0.025 0  0.575 0.025 0  0.6 0.025 0  0.625 0.025 0  0.65 0.025 0  0.675 0.025 0  0.7 0.025 0  0.725 0.025 0  0.75 0.025 0  0.775 0.025 0  0.8 0.025 0  0.825 0.025 0  0.85 0.025 0  0.875 0.025 0  0.9 0.025 0  0.925 0.025 0  0.95 0.025 0  0.975 0.025 0  1 0.025 0  0 0.05 0  0.025 0.05 0  0.05 0.05 0  0.075 0.05 0  0.1 0.05 0  0.125 0.05 0  0.15 0.05 0  0.175 0.05 0  0.2 0.05 0  0.225 0.05 0  0.25 0.05 0  0.275 0.05 0  0.3 0.05 0  0.325 0.05 0  0.35 0.05 0  0.375 0.05 0  0.4 0.05 0  0.425 0.05 0  0.45 0.05 0  0.475 0.05 0  0.5 0.05 0  0.525 0.05 0  0.55 0.05 0  0.575 0.05 0  0.6 0.05 0  0.625 0.05 0  0.65 0.05 0  0.675 0.05 0  0.7 0.05 0  0.725 0.05 0  0.75 0.05 0  0.775 0.05 0  0.8 0.05 0  0.825 0.05 0  0.85 0.05 0  0.875 0.05 0  0.9 0.05 0  0.925 0.05 0  0.95 0.05 0  0.975 0.05 0  1 0.05 0  0 0.075 0  0.025 0.075 0  0.05 0.075 0  0.075 0.075 0  0.1 0.075 0  0.125 0.075 0  0.15 0.075 0  0.175 0.075 0  0.2 0.075 0  0.225 0.075 0  0.25 0.075 0  0.275 0.075 0  0.3 0.075 0  0.325 0.075 0  0.35 0.075 0  0.375 0.075 0  0.4 0.075 0  0.425 0.075 0  0.45 0.075 0  0.475 0.075 0  0.5 0.075 0  0.525 0.075 0  0.55 0.075 0  0.575 0.075 0  0.6 0.075 0  0.625 0.075 0  0.65 0.075 0  0.675 0.075 0  0.7 0.075 0  0.725 0.075 0  0.75 0.075 0  0.775 0.075 0  0.8 0.075 0  0.825 0.075 0  0.85 0.075 0  0.875 0.075 0  0.9 0.075 0  0.925 0.075 0  0.95 0.075 0  0.975 0.075 0  1 0.075 0  0 0.1 0  0.025 0.1 0  0.05 0.1 0  0.075 0.1 0  0.1 0.1 0  0.125 0.1 0  0.15 0.1 0  0.175 0.1 0  0.2 0.1 0  0.225 0.1 0  0.25 0.1 0  0.275 0.1 0  0.3 0.1 0  0.325 0.1 0  0.35 0.1 0  0.375 0.1 0  0.4 0.1 0  0.425 0.1 0  0.45 0.1 0  0.475 0.1 0  0.5 0.1 0  0.525 0.1 0  0.55 0.1 0  0.575 0.1 0  0.6 0.1 0  0.625 0.1 0  0.65 0.1 0  0.675 0.1 0  0.7 0.1 0  0.725 0.1 0  0.75 0.1 0  0.775 0.1 0  0.8 0.1 0  0.825 0.1 0  0.85 0.1 0  0.875 0.1 0  0.9 0.1 0  0.925 0.1 0  0.95 0.1 0  0.975 0.1 0  1 0.1 0  0 0.125 0  0.025 0.125 0  0.05 0.125 0  0.075 0.125 0  0.1 0.125 0  0.125 0.125 0  0.15 0.125 0  0.175 0.125 0  0.2 0.125 0  0.225 0.125 0  0.25 0.125 0  0.275 0.125 0  0.3 0.125 0  0.325 0.125 0  0.35 0.125 0  0.375 0.125 0  0.4 0.125 0  0.425 0.125 0  0.45 0.125 0  0.475 0.125 0  0.5 0.125 0  0.525 0.125 0  0.55 0.125 0  0.575 0.125 0  0.6 0.125 0  0.625 0.125 0  0.65 0.125 0  0.675 0.125 0  0.7 0.125 0  0.725 0.125 0  0.75 0.125 0  0.775 0.125 0  0.8 0.125 0  0.825 0.125 0  0.85 0.125 0  0.875 0.125 0  0.9 0.125 0  0.925 0.125 0  0.95 0.125 0  0.975 0.125 0  1 0.125 0  0 0.15 0  0.025 0.15 0  0.05 0.15 0  0.075 0.15 0  0.1 0.15 0  0.125 0.15 0  0.15 0.15 0  0.175 0.15 0  0.2 0.15 0  0.225 0.15 0  0.25 0.15 0  0.275 0.15 0  0.3 0.15 0  0.325 0.15 0  0.35 0.15 0  0.375 0.15 0  0.4 0.15 0  0.425 0.15 0  0.45 0.15 0  0.475 0.15 0  0.5 0.15 0  0.525 0.15 0  0.55 0.15 0  0.575 0.15 0  0.6 0.15 0  0.625 0.15 0  0.65 0.15 0  0.675 0.15 0  0.7 0.15 0  0.725 0.15 0  0.75 0.15 0  0.775 0.15 0  0.8 0.15 0  0.825 0.15 0  0.85 0.15 0  0.875 0.15 0  0.9 0.15 0  0.925 0.15 0  0.95 0.15 0  0.975 0.15 0  1 0.15 0  0 0.175 0  0.025 0.175 0  0.05 0.175 0  0.075 0.175 0  0.1 0.175 0  0.125 0.175 0  0.15 0.175 0  0.175 0.175 0  0.2 0.175 0  0.225 0.175 0  0.25 0.175 0  0.275 0.175 0  0.3 0.175 0  0.325 0.175 0  0.35 0.175 0  0.375 0.175 0  0.4 0.175 0  0.425 0.175 0  0.45 0.175 0  0.475 0.175 0  0.5 0.175 0  0.525 0.175 0  0.55 0.175 0  0.575 0.175 0  0.6 0.175 0  0.625 0.175 0  0.65 0.175 0  0.675 0.175 0  0.7 0.175 0  0.725 0.175 0  0.75 0.175 0  0.775 0.175 0  0.8 0.175 0  0.825 0.175 0  0.85 0.175 0  0.875 0.175 0  0.9 0.175 0  0.925 0.175 0  0.95 0.175 0  0.975 0.175 0  1 0.175 0  0 0.2 0  0.025 0.2 0  0.05 0.2 0  0.075 0.2 0  0.1 0.2 0  0.125 0.2 0  0.15 0.2 0  0.175 0.2 0  0.2 0.2 0  0.225 0.2 0  0.25 0.2 0  0.275 0.2 0  0.3 0.2 0  0.325 0.2 0  0.35 0.2 0  0.375 0.2 0  0.4 0.2 0  0.425 0.2 0  0.45 0.2 0  0.475 0.2 0  0.5 0.2 0  0.525 0.2 0  0.55 0.2 0  0.575 0.2 0  0.6 0.2 0  0.625 0.2 0  0.65 0.2 0  0.675 0.2 0  0.7 0.2 0  0.725 0.2 0  0.75 0.2 0  0.775 0.2 0  0.8 0.2 0  0.825 0.2 0  0.85 0.2 0  0.875 0.2 0  0.9 0.2 0  0.925 0.2 0  0.95 0.2 0  0.975 0.2 0  1 0.2 0  0 0.225 0  0.025 0.225 0  0.05 0.225 0  0.075 0.225 0  0.1 0.225 0  0.125 0.225 0  0.15 0.225 0  0.175 0.225 0  0.2 0.225 0  0.225 0.225 0  0.25 0.225 0  0.275 0.225 0  0.3 0.225 0  0.325 0.225 0  0.35 0.225 0  0.375 0.225 0  0.4 0.225 0  0.425 0.225 0  0.45 0.225 0  0.475 0.225 0  0.5 0.225 0  0.525 0.225 0  0.55 0.225 0  0.575 0.225 0  0.6 0.225 0  0.625 0.225 0  0.65 0.225 0  0.675 0.225 0  0.7 0.225 0  0.725 0.225 0  0.75 0.225 0  0.775 0.225 0  0.8 0.225 0  0.825 0.225 0  0.85 0.225 0  0.875 0.225 0  0.9 0.225 0  0.925 0.225 0  0.95 0.225 0  0.975 0.225 0  1 0.225 0  0 0.25 0  0.025 0.25 0  0.05 0.25 0  0.075 0.25 0  0.1 0.25 0  0.125 0.25 0  0.15 0.25 0  0.175 0.25 0  0.2 0.25 0  0.225 0.25 0  0.25 0.25 0  0.275 0.25 0  0.3 0.25 0  0.325 0.25 0  0.35 0.25 0  0.375 0.25 0  0.4 0.25 0  0.425 0.25 0  0.45 0.25 0  0.475 0.25 0  0.5 0.25 0  0.525 0.25 0  0.55 0.25 0  0.575 0.25 0  0.6 0.25 0  0.625 0.25 0  0.65 0.25 0  0.675 0.25 0  0.7 0.25 0  0.725 0.25 0  0.75 0.25 0  0.775 0.25 0  0.8 0.25 0  0.825 0.25 0  0.85 0.25 0  0.875 0.25 0  0.9 0.25 0  0.925 0.25 0  0.95 0.25 0  0.975 0.25 0  1 0.25 0  0 0.275 0  0.025 0.275 0  0.05 0.275 0  0.075 0.275 0  0.1 0.275 0  0.125 0.275 0  0.15 0.275 0  0.175 0.275 0  0.2 0.275 0  0.225 0.275 0  0.25 0.275 0  0.275 0.275 0  0.3 0.275 0  0.325 0.275 0  0.35 0.275 0  0.375 0.275 0  0.4 0.275 0  0.425 0.275 0  0.45 0.275 0  0.475 0.275 0  0.5 0.275 0  0.525 0.275 0  0.55 0.275 0  0.575 0.275 0  0.6 0.275 0  0.625 0.275 0  0.65 0.275 0  0.675 0.275 0  0.7 0.275 0  0.725 0.275 0  0.75 0.275 0  0.775 0.275 0  0.8 0.275 0  0.825 0.275 0  0.85 0.275 0  0.875 0.275 0  0.9 0.275 0  0.925 0.275 0  0.95 0.275 0  0.975 0.275 0  1 0.275 0  0 0.3 0  0.025 0.3 0  0.05 0.3 0  0.075 0.3 0  0.1 0.3 0  0.125 0.3 0  0.15 0.3 0  0.175 0.3 0  0.2 0.3 0  0.225 0.3 0  0.25 0.3 0  0.275 0.3 0  0.3 0.3 0  0.325 0.3 0  0.35 0.3 0  0.375 0.3 0  0.4 0.3 0  0.425 0.3 0  0.45 0.3 0  0.475 0.3 0  0.5 0.3 0  0.525 0.3 0  0.55 0.3 0  0.575 0.3 0  0.6 0.3 0  0.625 0.3 0  0.65 0.3 0  0.675 0.3 0  0.7 0.3 0  0.725 0.3 0  0.75 0.3 0  0.775 0.3 0  0.8 0.3 0  0.825 0.3 0  0.85 0.3 0  0.875 0.3 0  0.9 0.3 0  0.925 0.3 0  0.95 0.3 0  0.975 0.3 0  1 0.3 0  0 0.325 0  0.025 0.325 0  0.05 0.325 0  0.075 0.325 0  0.1 0.325 0  0.125 0.325 0  0.15 0.325 0  0.175 0.325 0  0.2 0.325 0  0.225 0.325 0  0.25 0.325 0  0.275 0.325 0  0.3 0.325 0  0.325 0.325 0  0.35 0.325 0  0.375 0.325 0  0.4 0.325 0  0.425 0.325 0  0.45 0.325 0  0.475 0.325 0  0.5 0.325 0  0.525 0.325 0  0.55 0.325 0  0.575 0.325 0  0.6 0.325 0  0.625 0.325 0  0.65 0.325 0  0.675 0.325 0  0.7 0.325 0  0.725 0.325 0  0.75 0.325 0  0.775 0.325 0  0.8 0.325 0  0.825 0.325 0  0.85 0.325 0  0.875 0.325 0  0.9 0.325 0  0.925 0.325 0  0.95 0.325 0  0.975 0.325 0  1 0.325 0  0 0.35 0  0.025 0.35 0  0.05 0.35 0  0.075 0.35 0  0.1 0.35 0  0.125 0.35 0  0.15 0.35 0  0.175 0.35 0  0.2 0.35 0  0.225 0.35 0  0.25 0.35 0  0.275 0.35 0  0.3 0.35 0  0.325 0.35 0  0.35 0.35 0  0.375 0.35 0  0.4 0.35 0  0.425 0.35 0  0.45 0.35 0  0.475 0.35 0  0.5 0.35 0  0.525 0.35 0  0.55 0.35 0  0.575 0.35 0  0.6 0.35 0  0.625 0.35 0  0.65 0.35 0  0.675 0.35 0  0.7 0.35 0  0.725 0.35 0  0.75 0.35 0  0.775 0.35 0  0.8 0.35 0  0.825 0.35 0  0.85 0.35 0  0.875 0.35 0  0.9 0.35 0  0.925 0.35 0  0.95 0.35 0  0.975 0.35 0  1 0.35 0  0 0.375 0  0.025 0.375 0  0.05 0.375 0  0.075 0.375 0  0.1 0.375 0  0.125 0.375 0  0.15 0.375 0  0.175 0.375 0  0.2 0.375 0  0.225 0.375 0  0.25 0.375 0  0.275 0.375 0  0.3 0.375 0  0.325 0.375 0  0.35 0.375 0  0.375 0.375 0  0.4 0.375 0  0.425 0.375 0  0.45 0.375 0  0.475 0.375 0  0.5 0.375 0  0.525 0.375 0  0.55 0.375 0  0.575 0.375 0  0.6 0.375 0  0.625 0.375 0  0.65 0.375 0  0.675 0.375 0  0.7 0.375 0  0.725 0.375 0  0.75 0.375 0  0.775 0.375 0  0.8 0.375 0  0.825 0.375 0  0.85 0.375 0  0.875 0.375 0  0.9 0.375 0  0.925 0.375 0  0.95 0.375 0  0.975 0.375 0  1 0.375 0  0 0.4 0  0.025 0.4 0  0.05 0.4 0  0.075 0.4 0  0.1 0.4 0  0.125 0.4 0  0.15 0.4 0  0.175 0.4 0  0.2 0.4 0  0.225 0.4 0  0.25 0.4 0  0.275 0.4 0  0.3 0.4 0  0.325 0.4 0  0.35 0.4 0  0.375 0.4 0  0.4 0.4 0  0.425 0.4 0  0.45 0.4 0  0.475 0.4 0  0.5 0.4 0  0.525 0.4 0  0.55 0.4 0  0.575 0.4 0  0.6 0.4 0  0.625 0.4 0  0.65 0.4 0  0.675 0.4 0  0.7 0.4 0  0.725 0.4 0  0.75 0.4 0  0.775 0.4 0  0.8 0.4 0  0.825 0.4 0  0.85 0.4 0  0.875 0.4 0  0.9 0.4 0  0.925 0.4 0  0.95 0.4 0  0.975 0.4 0  1 0.4 0  0 0.425 0  0.025 0.425 0  0.05 0.425 0  0.075 0.425 0  0.1 0.425 0  0.125 0.425 0  0.15 0.425 0  0.175 0.425 0  0.2 0.425 0  0.225 0.425 0  0.25 0.425 0  0.275 0.425 0  0.3 0.425 0  0.325 0.425 0  0.35 0.425 0  0.375 0.425 0  0.4 0.425 0  0.425 0.425 0  0.45 0.425 0  0.475 0.425 0  0.5 0.425 0  0.525 0.425 0  0.55 0.425 0  0.575 0.425 0  0.6 0.425 0  0.625 0.425 0  0.65 0.425 0  0.675 0.425 0  0.7 0.425 0  0.725 0.425 0  0.75 0.425 0  0.775 0.425 0  0.8 0.425 0  0.825 0.425 0  0.85 0.425 0  0.875 0.425 0  0.9 0.425 0  0.925 0.425 0  0.95 0.425 0  0.975 0.425 0  1 0.425 0  0 0.45 0  0.02
[...]
<PointData  Scalars="ControlVisualisation"> 
<DataArray  type="Float64"  Name="ControlVisualisation"  format="ascii">1.3439606566209644e-01  9.4835287801836199e-02  9.4822718839808903e-02  9.4876445914184981e-02  9.5058504643267788e-02  9.5390118313118527e-02  9.5846341597883605e-02  9.6377370948093039e-02  9.6932870978339303e-02  9.7474105255086069e-02  9.7975389106326555e-02  9.8421315530216325e-02  9.8803805994632649e-02  9.9120053863468421e-02  9.9371165962910304e-02  9.9561136445574391e-02  9.9695925721056788e-02  9.9782569814681546e-02  9.9828347242699372e-02  9.9840067369737856e-02  9.9823526143256569e-02  9.9783132063242685e-02  9.9721667956060051e-02  9.9640138326633487e-02  9.9537657952339959e-02  9.9411358208308570e-02  9.9256317708089375e-02  9.9065563499762532e-02  9.8830245310600320e-02  9.8540185666511390e-02  9.8185189524003735e-02  9.7757756917430771e-02  9.7258010932522024e-02  9.6700829773535127e-02  9.6122927724141438e-02  9.5584704666840214e-02  9.5158114299100455e-02  9.4900805899030161e-02  9.4819807121125782e-02  9.4840060655928371e-02  2.4131599791153918e-01  9.4833511627053627e-02  5.8399736517859208e-02  5.8429941440792388e-02  5.8588052212072805e-02  5.8985015261019999e-02  5.9692438536143123e-02  6.0727185664556746e-02  6.2062966713008302e-02  6.3644122461540928e-02  6.5395087753257614e-02  6.7226366873481228e-02  6.9041701206251152e-02  7.0749277848799974e-02  7.2274305602383543e-02  7.3567737751882689e-02  7.4608115485871762e-02  7.5397256014807290e-02  7.5952748899259931e-02  7.6300264797215578e-02  7.6467457825313667e-02  7.6479913974979996e-02  7.6358787394613686e-02  7.6119532965503667e-02  7.5771271231479698e-02  7.5316574773072895e-02  7.4751690507705845e-02  7.4067331321609614e-02  7.3250148823390954e-02  7.2284855743423512e-02  7.1156859545166970e-02  6.9855486650013440e-02  6.8378746062094348e-02  6.6741489623119099e-02  6.4987786055306002e-02  6.3204401044593475e-02  6.1525268136919387e-02  6.0113395518222153e-02  5.9114496154800272e-02  5.8575971763761010e-02  5.8401151959063619e-02  9.4839744875540255e-02  9.4793745966321008e-02  5.8390860090258082e-02  5.8554919005602807e-02  5.9046314336741380e-02  6.0051548765904836e-02  6.1742317500531760e-02  6.4306052574348502e-02  6.7911432869415006e-02  7.2756804855863610e-02  7.9200150136553085e-02  8.7683176483308090e-02  9.8409865185666787e-02  1.1108182378625098e-01  1.2490894924522661e-01  1.3884069636844326e-01  1.5184083347247840e-01  1.6307908318483824e-01  1.7200854465637694e-01  1.7835612589013172e-01  1.8206710901087331e-01  1.8323650547215362e-01  1.8204695127560727e-01  1.7872264654096984e-01  1.7350212218010369e-01  1.6662836319598839e-01  1.5835190973178287e-01  1.4894046904881669e-01  1.3868784353724234e-01  1.2791711414560192e-01  1.1697865494638365e-01  1.0624795938515663e-01  9.6121704319551096e-02  8.6989652131579415e-02  7.9158189439785379e-02  7.2754022705567647e-02  6.7705754366471221e-02  6.3867387224111963e-02  6.1148170692345252e-02  5.9442878763670035e-02  5.8555303130007064e-02  9.4809761505551621e-02  9.4734092076489140e-02  5.8384645861804634e-02  5.8884605304443408e-02  6.0295192053191497e-02  6.3042670415560192e-02  6.7382634793636542e-02  7.3307407528918955e-02  8.1584674770182844e-02  9.6370290326409758e-02  1.2515143851989760e-01  1.7327810610052136e-01  2.3862329471140795e-01  3.1240198208756181e-01  3.8439906093659876e-01  4.4726934355157066e-01  4.9764352333232437e-01  5.3512755876948348e-01  5.6086572043429761e-01  5.7648528572731750e-01  5.8351716390760955e-01  5.8313598824690782e-01  5.7606679990814813e-01  5.6256835348077383e-01  5.4245752296239935e-01  5.1518264300863659e-01  4.7999844285532905e-01  4.3634290359411082e-01  3.8452290810848438e-01  3.2664393151451937e-01  2.6720978977850235e-01  2.1228616589376348e-01  1.6685975348686283e-01  1.3243505811912459e-01  1.0749782525078116e-01  8.9853250774497212e-02  7.7803022284218371e-02  6.9871222315680520e-02  6.4682549947001608e-02  6.1241681576611251e-02  5.9021370445912533e-02  9.4833884788134454e-02  9.4715829046000899e-02  5.8536682948439361e-02  6.0780787556286867e-02  6.6761531961061327e-02  7.8255710818186094e-02  9.9698371232550709e-02  1.4909689026581421e-01  2.4767371992334358e-01  3.8203650661862909e-01  5.1496809461797588e-01  6.2266956563039155e-01  7.0083637416298261e-01  7.5440658370262359e-01  7.9000716195404663e-01  8.1309162650753697e-01  8.2749085115308763e-01  8.3575124228640318e-01  8.3955564435578744e-01  8.4002612049951486e-01  8.3790175765409391e-01  8.3363076194422436e-01  8.2741070018038743e-01  8.1919428136724048e-01  8.0866296699598494e-01  7.9515847265512429e-01  7.7755186791861941e-01  7.5402443079694748e-01  7.2175400401233025e-01  6.7661807657354223e-01  6.1342060414973421e-01  5.2798307508088815e-01  4.2267046094571115e-01  3.1229564526866710e-01  2.1875970243579190e-01  1.5363416778963079e-01  1.1304377068117126e-01  8.8565093088417687e-02  7.4081116694306476e-02  6.5492331623396169e-02  6.0106117865535776e-02  9.4966635976401981e-02  9.5620103650736032e-02  6.1138026394125231e-02  7.6278212636686882e-02  1.7569548989910533e-01  5.3921452081226118e-01  7.5106656615670431e-01  8.3097802598035897e-01  8.6464817929185001e-01  8.8110223809914801e-01  8.9057723323162563e-01  8.9713518374179058e-01  9.0231353043336238e-01  9.0651286224803485e-01  9.0969254678668543e-01  9.1172962764055865e-01  9.1257050814895579e-01  9.1226461306637618e-01  9.1094230133862475e-01  9.0877433559149512e-01  9.0593254858687711e-01  9.0256024529224765e-01  8.9875404318778618e-01  8.9455486900034209e-01  8.8994381402889922e-01  8.8483759933388972e-01  8.7907742534221356e-01  8.7240251144960812e-01  8.6439316820096768e-01  8.5435277480957694e-01  8.4106355823305257e-01  8.2228084320579076e-01  7.9371823828551702e-01  7.4725030817995464e-01  6.6904949013031445e-01  5.4344859584482064e-01  3.7675865140413389e-01  2.2191243563663499e-01  1.2830380337204730e-01  8.2686429028538552e-02  6.2794494544975890e-02  9.5177360679467943e-02  1.2087200046295239e-01  1.5432715377694406e-01  8.9492535672398621e-01  9.3676204511535477e-01  9.4605546061623758e-01  9.4926440894262842e-01  9.5180116291835637e-01  9.5422790414984826e-01  9.5532470500644096e-01  9.5416554000741216e-01  9.5127066392339465e-01  9.4795669967704788e-01  9.4517856128266675e-01  9.4314329942067032e-01  9.4158825672582069e-01  9.4015423154058064e-01  9.3858465241291023e-01  9.3676437642424359e-01  9.3468494235214072e-01  9.3239647522183988e-01  9.2997061180212581e-01  9.2747871986848873e-01  9.2498229515907349e-01  9.2253114174427309e-01  9.2016574561679321e-01  9.1792136636966248e-01  9.1583212117001234e-01  9.1393324672380838e-01  9.1225793892308416e-01  9.1082045300739822e-01  9.0956975217379454e-01  9.0829426151584691e-01  9.0647263291431290e-01  9.0310157998050111e-01  8.9646125496418250e-01  8.8318226900481767e-01  8.5309246310354525e-01  7.6040394110370746e-01  3.6884653073253237e-01  8.7024413869444747e-02  9.8193226761342844e-02  9.5836553992405982e-01  9.8399348781024054e-01  9.8749701387104249e-01  9.8620956497220091e-01  9.8301530790428182e-01  9.7849044992945278e-01  9.7314963233328833e-01  9.6813143076944008e-01  9.6475092268395835e-01  9.6315294261043749e-01  9.6225986074083303e-01  9.6111030277111742e-01  9.5952452770180441e-01  9.5773438315451931e-01  9.5593364705220740e-01  9.5416609240857697e-01  9.5239877891811786e-01  9.5059750636668072e-01  9.4875476600628339e-01  9.4688860828921240e-01  9.4503462140455663e-01  9.4324014151751578e-01  9.4156130556835249e-01  9.4006111372633239e-01  9.3880696791822915e-01  9.3786698972509608e-01  9.3730524965651607e-01  9.3717701817279842e-01  9.3752573906825321e-01  9.3838100899435040e-01  9.3974844340216612e-01  9.4157604144029960e-01  9.4371158537831856e-01  9.4594116418588536e-01  9.4813506583397744e-01  9.5008436443658806e-01  9.5061157300679588e-01  9.4784861397313980e-01  9.4163819160953810e-01  9.2696368814273200e-01  3.8689998996814923e-01  9.8994897400380688e-01  9.9386474474086151e-01  9.9200819552001973e-01  9.8981499358341696e-01  9.8771003588696382e-01  9.8560175550786289e-01  9.8345643257025916e-01  9.8050818535516016e-01  9.7652553989335333e-01  9.7250599478462196e-01  9.6941886099982200e-01  9.6736203275992760e-01  9.6591138593787040e-01  9.6466426342754785e-01  9.6341295420076600e-01  9.6208859247674428e-01  9.6068390132426451e-01  9.5921301449430729e-01  9.5769728439325141e-01  9.5616360288818147e-01  9.5464822657090265e-01  9.5320126243649261e-01  9.5188825662520948e-01  9.5078680999592058e-01  9.4997736824585255e-01  9.4952868579715155e-01  9.4948126040837322e-01  9.4983741034757263e-01  9.5057211057459778e-01  9.5167214074371032e-01  9.5317407955300815e-01  9.5512112122313464e-01  9.5740793016908587e-01  9.5970005906024514e-01  9.6161820795307063e-01  9.6292526010749380e-01  9.6403348073733697e-01  9.6722515949219623e-01  9.7336269805802500e-01  9.7667094336333027e-01  9.5406618128384424e-01  9.9552234685326391e-01  9.9735679659435528e-01  9.9597796627044000e-01  9.9382398166109109e-01  9.9148688421298148e-01  9.8860086377413126e-01  9.8591757383316347e-01  9.8415352924975652e-01  9.8242916986702944e-01  9.7969604589681192e-01  9.7630314831503984e-01  9.7311708076497638e-01  9.7062468402187163e-01  9.6884495969475037e-01  9.6756371740411817e-01  9.6654114545269765e-01  9.6559727424195785e-01  9.6461674359780958e-01  9.6353530298122825e-01  9.6233415418348645e-01  9.6103868679234650e-01  9.5971358751229319e-01  9.5845241091611033e-01  9.5736279025180637e-01  9.5654731416587857e-01  9.5607978530402016e-01  9.5598153403823538e-01  9.5621367570927185e-01  9.5671170699284580e-01  9.5747392423607358e-01  9.5863989498534530e-01  9.6039944966993773e-01  9.6268822808113597e-01  9.6506723565335706e-01  9.6717010765633527e-01  9.6920621245404970e-01  9.7221529605472279e-01  9.7715817132465577e-01  9.8272530668035540e-01  9.8587902942760985e-01  9.7674395043806406e-01  9.9631333978194825e-01  9.9795007910023414e-01  9.9688006459192924e-01  9.9506342328721054e-01  9.9309840800575133e-01  9.9036263139817693e-01  9.8725630013898347e-01  9.8493622905519795e-01  9.8395612215689487e-01  9.8285727194231187e-01  9.8053343686443861e-01  9.7738736905342405e-01  9.7427266087750575e-01  9.7176162463718019e-01  9.7002792796729853e-01  9.6895599103655983e-01  9.6828757681747690e-01  9.6773515163744839e-01  9.6705975564872304e-01  9.6612022092135419e-01  9.6488861915619117e-01  9.6343358870033546e-01  9.6188661764640015e-01  9.6040700032874127e-01  9.5915112182069995e-01  9.5824363429396464e-01  9.5775020759825580e-01  9.5766408762201716e-01  9.5793343829394517e-01  9.5854830202694663e-01  9.5963342392803030e-01  9.6137919308235542e-01  9.6373037577467247e-01  9.6623567615885464e-01  9.6852849141734254e-01  9.7086174714298124e-01  9.7413456435057777e-01  9.7892986109119640e-01  9.8424317162904751e-01  9.8794660970040005e-01  9.8175601141818547e-01  9.9432919764574257e-01  9.9756571485987411e-01  9.9640181722847543e-01  9.9464628506757991e-01  9.9283285867589299e-01  9.9026205792696520e-01  9.8719901489470396e-01  9.8460842774935065e-01  9.8360025380548477e-01  9.8330128267141048e-01  9.8196402513602410e-01  9.7933313071860473e-01  9.7619589570666643e-01  9.7334693648229620e-01  9.7126026195806137e-01  9.7004275156536912e-01  9.6947868150858718e-01  9.6916437323647198e-01  9.6868392262171454e-01  9.6775006867574742e-01  9.6626309370856955e-01  9.6429217545903378e-01  9.6201735726274828e-01  9.5967007947649541e-01  9.5748973743970012e-01  9.5569433446120255e-01  9.5445670156526208e-01  9.5388395263119097e-01  9.5401014410713791e-01  9.5481829328247880e-01  9.5628492283808830e-01  9.5837681544671283e-01  9.6092274133254274e-01  9.6351159550962018e-01  9.6575301385220391e-01  9.6777251956194810e-01  9.7061947499978363e-01  9.7556439335888079e-01  9.8136633950659491e-01  9.8553024714144499e-01  9.8014336670048441e-01  9.8567271431264891e-01  9.9455969392662491e-01  9.9381285692781463e-01  9.9223181548332362e-01  9.9062502780078754e-01  9.8820780581504486e-01  9.8533502915064686e-01  9.8293770805033787e-01  9.8200864301756563e-01  9.8196452346440344e-01  9.8113012318766035e-01  9.7897449611152165e-01  9.7612653001500571e-01  9.7337717471509555e-01  9.7128469448749488e-01  9.7006250470708355e-01  9.6952837404638459e-01  9.6920835952263251e-01  9.6856624528347257e-01  9.6721766799510123e-01  9.6502946735868900e-01  9.6209987368073790e-01  9.5867381278200658e-01  9.5505316162445197e-01  9.5153746977991727e-01  9.4840088412210388e-01  9.4589048059061265e-01  9.4422579882738567e-01  9.4358604360858211e-01  9.4408158926633456e-01  9.4571409397475292e-01  9.4833551704424357e-01  9.5162692581831299e-01  9.5512864220429883e-01  9.5828808117448094e-01  9.6039472361013312e-01  9.6113376334755352e-01  9.6310341827117818e-01  9.6930687960591588e-01  9.7528477025794846e-01  9.6416772916497706e-01  9.2423945723262568e-01  9.8318344936380908e-01  9.8625781462672280e-01  9.8643970589021557e-01  9.8559755746553535e-01  9.8360334332679200e-01  9.8125379771763355e-01  9.7947517246379812e-01  9.7887977948068516e-01  9.7889795450153849e-01  9.7825864939000595e-01  9.7652783909964913e-01  9.7418745642213056e-01  9.7189596021411739e-01  9.7013088546950332e-01  9.6905825290748415e-01  9.6846154824144126e-01  9.6783301511061204e-01  9.6661402223541271e-01  9.6443059192067948e-01  9.6120059604817587e-01  9.5709683809785040e-01  9.5242530357228605e-01  9.4749729895783319e-01  9.4255696487376506e-01  9.3778739331949401e-01  9.3337288242331939e-01  9.2956226667227881e-01  9.2667587335027835e-01  9.2502633089462893e-01  9.2476987564666990e-01  9.2576515619245725e-01  9.2758508833371944e-01  9.2983993167169476e-01  9.3273212568169228e-01  9.3703743935059125e-01  9.4208576931486909e-01  9.4342706934053366e-01  9.3649198653281707e-01  8.9385644613591919e-01  8.0801127753243529e-01  1.0798243126448226e-01  7.7749473928529766e-01  9.6660243288208225e-01  9.7531409753547516e-01  9.7569735968374816e-01  9.7499368291122868e-01  9.7407183869311986e-01  9.7353404060220594e-01  9.7359178347792719e-01  9.7380691294061827e-01  9.7345276524751778e-01  9.7231634971299008e-01  9.7072851174082186e-01  9.6913224392104003e-01  9.6782870197682136e-01  9.6686386741475305e-01  9.6598310578231605e-01  9.6472351399988399e-01  9.6262799072935779e-01  9.5944807145010602e-01  9.5521798921580892e-01  9.5017660838381424e-01  9.4459259624825864e-01  9.3858345191391890e-01  9.3201915888679765e-01  9.2456794697763678e-01  9.1587580174962879e-01  9.0579543792039163e-01  8.9453470129319368e-01  8.8260735713919503e-01  8.7053577696408002e-01  8.5834066337269976e-01  8.4490659289057068e-01  8.2726966808227065e-01  7.9964672489671573e-01  7.5123216442004037e-01  6.5921887695584014e-01  4.7454457498491343e-01  2.0359439422612607e-01  8.3227615034622976e-02  1.0529769869634478e-01  9.8100923578110594e-02  7.6767716572940584e-02  8.7761949156962238e-01  9.3962741278310602e-01  9.5452336250325487e-01  9.6028389540567372e-01  9.6325143476446107e-01  9.6497983176423840e-01  9.6615057734053911e-01  9.6695167071784560e-01  9.6721700221660711e-01  9.6688746144688786e-01  9.6612729989344692e-01  9.6515744179246343e-01  9.6411719763621695e-01  9.6298477936829396e-01  9.6155207882363158e-01  9.5950039260314934e-01  9.5655829344258425e-01  9.5263754449978100e-01  9.4784823751332381e-01  9.4236444197758740e-01  9.3617573983255531e-01  9.2879302072936254e-01  9.1898990723701313e-01  9.0465898874963813e-01  8.8283938115142968e-01  8.4994740960266824e-01  8.0227321894370496e-01  7.3691566829850574e-01  6.5331358695526454e-01  5.5493255964510735e-01  4.4962256233433362e-01  3.4745495116784036e-01  2.5731812643974139e-01  1.8476524775765774e-01  1.3163995310423010e-01  9.6457160669171982e-02  7.5389287487072187e-02  6.3544552521795708e-02  9.6358429100152368e-02  9.7582118065022136e-02  6.8421961152052596e-02  3.5416034138403030e-01  9.0071931421770179e-01  9.3756137618817870e-01  9.4884187669721565e-01  9.5414560406849225e-01  9.5661067275530554e-01  9.5806845515352179e-01  9.5923567517068054e-01  9.6006580141993114e-01  9.6038148402603318e-01  9.6013858554463205e-01  9.5939774263622812e-01  9.5823656712465455e-01  9.5667249454615233e-01  9.5462525916983265e-01  9.5195369387950624e-01  9.4854829865883428e-01  9.4440112360430273e-01  9.3957406148322320e-01  9.3402655364025744e-01  9.2729055167559127e-01  9.1798115977468320e-01  9.0314421050315763e-01  8.7754271447678056e-01  8.3332535399038921e-01  7.6134755282022448e-01  6.5635158618311940e-01  5.2589517619796167e-01  3.9338988018997617e-01  2.8380335602923273e-01  2.0603679244975429e-01  1.5430930996011846e-01  1.1990753230906094e-01  9.6884447624051601e-02  8.1656225125916609e-02  7.1828697407135142e-02  6.5759959004148147e-02  6.1491382150566459e-02  9.5852936518629361e-02  9.7380750226993093e-02  6.6237297504406795e-02  7.1844965424056911e-02  6.4850304036528361e-01  9.0399035356619584e-01  9.4188839777315936e-01  9.4717079602746312e-01  9.4730220319377845e-01  9.4778956247793844e-01  9.4910059767361932e-01  9.5051921104934523e-01  9.5140034669324680e-01  9.5145487328762912e-01  9.5067881274071708e-01  9.4920930247847168e-01  9.4719424386150708e-01  9.4471231999399230e-01  9.4176721579984446e-01  9.3833761324914178e-01  9.3442299605132528e-01  9.3001865386672911e-01  9.2496199376377153e-01  9.1857702741000846e-01  9.0900475324041774e-01  8.9212076591800793e-01  8.6022513657069211e-01  8.0174133649983059e-01  7.0533832806611130e-01  5.7188018740606938e-01  4.2531924688234685e-01  2.9979401761769225e-01  2.1164872741767787e-01  1.5552729937065718e-01  1.2018163334010021e-01  9.7541226973502232e-02  8.2867458477410838e-02  7.3302538449628252e-02  6.7210681798495708e-02  6.3660131106903689e-02  6.0992960127409047e-02  9.5712970743902670e-02  9.7322637229805525e-02  6.6040208396698136e-02  7.5526654044760944e-02  2.1902343234647215e-01  6.6140695451540243e-01  8.4741020589993987e-01  8.9745873431594980e-01  9.1495602096288953e-01  9.2402758453926281e-01  9.3044167322707338e-01  9.3503185676639233e-01  9.3766555036737309e-01  9.3837652886208478e-01  9.3750122460266139e-01  9.3552827823924334e-01  9.3291977960817940e-01  9.3000104633352776e-01  9.2694687645079554e-01  9.2384153720444040e-01  9.2075674002113972e-01  9.1778070089338193e-01  9.1492092063855501e-01  9.1176515679482362e-01  9.0672058106507225e-01  8.9564121550932030e-01  8.6998588891974704e-01  8.1604299073516262e-01  7.1971096270577961e-01  5.8111246211894385e-01  4.2719311434052931e-01  2.9571690907828979e-01  2.0438224169525174e-01  1.4767773065303214e-01  1.1348343827697480e-01  9.2607005550865346e-02  7.9562345405642831e-02  7.1280052818361306e-02  6.6157026327840457e-02  6.3298279158112397e-02  6.1038114358737829e-02  9.5757503650501397e-02  9.7231100105810514e-02  6.5877344754709827e-02  7.9911321098068047e-02  1.1217437855723231e-01  2.8931323928752040e-01  5.5631383035170745e-01  7.3405359151517180e-01  8.2064024043203188e-01  8.6414697526173434e-01  8.8857259256531063e-01  9.0265851086342208e-01  9.0986933832710659e-01  9.1222584439285648e-01  9.1139562442351330e-01  9.0883059361330953e-01  9.0567496375304257e-01  9.0271155419395543e-01  9.0040869453730932e-01  8.9904035376260016e-01  8.9882040518850281e-01  8.9998337493462977e-01  9.0273184068486878e-01  9.0693429806196679e-01  9.1139286908061368e-01  9.1245723610318130e-01  9.0196178734652444e-01  8.6555757317651683e-01  7.8539045953723896e-01  6.5322576031365909e-01  4.8890307501754732e-01  3.3538622175574972e-01  2.2371036547309381e-01  1.5510489701231284e-01  1.1587851000621990e-01  9.3400543377519282e-02  8.0059861380201963e-02  7.1880710019921301e-02  6.6887586335306864e-02  6.3987486346469141e-02  6.1423276611812239e-02  9.5895713344306327e-02  9.7097177065493229e-02  6.5569573991468566e-02  8.0072303036542308e-02  9.8975534785904623e-02  1.5111003828621458e-01  2.5776761362054701e-01  3.9707998599734817e-01  5.3160845443323446e-01  6.395351490