<?xml version="1.0"?>
<VTKFile type="UnstructuredGrid"  version="0.1"  >
<UnstructuredGrid>
<Piece  NumberOfPoints="1681" NumberOfCells="3200">
<Points>
<DataArray  type="Float64"  NumberOfComponents="3"  format="ascii">0 0 0  0.025 0 0  0.05 0 0  0.075 0 0  0.1 0 0  0.125 0 0  0.15 0 0  0.175 0 0  0.2 0 0  0.225 0 0  0.25 0 0  0.275 0 0  0.3 0 0  0.325 0 0  0.35 0 0  0.375 0 0  0.4 0 0  0.425 0 0  0.45 0 0  0.475 0 0  0.5 0 0  0.525 0 0  0.55 0 0  0.575 0 0  0.6 0 0  0.625 0 0  0.65 0 0  0.675 0 0  0.7 0 0  0.725 0 0  0.75 0 0  0.775 0 0  0.8 0 0  0.825 0 0  0.85 0 0  0.875 0 0  0.9 0 0  0.925 0 0  0.95 0 0  0.975 0 0  1 0 0  0 0.025 0  0.025 0.025 0  0.05 0.025 0  0.075 0.025 0  0.1 0.025 0  0.125 0.025 0  0.15 0.025 0  0.175 0.025 0  0.2 0.025 0  0.225 0.025 0  0.25 0.025 0  0.275 0.025 0  0.3 0.025 0  0.325 0.025 0  0.35 0.025 0  0.375 0.025 0  0.4 0.025 0  0.425 0.025 0  0.45 0.025 0  0.475 0.025 0  0.5 0.025 0  0.525 0.025 0  0.55 0.025 0  0.575 0.025 0  0.6 0.025 0  0.625 0.025 0  0.65 0.025 0  0.675 0.025 0  0.7 0.025 0  0.725 0.025 0  0.75 0.025 0  0.775 0.025 0  0.8 0.025 0  0.825 0.025 0  0.85 0.025 0  0.875 0.025 0  0.9 0.025 0  0.925 0.025 0  0.95 0.025 0  0.975 0.025 0  1 0.025 0  0 0.05 0  0.025 0.05 0  0.05 0.05 0  0.075 0.05 0  0.1 0.05 0  0.125 0.05 0  0.15 0.05 0  0.175 0.05 0  0.2 0.05 0  0.225 0.05 0  0.25 0.05 0  0.275 0.05 0  0.3 0.05 0  0.325 0.05 0  0.35 0.05 0  0.375 0.05 0  0.4 0.05 0  0.425 0.05 0  0.45 0.05 0  0.475 0.05 0  0.5 0.05 0  0.525 0.05 0  0.55 0.05 0  0.575 0.05 0  0.6 0.05 0  0.625 0.05 0  0.65 0.05 0  0.675 0.05 0  0.7 0.05 0  0.725 0.05 0  0.75 0.05 0  0.775 0.05 0  0.8 0.05 0  0.825 0.05 0  0.85 0.05 0  0.875 0.05 0  0.9 0.05 0  0.925 0.05 0  0.95 0.05 0  0.975 0.05 0  1 0.05 0  0 0.075 0  0.025 0.075 0  0.05 0.075 0  0.075 0.075 0  0.1 0.075 0  0.125 0.075 0  0.15 0.075 0  0.175 0.075 0  0.2 0.075 0  0.225 0.075 0  0.25 0.075 0  0.275 0.075 0  0.3 0.075 0  0.325 0.075 0  0.35 0.075 0  0.375 0.075 0  0.4 0.075 0  0.425 0.075 0  0.45 0.075 0  0.475 0.075 0  0.5 0.075 0  0.525 0.075 0  0.55 0.075 0  0.575 0.075 0  0.6 0.075 0  0.625 0.075 0  0.65 0.075 0  0.675 0.075 0  0.7 0.075 0  0.725 0.075 0  0.75 0.075 0  0.775 0.075 0  0.8 0.075 0  0.825 0.075 0  0.85 0.075 0  0.875 0.075 0  0.9 0.075 0  0.925 0.075 0  0.95 0.075 0  0.975 0.075 0  1 0.075 0  0 0.1 0  0.025 0.1 0  0.05 0.1 0  0.075 0.1 0  0.1 0.1 0  0.125 0.1 0  0.15 0.1 0  0.175 0.1 0  0.2 0.1 0  0.225 0.1 0  0.25 0.1 0  0.275 0.1 0  0.3 0.1 0  0.325 0.1 0  0.35 0.1 0  0.375 0.1 0  0.4 0.1 0  0.425 0.1 0  0.45 0.1 0  0.475 0.1 0  0.5 0.1 0  0.525 0.1 0  0.55 0.1 0  0.575 0.1 0  0.6 0.1 0  0.625 0.1 0  0.65 0.1 0  0.675 0.1 0  0.7 0.1 0  0.725 0.1 0  0.75 0.1 0  0.775 0.1 0  0.8 0.1 0  0.825 0.1 0  0.85 0.1 0  0.875 0.1 0  0.9 0.1 0  0.925 0.1 0  0.95 0.1 0  0.975 0.1 0  1 0.1 0  0 0.125 0  0.025 0.125 0  0.05 0.125 0  0.075 0.125 0  0.1 0.125 0  0.125 0.125 0  0.15 0.125 0  0.175 0.125 0  0.2 0.125 0  0.225 0.125 0  0.25 0.125 0  0.275 0.125 0  0.3 0.125 0  0.325 0.125 0  0.35 0.125 0  0.375 0.125 0  0.4 0.125 0  0.425 0.125 0  0.45 0.125 0  0.475 0.125 0  0.5 0.125 0  0.525 0.125 0  0.55 0.125 0  0.575 0.125 0  0.6 0.125 0  0.625 0.125 0  0.65 0.125 0  0.675 0.125 0  0.7 0.125 0  0.725 0.125 0  0.75 0.125 0  0.775 0.125 0  0.8 0.125 0  0.825 0.125 0  0.85 0.125 0  0.875 0.125 0  0.9 0.125 0  0.925 0.125 0  0.95 0.125 0  0.975 0.125 0  1 0.125 0  0 0.15 0  0.025 0.15 0  0.05 0.15 0  0.075 0.15 0  0.1 0.15 0  0.125 0.15 0  0.15 0.15 0  0.175 0.15 0  0.2 0.15 0  0.225 0.15 0  0.25 0.15 0  0.275 0.15 0  0.3 0.15 0  0.325 0.15 0  0.35 0.15 0  0.375 0.15 0  0.4 0.15 0  0.425 0.15 0  0.45 0.15 0  0.475 0.15 0  0.5 0.15 0  0.525 0.15 0  0.55 0.15 0  0.575 0.15 0  0.6 0.15 0  0.625 0.15 0  0.65 0.15 0  0.675 0.15 0  0.7 0.15 0  0.725 0.15 0  0.75 0.15 0  0.775 0.15 0  0.8 0.15 0  0.825 0.15 0  0.85 0.15 0  0.875 0.15 0  0.9 0.15 0  0.925 0.15 0  0.95 0.15 0  0.975 0.15 0  1 0.15 0  0 0.175 0  0.025 0.175 0  0.05 0.175 0  0.075 0.175 0  0.1 0.175 0  0.125 0.175 0  0.15 0.175 0  0.175 0.175 0  0.2 0.175 0  0.225 0.175 0  0.25 0.175 0  0.275 0.175 0  0.3 0.175 0  0.325 0.175 0  0.35 0.175 0  0.375 0.175 0  0.4 0.175 0  0.425 0.175 0  0.45 0.175 0  0.475 0.175 0  0.5 0.175 0  0.525 0.175 0  0.55 0.175 0  0.575 0.175 0  0.6 0.175 0  0.625 0.175 0  0.65 0.175 0  0.675 0.175 0  0.7 0.175 0  0.725 0.175 0  0.75 0.175 0  0.775 0.175 0  0.8 0.175 0  0.825 0.175 0  0.85 0.175 0  0.875 0.175 0  0.9 0.175 0  0.925 0.175 0  0.95 0.175 0  0.975 0.175 0  1 0.175 0  0 0.2 0  0.025 0.2 0  0.05 0.2 0  0.075 0.2 0  0.1 0.2 0  0.125 0.2 0  0.15 0.2 0  0.175 0.2 0  0.2 0.2 0  0.225 0.2 0  0.25 0.2 0  0.275 0.2 0  0.3 0.2 0  0.325 0.2 0  0.35 0.2 0  0.375 0.2 0  0.4 0.2 0  0.425 0.2 0  0.45 0.2 0  0.475 0.2 0  0.5 0.2 0  0.525 0.2 0  0.55 0.2 0  0.575 0.2 0  0.6 0.2 0  0.625 0.2 0  0.65 0.2 0  0.675 0.2 0  0.7 0.2 0  0.725 0.2 0  0.75 0.2 0  0.775 0.2 0  0.8 0.2 0  0.825 0.2 0  0.85 0.2 0  0.875 0.2 0  0.9 0.2 0  0.925 0.2 0  0.95 0.2 0  0.975 0.2 0  1 0.2 0  0 0.225 0  0.025 0.225 0  0.05 0.225 0  0.075 0.225 0  0.1 0.225 0  0.125 0.225 0  0.15 0.225 0  0.175 0.225 0  0.2 0.225 0  0.225 0.225 0  0.25 0.225 0  0.275 0.225 0  0.3 0.225 0  0.325 0.225 0  0.35 0.225 0  0.375 0.225 0  0.4 0.225 0  0.425 0.225 0  0.45 0.225 0  0.475 0.225 0  0.5 0.225 0  0.525 0.225 0  0.55 0.225 0  0.575 0.225 0  0.6 0.225 0  0.625 0.225 0  0.65 0.225 0  0.675 0.225 0  0.7 0.225 0  0.725 0.225 0  0.75 0.225 0  0.775 0.225 0  0.8 0.225 0  0.825 0.225 0  0.85 0.225 0  0.875 0.225 0  0.9 0.225 0  0.925 0.225 0  0.95 0.225 0  0.975 0.225 0  1 0.225 0  0 0.25 0  0.025 0.25 0  0.05 0.25 0  0.075 0.25 0  0.1 0.25 0  0.125 0.25 0  0.15 0.25 0  0.175 0.25 0  0.2 0.25 0  0.225 0.25 0  0.25 0.25 0  0.275 0.25 0  0.3 0.25 0  0.325 0.25 0  0.35 0.25 0  0.375 0.25 0  0.4 0.25 0  0.425 0.25 0  0.45 0.25 0  0.475 0.25 0  0.5 0.25 0  0.525 0.25 0  0.55 0.25 0  0.575 0.25 0  0.6 0.25 0  0.625 0.25 0  0.65 0.25 0  0.675 0.25 0  0.7 0.25 0  0.725 0.25 0  0.75 0.25 0  0.775 0.25 0  0.8 0.25 0  0.825 0.25 0  0.85 0.25 0  0.875 0.25 0  0.9 0.25 0  0.925 0.25 0  0.95 0.25 0  0.975 0.25 0  1 0.25 0  0 0.275 0  0.025 0.275 0  0.05 0.275 0  0.075 0.275 0  0.1 0.275 0  0.125 0.275 0  0.15 0.275 0  0.175 0.275 0  0.2 0.275 0  0.225 0.275 0  0.25 0.275 0  0.275 0.275 0  0.3 0.275 0  0.325 0.275 0  0.35 0.275 0  0.375 0.275 0  0.4 0.275 0  0.425 0.275 0  0.45 0.275 0  0.475 0.275 0  0.5 0.275 0  0.525 0.275 0  0.55 0.275 0  0.575 0.275 0  0.6 0.275 0  0.625 0.275 0  0.65 0.275 0  0.675 0.275 0  0.7 0.275 0  0.725 0.275 0  0.75 0.275 0  0.775 0.275 0  0.8 0.275 0  0.825 0.275 0  0.85 0.275 0  0.875 0.275 0  0.9 0.275 0  0.925 0.275 0  0.95 0.275 0  0.975 0.275 0  1 0.275 0  0 0.3 0  0.025 0.3 0  0.05 0.3 0  0.075 0.3 0  0.1 0.3 0  0.125 0.3 0  0.15 0.3 0  0.175 0.3 0  0.2 0.3 0  0.225 0.3 0  0.25 0.3 0  0.275 0.3 0  0.3 0.3 0  0.325 0.3 0  0.35 0.3 0  0.375 0.3 0  0.4 0.3 0  0.425 0.3 0  0.45 0.3 0  0.475 0.3 0  0.5 0.3 0  0.525 0.3 0  0.55 0.3 0  0.575 0.3 0  0.6 0.3 0  0.625 0.3 0  0.65 0.3 0  0.675 0.3 0  0.7 0.3 0  0.725 0.3 0  0.75 0.3 0  0.775 0.3 0  0.8 0.3 0  0.825 0.3 0  0.85 0.3 0  0.875 0.3 0  0.9 0.3 0  0.925 0.3 0  0.95 0.3 0  0.975 0.3 0  1 0.3 0  0 0.325 0  0.025 0.325 0  0.05 0.325 0  0.075 0.325 0  0.1 0.325 0  0.125 0.325 0  0.15 0.325 0  0.175 0.325 0  0.2 0.325 0  0.225 0.325 0  0.25 0.325 0  0.275 0.325 0  0.3 0.325 0  0.325 0.325 0  0.35 0.325 0  0.375 0.325 0  0.4 0.325 0  0.425 0.325 0  0.45 0.325 0  0.475 0.325 0  0.5 0.325 0  0.525 0.325 0  0.55 0.325 0  0.575 0.325 0  0.6 0.325 0  0.625 0.325 0  0.65 0.325 0  0.675 0.325 0  0.7 0.325 0  0.725 0.325 0  0.75 0.325 0  0.775 0.325 0  0.8 0.325 0  0.825 0.325 0  0.85 0.325 0  0.875 0.325 0  0.9 0.325 0  0.925 0.325 0  0.95 0.325 0  0.975 0.325 0  1 0.325 0  0 0.35 0  0.025 0.35 0  0.05 0.35 0  0.075 0.35 0  0.1 0.35 0  0.125 0.35 0  0.15 0.35 0  0.175 0.35 0  0.2 0.35 0  0.225 0.35 0  0.25 0.35 0  0.275 0.35 0  0.3 0.35 0  0.325 0.35 0  0.35 0.35 0  0.375 0.35 0  0.4 0.35 0  0.425 0.35 0  0.45 0.35 0  0.475 0.35 0  0.5 0.35 0  0.525 0.35 0  0.55 0.35 0  0.575 0.35 0  0.6 0.35 0  0.625 0.35 0  0.65 0.35 0  0.675 0.35 0  0.7 0.35 0  0.725 0.35 0  0.75 0.35 0  0.775 0.35 0  0.8 0.35 0  0.825 0.35 0  0.85 0.35 0  0.875 0.35 0  0.9 0.35 0  0.925 0.35 0  0.95 0.35 0  0.975 0.35 0  1 0.35 0  0 0.375 0  0.025 0.375 0  0.05 0.375 0  0.075 0.375 0  0.1 0.375 0  0.125 0.375 0  0.15 0.375 0  0.175 0.375 0  0.2 0.375 0  0.225 0.375 0  0.25 0.375 0  0.275 0.375 0  0.3 0.375 0  0.325 0.375 0  0.35 0.375 0  0.375 0.375 0  0.4 0.375 0  0.425 0.375 0  0.45 0.375 0  0.475 0.375 0  0.5 0.375 0  0.525 0.375 0  0.55 0.375 0  0.575 0.375 0  0.6 0.375 0  0.625 0.375 0  0.65 0.375 0  0.675 0.375 0  0.7 0.375 0  0.725 0.375 0  0.75 0.375 0  0.775 0.375 0  0.8 0.375 0  0.825 0.375 0  0.85 0.375 0  0.875 0.375 0  0.9 0.375 0  0.925 0.375 0  0.95 0.375 0  0.975 0.375 0  1 0.375 0  0 0.4 0  0.025 0.4 0  0.05 0.4 0  0.075 0.4 0  0.1 0.4 0  0.125 0.4 0  0.15 0.4 0  0.175 0.4 0  0.2 0.4 0  0.225 0.4 0  0.25 0.4 0  0.275 0.4 0  0.3 0.4 0  0.325 0.4 0  0.35 0.4 0  0.375 0.4 0  0.4 0.4 0  0.425 0.4 0  0.45 0.4 0  0.475 0.4 0  0.5 0.4 0  0.525 0.4 0  0.55 0.4 0  0.575 0.4 0  0.6 0.4 0  0.625 0.4 0  0.65 0.4 0  0.675 0.4 0  0.7 0.4 0  0.725 0.4 0  0.75 0.4 0  0.775 0.4 0  0.8 0.4 0  0.825 0.4 0  0.85 0.4 0  0.875 0.4 0  0.9 0.4 0  0.925 0.4 0  0.95 0.4 0  0.975 0.4 0  1 0.4 0  0 0.425 0  0.025 0.425 0  0.05 0.425 0  0.075 0.425 0  0.1 0.425 0  0.125 0.425 0  0.15 0.425 0  0.175 0.425 0  0.2 0.425 0  0.225 0.425 0  0.25 0.425 0  0.275 0.425 0  0.3 0.425 0  0.325 0.425 0  0.35 0.425 0  0.375 0.425 0  0.4 0.425 0  0.425 0.425 0  0.45 0.425 0  0.475 0.425 0  0.5 0.425 0  0.525 0.425 0  0.55 0.425 0  0.575 0.425 0  0.6 0.425 0  0.625 0.425 0  0.65 0.425 0  0.675 0.425 0  0.7 0.425 0  0.725 0.425 0  0.75 0.425 0  0.775 0.425 0  0.8 0.425 0  0.825 0.425 0  0.85 0.425 0  0.875 0.425 0  0.9 0.425 0  0.925 0.425 0  0.95 0.425 0  0.975 0.425 0  1 0.425 0  0 0.45 0  0.02
[...]
<PointData  Scalars="ControlVisualisation"> 
<DataArray  type="Float64"  Name="ControlVisualisation"  format="ascii">2.0198010287115101e-01  1.3732092297079013e-01  1.3730401599977796e-01  1.3751457945222004e-01  1.3806378236267827e-01  1.3891939750989610e-01  1.3995836752787802e-01  1.4103477881942106e-01  1.4203058924916431e-01  1.4287538316073722e-01  1.4354374628462929e-01  1.4404288863869105e-01  1.4439883878893151e-01  1.4464492594012948e-01  1.4481367016331650e-01  1.4493199427164599e-01  1.4501914782714984e-01  1.4508655230803666e-01  1.4513879242989500e-01  1.4517511351374549e-01  1.4519097738874046e-01  1.4517942720736024e-01  1.4513217521400940e-01  1.4504043435078523e-01  1.4489555885181807e-01  1.4468954732641201e-01  1.4441541073971123e-01  1.4406734708344360e-01  1.4364064456299591e-01  1.4313134298599695e-01  1.4253601216522110e-01  1.4185257428572287e-01  1.4108385024258746e-01  1.4024536814043867e-01  1.3937712222398732e-01  1.3855462160189541e-01  1.3788338435562239e-01  1.3746526867828585e-01  1.3732749309963749e-01  1.3735380052222276e-01  3.2368551967294396e-01  1.3731604184633087e-01  8.8724144422667572e-02  8.8900750784644614e-02  8.9459863828656713e-02  9.0550912045464713e-02  9.2171566001348446e-02  9.4213430617730520e-02  9.6503549486718021e-02  9.8828959438935174e-02  1.0097741669149687e-01  1.0278608990371441e-01  1.0417217692412445e-01  1.0513495120391245e-01  1.0573598595828920e-01  1.0606989516725288e-01  1.0623596908964997e-01  1.0631699448244486e-01  1.0636760069694820e-01  1.0641144057216620e-01  1.0644477207717667e-01  1.0644356943728825e-01  1.0637180233542207e-01  1.0618943830546229e-01  1.0585956402098556e-01  1.0535449263955002e-01  1.0466073179800670e-01  1.0378229765098057e-01  1.0274129384155301e-01  1.0157433116453288e-01  1.0032384083849621e-01  9.9025191875209084e-02  9.7693888828799064e-02  9.6320812280900614e-02  9.4884382439634471e-02  9.3383926364144595e-02  9.1882870071747835e-02  9.0528126039963047e-02  8.9508960675317883e-02  8.8933791138092119e-02  8.8731656912273221e-02  1.3735325546579025e-01  1.3723992455501147e-01  8.8871231296784967e-02  8.9756947901448517e-02  9.1608501135205023e-02  9.4825143246898197e-02  9.9964008018352285e-02  1.0781857357029784e-01  1.1904636877947278e-01  1.3355777835125260e-01  1.5040416465683329e-01  1.6822516263911028e-01  1.8576069620222016e-01  2.0211259873104517e-01  2.1676747016686532e-01  2.2950192516203949e-01  2.4026285282069967e-01  2.4906783623343684e-01  2.5593963540748604e-01  2.6087221997055882e-01  2.6381926845657599e-01  2.6469578415125283e-01  2.6338649846009066e-01  2.5975867149415094e-01  2.5368035367451636e-01  2.4504752839361460e-01  2.3382448884059198e-01  2.2010068277866157e-01  2.0416262506276273e-01  1.8656889846111127e-01  1.6819801584945732e-01  1.5021686308208979e-01  1.3391143188850896e-01  1.2036526468315326e-01  1.1008906025497228e-01  1.0283458847437410e-01  9.7800191636469691e-02  9.4170705318583625e-02  9.1543051066252074e-02  8.9823526159452063e-02  8.8906617265761087e-02  1.3731025335227856e-01  1.3723830754387056e-01  8.9372872674921486e-02  9.1787023113057226e-02  9.6306018718939887e-02  1.0461445751966197e-01  1.2003071581434421e-01  1.4635664324708078e-01  1.8493679437734914e-01  2.3310181095742119e-01  2.8579632863270826e-01  3.3801542087870556e-01  3.8607912778722170e-01  4.2785246094608353e-01  4.6252399374404213e-01  4.9023186367251664e-01  5.1164824099851747e-01  5.2761863408481291e-01  5.3892073641743210e-01  5.4614585256267445e-01  5.4966562715016398e-01  5.4964143430210999e-01  5.4604673507595891e-01  5.3868787279848407e-01  5.2722006161587176e-01  5.1116318277021522e-01  4.8992920356219466e-01  4.6288258106318392e-01  4.2946851347943371e-01  3.8945716878023562e-01  3.4334490089088177e-01  2.9287614246597876e-01  2.4144392160582084e-01  1.9384492133152351e-01  1.5490900933747301e-01  1.2735272229778066e-01  1.1044392747169179e-01  1.0091261565790230e-01  9.5323802292619983e-02  9.1701752375316622e-02  8.9392986138543185e-02  1.3735492886421313e-01  1.3744570818935967e-01  9.0641127670542762e-02  9.7845147311410807e-02  1.1669790503598734e-01  1.5962074137079615e-01  2.3177600482684171e-01  3.2325825829166877e-01  4.1711012086024429e-01  5.0103722303651588e-01  5.7007916958839444e-01  6.2379822309941102e-01  6.6375467559367629e-01  6.9231654603524784e-01  7.1206524526037929e-01  7.2537195157564471e-01  7.3413051066919977e-01  7.3967762686928085e-01  7.4284925509434785e-01  7.4409193964357856e-01  7.4357151784667064e-01  7.4125443196622975e-01  7.3695754434551963e-01  7.3037060174989588e-01  7.2105687861272882e-01  7.0843647132279031e-01  6.9175592712148093e-01  6.7004968800867748e-01  6.4210673949694885e-01  6.0647612640955861e-01  5.6158668148918212e-01  5.0612224177438092e-01  4.3984812339858254e-01  3.6496262546466546e-01  2.8745398818193041e-01  2.1676617975165099e-01  1.6211583305500243e-01  1.2692185790625038e-01  1.0727255545616715e-01  9.6620174439479178e-02  9.0571017769495166e-02  1.3758560258930183e-01  1.3872352873314195e-01  9.6460790904992599e-02  1.5229140749053816e-01  3.8116973919382580e-01  6.3072706691907487e-01  7.7437741157695295e-01  8.4387687043062398e-01  8.7548550561390948e-01  8.8775843033212709e-01  8.8970591542841171e-01  8.8617379705758825e-01  8.8007603840161552e-01  8.7323765642631779e-01  8.6673583929547959e-01  8.6109830529614106e-01  8.5647019491525989e-01  8.5275814941505246e-01  8.4973934578100707e-01  8.4713251499248909e-01  8.4463753961920918e-01  8.4195300889745495e-01  8.3877963438149805e-01  8.3481476671585475e-01  8.2974080124464800e-01  8.2320829449471722e-01  8.1481302880705309e-01  8.0406493023175973e-01  7.9034556969885872e-01  7.7284981737188385e-01  7.5050579841145515e-01  7.2186580867420846e-01  6.8496562581487574e-01  6.3718051656371322e-01  5.7525478921749384e-01  4.9602139580323612e-01  3.9906680530039845e-01  2.9108738786035571e-01  1.9006872296799110e-01  1.2055536602027195e-01  9.3682780410180827e-02  1.3788374407050030e-01  1.8596128526284411e-01  3.1870035907420335e-01  8.9931141848303886e-01  9.2787448520106031e-01  9.3442391649513168e-01  9.3941066525725692e-01  9.4725281871075018e-01  9.5667640743922577e-01  9.6362737879110272e-01  9.6482386219985750e-01  9.5995781590685270e-01  9.5106563614258544e-01  9.4070303443253711e-01  9.3076177547577921e-01  9.2222231207310390e-01  9.1537648560528107e-01  9.1012531679082154e-01  9.0619730297095047e-01  9.0327281971007856e-01  9.0104343472150328e-01  8.9923495903444217e-01  8.9761282675750087e-01  8.9597967709719817e-01  8.9416972887623558e-01  8.9204185497805444e-01  8.8947231006701244e-01  8.8634850696329570e-01  8.8256704709383205e-01  8.7804193782998807e-01  8.7273030294452825e-01  8.6667725442397581e-01  8.6005911615981867e-01  8.5315181967532672e-01  8.4606109955929520e-01  8.3784596807123168e-01  8.2429215967212788e-01  7.9182628333510330e-01  7.0031088189943425e-01  4.3416379165502350e-01  1.2563282232715681e-01  1.4248115462502894e-01  9.4532367857409716e-01  9.8989126269214978e-01  9.9348337067064940e-01  9.9080923121236530e-01  9.8429487546657257e-01  9.7460533197061927e-01  9.6347870990644569e-01  9.5446458808083712e-01  9.5068391983124434e-01  9.5151426758443181e-01  9.5355762229906516e-01  9.5409702899222060e-01  9.5251245246077865e-01  9.4952021730685399e-01  9.4609875023284307e-01  9.4294846747855066e-01  9.4040509223061186e-01  9.3853976965286112e-01  9.3728187751675107e-01  9.3650749239238240e-01  9.3608944103200709e-01  9.3592009768897255e-01  9.3591747309972262e-01  9.3602086153868602e-01  9.3617900451681080e-01  9.3633282537878726e-01  9.3639707395654592e-01  9.3625139437751725e-01  9.3576057085695696e-01  9.3484979461864359e-01  9.3364722495943475e-01  9.3264889007082274e-01  9.3275761514907074e-01  9.3496127941241169e-01  9.3945560775974268e-01  9.4434031067231494e-01  9.4517985938217441e-01  9.3903772564355159e-01  9.3183904054705524e-01  9.2215489398720119e-01  4.1416766050049364e-01  9.8697430240895578e-01  9.9250341084726890e-01  9.8937792302964445e-01  9.8579826947416194e-01  9.8301517093381130e-01  9.8083270464864769e-01  9.7889216349031205e-01  9.7479408569287851e-01  9.6776229706444927e-01  9.6066395423803175e-01  9.5611233406325236e-01  9.5421264317242627e-01  9.5384335686160748e-01  9.5410119750431910e-01  9.5463126229223094e-01  9.5538515546506131e-01  9.5636504871840955e-01  9.5752211777369101e-01  9.5876594040919538e-01  9.6000649126235071e-01  9.6118465600852387e-01  9.6228067820054886e-01  9.6330407547972585e-01  9.6426973435964403e-01  9.6516265747715824e-01  9.6589421918389384e-01  9.6625933283695575e-01  9.6591879282816295e-01  9.6445173640991788e-01  9.6153235241469981e-01  9.5723847073409418e-01  9.5234567904255407e-01  9.4824888545931174e-01  9.4618075510629174e-01  9.4602974823715735e-01  9.4617461741327158e-01  9.4649918684175049e-01  9.5197989784943848e-01  9.6429828991571775e-01  9.6823822027038753e-01  9.3401000923729360e-01  9.9589181208117805e-01  9.9775594660142641e-01  9.9548881971086811e-01  9.9161410115356041e-01  9.8794944319489997e-01  9.8353358761637022e-01  9.8011128180325191e-01  9.7913908549612461e-01  9.7818183129213876e-01  9.7412814493777444e-01  9.6776954753528199e-01  9.6181793220920453e-01  9.5805704920633694e-01  9.5690063652008628e-01  9.5798863120697242e-01  9.6069000194429921e-01  9.6433438304063002e-01  9.6831076991758414e-01  9.7213207915718447e-01  9.7547675326159899e-01  9.7819427592769514e-01  9.8027569411856053e-01  9.8180136837692134e-01  9.8287646862450662e-01  9.8355879127385282e-01  9.8378253015854655e-01  9.8329148655986487e-01  9.8161890062845902e-01  9.7818378401299688e-01  9.7258515682286040e-01  9.6509086287733004e-01  9.5705864324787282e-01  9.5071907294378888e-01  9.4794393821741663e-01  9.4881018746766854e-01  9.5203061450919912e-01  9.5782314532659496e-01  9.6697269676315178e-01  9.7646799008555774e-01  9.8000995695766879e-01  9.6854665477888935e-01  9.9712015885855054e-01  9.9853443849994294e-01  9.9682274368075774e-01  9.9352702273710802e-01  9.9056098813948845e-01  9.8621225712563365e-01  9.8157395834881001e-01  9.7899216704951675e-01  9.7968993353703782e-01  9.8010127511190825e-01  9.7671734906228846e-01  9.7030125815691148e-01  9.6392106118511489e-01  9.6011871766833168e-01  9.5988426904037050e-01  9.6288402226136816e-01  9.6806207262099919e-01  9.7417570702660661e-01  9.8014821097139981e-01  9.8524205617733607e-01  9.8908945333948262e-01  9.9163171535164540e-01  9.9301641972215093e-01  9.9348387485623724e-01  9.9325516448454376e-01  9.9242475903523852e-01  9.9086720751568791e-01  9.8819228089067734e-01  9.8382195626335411e-01  9.7728632440052055e-01  9.6876208797349195e-01  9.5960394824647444e-01  9.5224180087479027e-01  9.4892495574649594e-01  9.5003495277151051e-01  9.5416853693536696e-01  9.6066430347335463e-01  9.6923044960617954e-01  9.7794247826355674e-01  9.8297550008823298e-01  9.7634506339791371e-01  9.9361956707353094e-01  9.9812389286824366e-01  9.9609489521908701e-01  9.9286638171960795e-01  9.9014103985226787e-01  9.8600720759015581e-01  9.8133155280953799e-01  9.7793958939540115e-01  9.7818257377589835e-01  9.8038326202038084e-01  9.7979373597564290e-01  9.7474246012314214e-01  9.6770572636126007e-01  9.6230359060324577e-01  9.6084791768397548e-01  9.6368992530342901e-01  9.6972901207924922e-01  9.7725561686779783e-01  9.8463925511867778e-01  9.9070601945734560e-01  9.9484020716895250e-01  9.9691422651906869e-01  9.9714619713763142e-01  9.9594747145531604e-01  9.9378432853700005e-01  9.9105539838545698e-01  9.8798276146732134e-01  9.8452965448437690e-01  9.8038922422384034e-01  9.7512312454654992e-01  9.6851652113105424e-01  9.6106491824250029e-01  9.5419551544195891e-01  9.4967780055265294e-01  9.4836375471213596e-01  9.4987430461729561e-01  9.5469682232266850e-01  9.6389211199934588e-01  9.7384225315624695e-01  9.7946601785163911e-01  9.7485428512049677e-01  9.8027660545394224e-01  9.9337421483804811e-01  9.9221878471140645e-01  9.8911818734619461e-01  9.8657917412495844e-01  9.8260565821787016e-01  9.7819108712835823e-01  9.7502193409737559e-01  9.7503903649937818e-01  9.7733048368207309e-01  9.7770924917561242e-01  9.7379249606884155e-01  9.6732249422588779e-01  9.6195652127204045e-01  9.6049112430086081e-01  9.6365099274185562e-01  9.7034781238814927e-01  9.7859745400813458e-01  9.8640090581416107e-01  9.9227232122238351e-01  9.9540602285747037e-01  9.9561175383323985e-01  9.9315459237868708e-01  9.8858719604496437e-01  9.8261024642930517e-01  9.7596372041599055e-01  9.6933842816914106e-01  9.6329897286183375e-01  9.5822130182694087e-01  9.5426605863399583e-01  9.5142157973743391e-01  9.4962733868496230e-01  9.4888717898363029e-01  9.4912403145751967e-01  9.4956868998261124e-01  9.4832014364841011e-01  9.4482688704766926e-01  9.4574410862213243e-01  9.5687951823719564e-01  9.6698365315049872e-01  9.5007600108278067e-01  9.1794582688862469e-01  9.8091517430973241e-01  9.8271078875640794e-01  9.8129824097393148e-01  9.7909931876620448e-01  9.7529441588569588e-01  9.7152548226257784e-01  9.6922912557744001e-01  9.6938649131983035e-01  9.7101142906191051e-01  9.7104200481725045e-01  9.6776860847830004e-01  9.6267058861081967e-01  9.5885015614255109e-01  9.5871995900356310e-01  9.6282733855526215e-01  9.6998665734909140e-01  9.7811042964013284e-01  9.8507864870241346e-01  9.8928675337809024e-01  9.8983031955820144e-01  9.8644858755224685e-01  9.7936884288777293e-01  9.6914671510189598e-01  9.5654399340902518e-01  9.4245008818795983e-01  9.2783716619629009e-01  9.1373557705816078e-01  9.0121855024110653e-01  8.9138782682222351e-01  8.8535018655943865e-01  8.8416465481127715e-01  8.8871942150701377e-01  8.9945970138202014e-01  9.1579189580443443e-01  9.3477201592169623e-01  9.4912378081432924e-01  9.4953531306000727e-01  9.3754982531261599e-01  8.8603799809087813e-01  7.3621366013489464e-01  1.6398930916208354e-01  8.0133914055936251e-01  9.6615634024206454e-01  9.7008652663625095e-01  9.6566785273316025e-01  9.6223906353229582e-01  9.6011256562332581e-01  9.5934001121219026e-01  9.5981328996361426e-01  9.6067206505291003e-01  9.6026142991070529e-01  9.5795048827473950e-01  9.5505841909293432e-01  9.5378261774219186e-01  9.5565080492746757e-01  9.6071499922201742e-01  9.6767062642804302e-01  9.7451134076285184e-01  9.7923166196948697e-01  9.8028166909461945e-01  9.7672365059646560e-01  9.6818338853370389e-01  9.5471453772712089e-01  9.3665977234060260e-01  9.1454793615648211e-01  8.8903482057739280e-01  8.6087882513139524e-01  8.3093665549859419e-01  8.0016302525133765e-01  7.6959805152360816e-01  7.4032321879257235e-01  7.1335698914851575e-01  6.8943660873322632e-01  6.6857493565744097e-01  6.4913562667880709e-01  6.2575133744659750e-01  5.8448854601668765e-01  4.9285491939891818e-01  3.0253283363255457e-01  1.2420667639929150e-01  1.5585322773215884e-01  1.4573678190343589e-01  1.6464628339192455e-01  8.9293782400156263e-01  9.2831315781996471e-01  9.3827666063337933e-01  9.4218357593307145e-01  9.4475655338437303e-01  9.4628924358510169e-01  9.4711012304306275e-01  9.4751039447054008e-01  9.4726241366813035e-01  9.4645970451580130e-01  9.4602152697468844e-01  9.4713883938099819e-01  9.5043295086990198e-01  9.5551358914464535e-01  9.6108309991040852e-01  9.6538024906660858e-01  9.6666307535343787e-01  9.6352918558301259e-01  9.5502767757280771e-01  9.4061957251076678e-01  9.2007012661239918e-01  8.9333759243225308e-01  8.6049320752104919e-01  8.2168369101348604e-01  7.7713334794252176e-01  7.2717494265583071e-01  6.7229336386079797e-01  6.1316281287480712e-01  5.5065974375299886e-01  4.8584696924659743e-01  4.1995678969825834e-01  3.5444546616965855e-01  2.9118236545917942e-01  2.3262137904447217e-01  1.8145291190832913e-01  1.3974944852844143e-01  1.0977848581893920e-01  9.3913143108613192e-02  1.3915296961720008e-01  1.4463733746510166e-01  1.2094944517709022e-01  5.9314512312784951e-01  9.2273633954811840e-01  9.3819727853284718e-01  9.4112917080375480e-01  9.4173139963221397e-01  9.3990750754639718e-01  9.3739155017407982e-01  9.3547985559378877e-01  9.3438685103602293e-01  9.3405901114668566e-01  9.3470298850753430e-01  9.3660731028434230e-01  9.3972093578231630e-01  9.4340407495931278e-01  9.4647732646570737e-01  9.4747768146899514e-01  9.4495118195829708e-01  9.3765419924920179e-01  9.2462448820675391e-01  9.0515085700907538e-01  8.7869517599523750e-01  8.4481618677917525e-01  8.0313136797449003e-01  7.5334284689472031e-01  6.9534785450682479e-01  6.2944743883849763e-01  5.5664661590769149e-01  4.7898945455686737e-01  3.9978889730264167e-01  3.2352763993231476e-01  2.5521661272200230e-01  1.9920081038631640e-01  1.5776879277366757e-01  1.3024967028172565e-01  1.1334694740578946e-01  1.0292996245217390e-01  9.6023972277480774e-02  9.1109714147957599e-02  1.3832747090406750e-01  1.4369756414268359e-01  1.1041044014411303e-01  3.1848497143299892e-01  7.5406170206439305e-01  9.4752821142223842e-01  9.7375613919686788e-01  9.6101439873832084e-01  9.4386522455585775e-01  9.3044384328350471e-01  9.2179435143468691e-01  9.1691893385101830e-01  9.1466287285740755e-01  9.1425256798542498e-01  9.1517290969154541e-01  9.1686521168196977e-01  9.1852292792453938e-01  9.1907169420463353e-01  9.1728689291626386e-01  9.1194871173725667e-01  9.0195341522343897e-01  8.8634992712198568e-01  8.6431415725563987e-01  8.3509532684461685e-01  7.9797432823688397e-01  7.5227509027464334e-01  6.9747277923394446e-01  6.3344405104999579e-01  5.6088525993805805e-01  4.8184687463080011e-01  4.0016335115761714e-01  3.2135325270780879e-01  2.5157235952481427e-01  1.9572463024238432e-01  1.5567804931100410e-01  1.2979646329126429e-01  1.1415420562903414e-01  1.0461947702795231e-01  9.8453868219640056e-02  9.4330000853644291e-02  9.0878388136845983e-02  1.3801731036825440e-01  1.4307411803330072e-01  1.0604296911028460e-01  2.1757324056842486e-01  4.8025737779074429e-01  7.3638408278758405e-01  8.7052097205760859e-01  9.0579820440515868e-01  9.0145401399938607e-01  8.8940769018305155e-01  8.7964940603965613e-01  8.7373469159779427e-01  8.7098999124429355e-01  8.7046871174730001e-01  8.7133600553308366e-01  8.7279967557435334e-01  8.7399713390602707e-01  8.7396225926386062e-01  8.7166930451853153e-01  8.6610377402473526e-01  8.5631344416566668e-01  8.4141838432989602e-01  8.2058477738465607e-01  7.9298430800555431e-01  7.5777073465646949e-01  7.1411405504997227e-01  6.6134372879014225e-01  5.9925843245911348e-01  5.2863218209018870e-01  4.5183166783318901e-01  3.7322280073793490e-01  2.9881196455572900e-01  2.3473543759522761e-01  1.8507002084903584e-01  1.5035861844770726e-01  1.2796782277545452e-01  1.1393978779299405e-01  1.0493067870673652e-01  9.9035437877065549e-02  9.5193007341143276e-02  9.1482115836697922e-02  1.3802057572311172e-01  1.4247976449487862e-01  1.0301637196217261e-01  1.7166125425824882e-01  3.1535207929582798e-01  4.7990833059616234e-01  6.1471821659840908e-01  6.9861447293948920e-01  7.4066119313364476e-01  7.5973378096693911e-01  7.6927089409480442e-01  7.7575725754534852e-01  7.8165798033108602e-01  7.8765902841581081e-01  7.9371940092136706e-01  7.9947012176162102e-01  8.0435390843362353e-01  8.0769336640113198e-01  8.0874882654201141e-01  8.0676805187138134e-01  8.0101454581387588e-01  7.9076687555814851e-01  7.7529293093671470e-01  7.5381310216111419e-01  7.2547475248476179e-01  6.8937048027663339e-01  6.4464720478714366e-01  5.9076737379987199e-01  5.2797386108185274e-01  4.5792283017618057e-01  3.8422752872504079e-01  3.1237304405455690e-01  2.4848744025065483e-01  1.9721109176437407e-01  1.5997017197612548e-01  1.3497022674447087e-01  1.1882019293582893e-01  1.0840147751133640e-01  1.0171393353093572e-01  9.7360600591437418e-02  9.2602998304984765e-02  1.3824598494006693e-01  1.4189165658938602e-01  1.0064097872004533e-01  1.4631808541220837e-01  2.2803504019356594e-01  3.1840997384443032e-01  4.0121604387113136e-01  4.6992914072706521e-01  5.2354076561378005e-01  5.644572357