<?xml version="1.0"?>
<VTKFile type="UnstructuredGrid"  version="0.1"  >
<UnstructuredGrid>
<Piece  NumberOfPoints="1681" NumberOfCells="3200">
<Points>
<DataArray  type="Float64"  NumberOfComponents="3"  format="ascii">0 0 0  0.025 0 0  0.05 0 0  0.075 0 0  0.1 0 0  0.125 0 0  0.15 0 0  0.175 0 0  0.2 0 0  0.225 0 0  0.25 0 0  0.275 0 0  0.3 0 0  0.325 0 0  0.35 0 0  0.375 0 0  0.4 0 0  0.425 0 0  0.45 0 0  0.475 0 0  0.5 0 0  0.525 0 0  0.55 0 0  0.575 0 0  0.6 0 0  0.625 0 0  0.65 0 0  0.675 0 0  0.7 0 0  0.725 0 0  0.75 0 0  0.775 0 0  0.8 0 0  0.825 0 0  0.85 0 0  0.875 0 0  0.9 0 0  0.925 0 0  0.95 0 0  0.975 0 0  1 0 0  0 0.025 0  0.025 0.025 0  0.05 0.025 0  0.075 0.025 0  0.1 0.025 0  0.125 0.025 0  0.15 0.025 0  0.175 0.025 0  0.2 0.025 0  0.225 0.025 0  0.25 0.025 0  0.275 0.025 0  0.3 0.025 0  0.325 0.025 0  0.35 0.025 0  0.375 0.025 0  0.4 0.025 0  0.425 0.025 0  0.45 0.025 0  0.475 0.025 0  0.5 0.025 0  0.525 0.025 0  0.55 0.025 0  0.575 0.025 0  0.6 0.025 0  0.625 0.025 0  0.65 0.025 0  0.675 0.025 0  0.7 0.025 0  0.725 0.025 0  0.75 0.025 0  0.775 0.025 0  0.8 0.025 0  0.825 0.025 0  0.85 0.025 0  0.875 0.025 0  0.9 0.025 0  0.925 0.025 0  0.95 0.025 0  0.975 0.025 0  1 0.025 0  0 0.05 0  0.025 0.05 0  0.05 0.05 0  0.075 0.05 0  0.1 0.05 0  0.125 0.05 0  0.15 0.05 0  0.175 0.05 0  0.2 0.05 0  0.225 0.05 0  0.25 0.05 0  0.275 0.05 0  0.3 0.05 0  0.325 0.05 0  0.35 0.05 0  0.375 0.05 0  0.4 0.05 0  0.425 0.05 0  0.45 0.05 0  0.475 0.05 0  0.5 0.05 0  0.525 0.05 0  0.55 0.05 0  0.575 0.05 0  0.6 0.05 0  0.625 0.05 0  0.65 0.05 0  0.675 0.05 0  0.7 0.05 0  0.725 0.05 0  0.75 0.05 0  0.775 0.05 0  0.8 0.05 0  0.825 0.05 0  0.85 0.05 0  0.875 0.05 0  0.9 0.05 0  0.925 0.05 0  0.95 0.05 0  0.975 0.05 0  1 0.05 0  0 0.075 0  0.025 0.075 0  0.05 0.075 0  0.075 0.075 0  0.1 0.075 0  0.125 0.075 0  0.15 0.075 0  0.175 0.075 0  0.2 0.075 0  0.225 0.075 0  0.25 0.075 0  0.275 0.075 0  0.3 0.075 0  0.325 0.075 0  0.35 0.075 0  0.375 0.075 0  0.4 0.075 0  0.425 0.075 0  0.45 0.075 0  0.475 0.075 0  0.5 0.075 0  0.525 0.075 0  0.55 0.075 0  0.575 0.075 0  0.6 0.075 0  0.625 0.075 0  0.65 0.075 0  0.675 0.075 0  0.7 0.075 0  0.725 0.075 0  0.75 0.075 0  0.775 0.075 0  0.8 0.075 0  0.825 0.075 0  0.85 0.075 0  0.875 0.075 0  0.9 0.075 0  0.925 0.075 0  0.95 0.075 0  0.975 0.075 0  1 0.075 0  0 0.1 0  0.025 0.1 0  0.05 0.1 0  0.075 0.1 0  0.1 0.1 0  0.125 0.1 0  0.15 0.1 0  0.175 0.1 0  0.2 0.1 0  0.225 0.1 0  0.25 0.1 0  0.275 0.1 0  0.3 0.1 0  0.325 0.1 0  0.35 0.1 0  0.375 0.1 0  0.4 0.1 0  0.425 0.1 0  0.45 0.1 0  0.475 0.1 0  0.5 0.1 0  0.525 0.1 0  0.55 0.1 0  0.575 0.1 0  0.6 0.1 0  0.625 0.1 0  0.65 0.1 0  0.675 0.1 0  0.7 0.1 0  0.725 0.1 0  0.75 0.1 0  0.775 0.1 0  0.8 0.1 0  0.825 0.1 0  0.85 0.1 0  0.875 0.1 0  0.9 0.1 0  0.925 0.1 0  0.95 0.1 0  0.975 0.1 0  1 0.1 0  0 0.125 0  0.025 0.125 0  0.05 0.125 0  0.075 0.125 0  0.1 0.125 0  0.125 0.125 0  0.15 0.125 0  0.175 0.125 0  0.2 0.125 0  0.225 0.125 0  0.25 0.125 0  0.275 0.125 0  0.3 0.125 0  0.325 0.125 0  0.35 0.125 0  0.375 0.125 0  0.4 0.125 0  0.425 0.125 0  0.45 0.125 0  0.475 0.125 0  0.5 0.125 0  0.525 0.125 0  0.55 0.125 0  0.575 0.125 0  0.6 0.125 0  0.625 0.125 0  0.65 0.125 0  0.675 0.125 0  0.7 0.125 0  0.725 0.125 0  0.75 0.125 0  0.775 0.125 0  0.8 0.125 0  0.825 0.125 0  0.85 0.125 0  0.875 0.125 0  0.9 0.125 0  0.925 0.125 0  0.95 0.125 0  0.975 0.125 0  1 0.125 0  0 0.15 0  0.025 0.15 0  0.05 0.15 0  0.075 0.15 0  0.1 0.15 0  0.125 0.15 0  0.15 0.15 0  0.175 0.15 0  0.2 0.15 0  0.225 0.15 0  0.25 0.15 0  0.275 0.15 0  0.3 0.15 0  0.325 0.15 0  0.35 0.15 0  0.375 0.15 0  0.4 0.15 0  0.425 0.15 0  0.45 0.15 0  0.475 0.15 0  0.5 0.15 0  0.525 0.15 0  0.55 0.15 0  0.575 0.15 0  0.6 0.15 0  0.625 0.15 0  0.65 0.15 0  0.675 0.15 0  0.7 0.15 0  0.725 0.15 0  0.75 0.15 0  0.775 0.15 0  0.8 0.15 0  0.825 0.15 0  0.85 0.15 0  0.875 0.15 0  0.9 0.15 0  0.925 0.15 0  0.95 0.15 0  0.975 0.15 0  1 0.15 0  0 0.175 0  0.025 0.175 0  0.05 0.175 0  0.075 0.175 0  0.1 0.175 0  0.125 0.175 0  0.15 0.175 0  0.175 0.175 0  0.2 0.175 0  0.225 0.175 0  0.25 0.175 0  0.275 0.175 0  0.3 0.175 0  0.325 0.175 0  0.35 0.175 0  0.375 0.175 0  0.4 0.175 0  0.425 0.175 0  0.45 0.175 0  0.475 0.175 0  0.5 0.175 0  0.525 0.175 0  0.55 0.175 0  0.575 0.175 0  0.6 0.175 0  0.625 0.175 0  0.65 0.175 0  0.675 0.175 0  0.7 0.175 0  0.725 0.175 0  0.75 0.175 0  0.775 0.175 0  0.8 0.175 0  0.825 0.175 0  0.85 0.175 0  0.875 0.175 0  0.9 0.175 0  0.925 0.175 0  0.95 0.175 0  0.975 0.175 0  1 0.175 0  0 0.2 0  0.025 0.2 0  0.05 0.2 0  0.075 0.2 0  0.1 0.2 0  0.125 0.2 0  0.15 0.2 0  0.175 0.2 0  0.2 0.2 0  0.225 0.2 0  0.25 0.2 0  0.275 0.2 0  0.3 0.2 0  0.325 0.2 0  0.35 0.2 0  0.375 0.2 0  0.4 0.2 0  0.425 0.2 0  0.45 0.2 0  0.475 0.2 0  0.5 0.2 0  0.525 0.2 0  0.55 0.2 0  0.575 0.2 0  0.6 0.2 0  0.625 0.2 0  0.65 0.2 0  0.675 0.2 0  0.7 0.2 0  0.725 0.2 0  0.75 0.2 0  0.775 0.2 0  0.8 0.2 0  0.825 0.2 0  0.85 0.2 0  0.875 0.2 0  0.9 0.2 0  0.925 0.2 0  0.95 0.2 0  0.975 0.2 0  1 0.2 0  0 0.225 0  0.025 0.225 0  0.05 0.225 0  0.075 0.225 0  0.1 0.225 0  0.125 0.225 0  0.15 0.225 0  0.175 0.225 0  0.2 0.225 0  0.225 0.225 0  0.25 0.225 0  0.275 0.225 0  0.3 0.225 0  0.325 0.225 0  0.35 0.225 0  0.375 0.225 0  0.4 0.225 0  0.425 0.225 0  0.45 0.225 0  0.475 0.225 0  0.5 0.225 0  0.525 0.225 0  0.55 0.225 0  0.575 0.225 0  0.6 0.225 0  0.625 0.225 0  0.65 0.225 0  0.675 0.225 0  0.7 0.225 0  0.725 0.225 0  0.75 0.225 0  0.775 0.225 0  0.8 0.225 0  0.825 0.225 0  0.85 0.225 0  0.875 0.225 0  0.9 0.225 0  0.925 0.225 0  0.95 0.225 0  0.975 0.225 0  1 0.225 0  0 0.25 0  0.025 0.25 0  0.05 0.25 0  0.075 0.25 0  0.1 0.25 0  0.125 0.25 0  0.15 0.25 0  0.175 0.25 0  0.2 0.25 0  0.225 0.25 0  0.25 0.25 0  0.275 0.25 0  0.3 0.25 0  0.325 0.25 0  0.35 0.25 0  0.375 0.25 0  0.4 0.25 0  0.425 0.25 0  0.45 0.25 0  0.475 0.25 0  0.5 0.25 0  0.525 0.25 0  0.55 0.25 0  0.575 0.25 0  0.6 0.25 0  0.625 0.25 0  0.65 0.25 0  0.675 0.25 0  0.7 0.25 0  0.725 0.25 0  0.75 0.25 0  0.775 0.25 0  0.8 0.25 0  0.825 0.25 0  0.85 0.25 0  0.875 0.25 0  0.9 0.25 0  0.925 0.25 0  0.95 0.25 0  0.975 0.25 0  1 0.25 0  0 0.275 0  0.025 0.275 0  0.05 0.275 0  0.075 0.275 0  0.1 0.275 0  0.125 0.275 0  0.15 0.275 0  0.175 0.275 0  0.2 0.275 0  0.225 0.275 0  0.25 0.275 0  0.275 0.275 0  0.3 0.275 0  0.325 0.275 0  0.35 0.275 0  0.375 0.275 0  0.4 0.275 0  0.425 0.275 0  0.45 0.275 0  0.475 0.275 0  0.5 0.275 0  0.525 0.275 0  0.55 0.275 0  0.575 0.275 0  0.6 0.275 0  0.625 0.275 0  0.65 0.275 0  0.675 0.275 0  0.7 0.275 0  0.725 0.275 0  0.75 0.275 0  0.775 0.275 0  0.8 0.275 0  0.825 0.275 0  0.85 0.275 0  0.875 0.275 0  0.9 0.275 0  0.925 0.275 0  0.95 0.275 0  0.975 0.275 0  1 0.275 0  0 0.3 0  0.025 0.3 0  0.05 0.3 0  0.075 0.3 0  0.1 0.3 0  0.125 0.3 0  0.15 0.3 0  0.175 0.3 0  0.2 0.3 0  0.225 0.3 0  0.25 0.3 0  0.275 0.3 0  0.3 0.3 0  0.325 0.3 0  0.35 0.3 0  0.375 0.3 0  0.4 0.3 0  0.425 0.3 0  0.45 0.3 0  0.475 0.3 0  0.5 0.3 0  0.525 0.3 0  0.55 0.3 0  0.575 0.3 0  0.6 0.3 0  0.625 0.3 0  0.65 0.3 0  0.675 0.3 0  0.7 0.3 0  0.725 0.3 0  0.75 0.3 0  0.775 0.3 0  0.8 0.3 0  0.825 0.3 0  0.85 0.3 0  0.875 0.3 0  0.9 0.3 0  0.925 0.3 0  0.95 0.3 0  0.975 0.3 0  1 0.3 0  0 0.325 0  0.025 0.325 0  0.05 0.325 0  0.075 0.325 0  0.1 0.325 0  0.125 0.325 0  0.15 0.325 0  0.175 0.325 0  0.2 0.325 0  0.225 0.325 0  0.25 0.325 0  0.275 0.325 0  0.3 0.325 0  0.325 0.325 0  0.35 0.325 0  0.375 0.325 0  0.4 0.325 0  0.425 0.325 0  0.45 0.325 0  0.475 0.325 0  0.5 0.325 0  0.525 0.325 0  0.55 0.325 0  0.575 0.325 0  0.6 0.325 0  0.625 0.325 0  0.65 0.325 0  0.675 0.325 0  0.7 0.325 0  0.725 0.325 0  0.75 0.325 0  0.775 0.325 0  0.8 0.325 0  0.825 0.325 0  0.85 0.325 0  0.875 0.325 0  0.9 0.325 0  0.925 0.325 0  0.95 0.325 0  0.975 0.325 0  1 0.325 0  0 0.35 0  0.025 0.35 0  0.05 0.35 0  0.075 0.35 0  0.1 0.35 0  0.125 0.35 0  0.15 0.35 0  0.175 0.35 0  0.2 0.35 0  0.225 0.35 0  0.25 0.35 0  0.275 0.35 0  0.3 0.35 0  0.325 0.35 0  0.35 0.35 0  0.375 0.35 0  0.4 0.35 0  0.425 0.35 0  0.45 0.35 0  0.475 0.35 0  0.5 0.35 0  0.525 0.35 0  0.55 0.35 0  0.575 0.35 0  0.6 0.35 0  0.625 0.35 0  0.65 0.35 0  0.675 0.35 0  0.7 0.35 0  0.725 0.35 0  0.75 0.35 0  0.775 0.35 0  0.8 0.35 0  0.825 0.35 0  0.85 0.35 0  0.875 0.35 0  0.9 0.35 0  0.925 0.35 0  0.95 0.35 0  0.975 0.35 0  1 0.35 0  0 0.375 0  0.025 0.375 0  0.05 0.375 0  0.075 0.375 0  0.1 0.375 0  0.125 0.375 0  0.15 0.375 0  0.175 0.375 0  0.2 0.375 0  0.225 0.375 0  0.25 0.375 0  0.275 0.375 0  0.3 0.375 0  0.325 0.375 0  0.35 0.375 0  0.375 0.375 0  0.4 0.375 0  0.425 0.375 0  0.45 0.375 0  0.475 0.375 0  0.5 0.375 0  0.525 0.375 0  0.55 0.375 0  0.575 0.375 0  0.6 0.375 0  0.625 0.375 0  0.65 0.375 0  0.675 0.375 0  0.7 0.375 0  0.725 0.375 0  0.75 0.375 0  0.775 0.375 0  0.8 0.375 0  0.825 0.375 0  0.85 0.375 0  0.875 0.375 0  0.9 0.375 0  0.925 0.375 0  0.95 0.375 0  0.975 0.375 0  1 0.375 0  0 0.4 0  0.025 0.4 0  0.05 0.4 0  0.075 0.4 0  0.1 0.4 0  0.125 0.4 0  0.15 0.4 0  0.175 0.4 0  0.2 0.4 0  0.225 0.4 0  0.25 0.4 0  0.275 0.4 0  0.3 0.4 0  0.325 0.4 0  0.35 0.4 0  0.375 0.4 0  0.4 0.4 0  0.425 0.4 0  0.45 0.4 0  0.475 0.4 0  0.5 0.4 0  0.525 0.4 0  0.55 0.4 0  0.575 0.4 0  0.6 0.4 0  0.625 0.4 0  0.65 0.4 0  0.675 0.4 0  0.7 0.4 0  0.725 0.4 0  0.75 0.4 0  0.775 0.4 0  0.8 0.4 0  0.825 0.4 0  0.85 0.4 0  0.875 0.4 0  0.9 0.4 0  0.925 0.4 0  0.95 0.4 0  0.975 0.4 0  1 0.4 0  0 0.425 0  0.025 0.425 0  0.05 0.425 0  0.075 0.425 0  0.1 0.425 0  0.125 0.425 0  0.15 0.425 0  0.175 0.425 0  0.2 0.425 0  0.225 0.425 0  0.25 0.425 0  0.275 0.425 0  0.3 0.425 0  0.325 0.425 0  0.35 0.425 0  0.375 0.425 0  0.4 0.425 0  0.425 0.425 0  0.45 0.425 0  0.475 0.425 0  0.5 0.425 0  0.525 0.425 0  0.55 0.425 0  0.575 0.425 0  0.6 0.425 0  0.625 0.425 0  0.65 0.425 0  0.675 0.425 0  0.7 0.425 0  0.725 0.425 0  0.75 0.425 0  0.775 0.425 0  0.8 0.425 0  0.825 0.425 0  0.85 0.425 0  0.875 0.425 0  0.9 0.425 0  0.925 0.425 0  0.95 0.425 0  0.975 0.425 0  1 0.425 0  0 0.45 0  0.02
[...]
<PointData  Scalars="ControlVisualisation"> 
<DataArray  type="Float64"  Name="ControlVisualisation"  format="ascii">4.3661656170571034e-01  3.2326390568907987e-01  3.2323634216077668e-01  3.2346532494385816e-01  3.2413069576226972e-01  3.2526006014110931e-01  3.2674883496934748e-01  3.2843619590821194e-01  3.3017342616150303e-01  3.3185245218301329e-01  3.3340488856886830e-01  3.3479109824927378e-01  3.3599072719354744e-01  3.3699690368830859e-01  3.3781271457006073e-01  3.3844865166984622e-01  3.3892035044159086e-01  3.3924634946007814e-01  3.3944589515790802e-01  3.3953697327587318e-01  3.3953473124567646e-01  3.3945033784708506e-01  3.3929021072703047e-01  3.3905548736100433e-01  3.3874162894350229e-01  3.3833811405296277e-01  3.3782828352492011e-01  3.3718953443737132e-01  3.3639423297680082e-01  3.3541197749892365e-01  3.3421427575954354e-01  3.3278325905014311e-01  3.3112643758623000e-01  3.2929730248196831e-01  3.2741566591465487e-01  3.2567341696956253e-01  3.2429791985455303e-01  3.2347122226853969e-01  3.2321361674906213e-01  3.2328284941439228e-01  6.1525936551423177e-01  3.2325720045505790e-01  1.8604317340662507e-01  1.8634374768426021e-01  1.8744087064329362e-01  1.8981172009448533e-01  1.9362473356255727e-01  1.9874215270482609e-01  2.0486176709896076e-01  2.1163965496101911e-01  2.1875109609295149e-01  2.2590354496525727e-01  2.3283350753984261e-01  2.3930913058641068e-01  2.4514106889375220e-01  2.5019416100236969e-01  2.5439328220018625e-01  2.5772083288999004e-01  2.6020653090353080e-01  2.6191221550266613e-01  2.6291518513836154e-01  2.6329310326175059e-01  2.6311219761126847e-01  2.6241912706533094e-01  2.6123605287901353e-01  2.5955826804531390e-01  2.5735406408894462e-01  2.5456711241204255e-01  2.5112227163293921e-01  2.4693614772602079e-01  2.4193379001077425e-01  2.3607260404562741e-01  2.2937442099694641e-01  2.2196561385216701e-01  2.1411861551373845e-01  2.0627933975053647e-01  1.9904987412876030e-01  1.9309085206924020e-01  1.8894156401966009e-01  1.8673102462089189e-01  1.8602424943924531e-01  3.2328186380042656e-01  3.2313615471244728e-01  1.8619520876506596e-01  1.8769998362843188e-01  1.9131752495439103e-01  1.9798222031066903e-01  2.0822530058773192e-01  2.2225408296084154e-01  2.4016036025126569e-01  2.6203678880605630e-01  2.8795442097508295e-01  3.1769972157105303e-01  3.5041710615389587e-01  3.8450889874189520e-01  4.1793476948081765e-01  4.4872542459551168e-01  4.7541795852114171e-01  4.9723535487063275e-01  5.1401054069448093e-01  5.2596698415298548e-01  5.3348122526319053e-01  5.3690526234146141e-01  5.3647051327376616e-01  5.3226081161021688e-01  5.2423304846657326e-01  5.1226980233368236e-01  4.9625649999819726e-01  4.7617812223923695e-01  4.5222347959708764e-01  4.2487086098687921e-01  3.9491945800482425e-01  3.6344458616768471e-01  3.3169392938298331e-01  3.0096137003378631e-01  2.7245845303131022e-01  2.4720571159639948e-01  2.2598000860137996e-01  2.0935046688045450e-01  1.9760573550763888e-01  1.9036087480800551e-01  1.8665424539275025e-01  3.2318212969248505e-01  3.2299549189463250e-01  1.8676925629790578e-01  1.9127270022137227e-01  2.0065316997832902e-01  2.1623882103268960e-01  2.3920854855803877e-01  2.7112733957364299e-01  3.1501678217777446e-01  3.7547545902841145e-01  4.5350528534355572e-01  5.3554867393113703e-01  5.9113263756048162e-01  5.9426975423090034e-01  5.4990493977955801e-01  4.8750173971464011e-01  4.3282851356447294e-01  3.9550308571866111e-01  3.7436099756493496e-01  3.6509840952439726e-01  3.6405095449597291e-01  3.6914398757671524e-01  3.7978308730748872e-01  3.9653381842265611e-01  4.2077444376149625e-01  4.5414307546661947e-01  4.9733834511122560e-01  5.4775469522712661e-01  5.9626635124073446e-01  6.2627014966975680e-01  6.2064574506094217e-01  5.7552141592632511e-01  5.0526426393501345e-01  4.3015866610229814e-01  3.6312704982665100e-01  3.0843436585434192e-01  2.6614529757930672e-01  2.3495660660312639e-01  2.1298872647433742e-01  1.9811016082098384e-01  1.8862277501332858e-01  3.2326115885714435e-01  3.2302261681515787e-01  1.8879393212994505e-01  2.0411887073481944e-01  2.3495203130846268e-01  2.8738158430491745e-01  3.6897881652043191e-01  4.7790883672368134e-01  5.4424925430648941e-01  4.5920559479440121e-01  3.0027470314344229e-01  2.2659135118771406e-01  2.4617978198542945e-01  3.0141461121139801e-01  3.5708932960333073e-01  4.0168128483426779e-01  4.3378692637726013e-01  4.5499006392198155e-01  4.6732774481357953e-01  4.7256979207077032e-01  4.7207750813509186e-01  4.6681770839971970e-01  4.5740719535353380e-01  4.4416138536551558e-01  4.2715800497637668e-01  4.0635995296381439e-01  3.8190896824631526e-01  3.5485623076660666e-01  3.2889398822189159e-01  3.1387749383194435e-01  3.3013667300712352e-01  4.0241794718607926e-01  5.1883392315720978e-01  5.9235699976779110e-01  5.5823182827207130e-01  4.6344963048907417e-01  3.7044803501761331e-01  2.9987548272899039e-01  2.5050724277183056e-01  2.1644953246642085e-01  1.9328587825852092e-01  3.2370252145920403e-01  3.2522585293984407e-01  2.0334341537522260e-01  2.8377186738737137e-01  5.0144557073306084e-01  1.4999897828855696e-01  1.7155716462672088e-01  3.4848286586854155e-01  4.5306722471998656e-01  5.1685559247782387e-01  5.6046441130678215e-01  5.9257276918601254e-01  6.1689756781001215e-01  6.3513634238332006e-01  6.4818568163019030e-01  6.5666232011098602e-01  6.6110820888015576e-01  6.6205169115285489e-01  6.6000796024994657e-01  6.5545774448055893e-01  6.4882162655442244e-01  6.4043693115317002e-01  6.3053867830177845e-01  6.1924313560356814e-01  6.0653076996231958e-01  5.9222403532992374e-01  5.7595372455525917e-01  5.5710489926041284e-01  5.3472933854327342e-01  5.0740894317131446e-01  4.7307464724969739e-01  4.2892897243983619e-01  3.7230969235839034e-01  3.0603208621940026e-01  2.5869128514387146e-01  3.1664256858132223e-01  4.9930890786922844e-01  5.3257682853954424e-01  3.9888878570801933e-01  2.7729873117441528e-01  2.0455172760002510e-01  3.2434895826983340e-01  3.9543991535826989e-01  4.6393427330624992e-01  5.6593302483348729e-01  7.5850820286364751e-01  7.9803618082459138e-01  8.0666480057959000e-01  8.0547819651513453e-01  8.0065123023543683e-01  7.9435356043540373e-01  7.8758413684370110e-01  7.8123532007890562e-01  7.7594736737804049e-01  7.7175007967532649e-01  7.6814702478147534e-01  7.6448139442981988e-01  7.6023058792857179e-01  7.5511041817881797e-01  7.4905007571102078e-01  7.4212374530487912e-01  7.3448679547589857e-01  7.2633081909757435e-01  7.1785614941435794e-01  7.0925653302241831e-01  7.0071146156392161e-01  6.9238336067877970e-01  6.8441765648325936e-01  6.7694294512729880e-01  6.7006556355640212e-01  6.6384716706140257e-01  6.5824545893701691e-01  6.5299010964837345e-01  6.4736514676372270e-01  6.3987693284371017e-01  6.2778539196583605e-01  6.0625117980496834e-01  5.6589226245585622e-01  4.8320629369818291e-01  3.0094647290571658e-01  4.7840573736123321e-01  2.8436607290027460e-01  3.3320209718047972e-01  8.5404315001993303e-01  9.1789701553364256e-01  9.3307926892402315e-01  9.3184951240177838e-01  9.2484674392076804e-01  9.1407492005396374e-01  9.0072237473880690e-01  8.8633446216377765e-01  8.7285195603290389e-01  8.6131405952460294e-01  8.5145355509792520e-01  8.4264210360535063e-01  8.3452020316943842e-01  8.2690053127481333e-01  8.1957842612927512e-01  8.1232678527112068e-01  8.0496922500032486e-01  7.9742061774038853e-01  7.8968341654830188e-01  7.8182860991463943e-01  7.7398146376437615e-01  7.6631565463156814e-01  7.5905149485938939e-01  7.5245375788522462e-01  7.4682707832065676e-01  7.4250811134595462e-01  7.3985195353233379e-01  7.3920654325875013e-01  7.4086566996938008e-01  7.4499266891436655e-01  7.5151701757884926e-01  7.6002958200939130e-01  7.6974743081098584e-01  7.7966532172744629e-01  7.8888650488997336e-01  7.9663426743296561e-01  8.0116242430713058e-01  7.9886791970061966e-01  7.7895810227541018e-01  7.0696824015323012e-01  5.0388368886872092e-01  9.6355846647702448e-01  9.7643381763312775e-01  9.7087485293517906e-01  9.6351133814709966e-01  9.5510881732327968e-01  9.4587429598356398e-01  9.3602545296970852e-01  9.2488247823863368e-01  9.1227444700601723e-01  8.9942300412771903e-01  8.8763225561340087e-01  8.7727193809759774e-01  8.6801610801353124e-01  8.5939573180765882e-01  8.5106044673573433e-01  8.4280999211047258e-01  8.3455828668050880e-01  8.2629356043003988e-01  8.1804929902536649e-01  8.0989342703094347e-01  8.0193621753671918e-01  7.9434838243333117e-01  7.8737729026134273e-01  7.8135210372340913e-01  7.7667388387533121e-01  7.7378996148053103e-01  7.7315127678326112e-01  7.7514998448262329e-01  7.8003927833900877e-01  7.8784979627552576e-01  7.9832196166635150e-01  8.1085810992665475e-01  8.2451967815463689e-01  8.3821365714407081e-01  8.5115295566253479e-01  8.6321158922593499e-01  8.7521921144348902e-01  8.8954287863522896e-01  9.0558324176243798e-01  9.1932094898905425e-01  8.4696980407926981e-01  9.8007301400761282e-01  9.8790586016406123e-01  9.8351819716775180e-01  9.7692836606967537e-01  9.6883035154904884e-01  9.5919405923792278e-01  9.4921980617514523e-01  9.3998179670808868e-01  9.3068981272534779e-01  9.2028628940834589e-01  9.0916795552198004e-01  8.9827239055811403e-01  8.8811523111263457e-01  8.7869614782596661e-01  8.6976311496332337e-01  8.6105430540271044e-01  8.5240308928353647e-01  8.4373997985866678e-01  8.3506398088438671e-01  8.2642842658292981e-01  8.1794984557887673e-01  8.0982903374199333e-01  8.0236925301164286e-01  7.9597913279921617e-01  7.9115304164951328e-01  7.8842676837591807e-01  7.8830938391914451e-01  7.9119581615617518e-01  7.9727644917619800e-01  8.0647531327578714e-01  8.1842931989081713e-01  8.3245296174662653e-01  8.4747869779830931e-01  8.6226761082380166e-01  8.7612353713485558e-01  8.8949824053007431e-01  9.0404840995761837e-01  9.2110612135196823e-01  9.3831792369455702e-01  9.5142225212876352e-01  9.1887851587050884e-01  9.8263274157362746e-01  9.9017495098494768e-01  9.8664317682702329e-01  9.8101571452738379e-01  9.7391100721069490e-01  9.6496636639038968e-01  9.5496946960219931e-01  9.4561640671233871e-01  9.3773753180569408e-01  9.2981207706992353e-01  9.2059977697514150e-01  9.1041846483547739e-01  9.0006732010298207e-01  8.9006678006723827e-01  8.8055261466181434e-01  8.7141196087405348e-01  8.6244277916498346e-01  8.5345669079762509e-01  8.4433353091489638e-01  8.3505516916889067e-01  8.2572808093960637e-01  8.1659438949901553e-01  8.0803075048020179e-01  8.0053273473975839e-01  7.9468029739403767e-01  7.9108206712416596e-01  7.9030091653484102e-01  7.9276713843530644e-01  7.9869265051833527e-01  8.0801135929765966e-01  8.2035570699447635e-01  8.3501277186294875e-01  8.5084349791457037e-01  8.6648894334895521e-01  8.8115778753888430e-01  8.9528756299293644e-01  9.1042838403441895e-01  9.2758933559681589e-01  9.4468849447134673e-01  9.5810997681355559e-01  9.3381132175603987e-01  9.7715759612097797e-01  9.8852559745085433e-01  9.8501886918443293e-01  9.7968385711598505e-01  9.7308295084628971e-01  9.6474538843312918e-01  9.5522916890599974e-01  9.4602023895519816e-01  9.3862379118738626e-01  9.3213008374447692e-01  9.2456021104407682e-01  9.1545470686104202e-01  9.0547673587568722e-01  8.9534017445336500e-01  8.8546597713153385e-01  8.7595781671240480e-01  8.6666559695717127e-01  8.5731088270511147e-01  8.4763468954074805e-01  8.3751608532607635e-01  8.2703035444238793e-01  8.1644956353711473e-01  8.0620962802688534e-01  7.9686572850580872e-01  7.8904472499154188e-01  7.8339533450307020e-01  7.8053669132750125e-01  7.8100335687273914e-01  7.8517599911019498e-01  7.9318720109465291e-01  8.0481235500858705e-01  8.1937232989700926e-01  8.3569760837404761e-01  8.5233419669585597e-01  8.6818708864491168e-01  8.8325790942541915e-01  8.9896332478838503e-01  9.1688036542354145e-01  9.3517800375503179e-01  9.5021134274041574e-01  9.2675762575478426e-01  9.5128953783353798e-01  9.7909954618952777e-01  9.7653494938275986e-01  9.7205658913915760e-01  9.6627905411461990e-01  9.5871628294682765e-01  9.5002966474506834e-01  9.4161556558842419e-01  9.3486291208087047e-01  9.2918041625408843e-01  9.2263671105725487e-01  9.1443879056067801e-01  9.0504660716721907e-01  8.9515142803932712e-01  8.8525172378841843e-01  8.7555659318400347e-01  8.6595601425936586e-01  8.5611515581878828e-01  8.4567075573404127e-01  8.3441592407318965e-01  8.2238969216402502e-01  8.0986531283955976e-01  7.9728274536842503e-01  7.8517686751003557e-01  7.7413092846031584e-01  7.6475902248242933e-01  7.5770701438264021e-01  7.5365445350959459e-01  7.5328447103123508e-01  7.5717080291527905e-01  7.6555826424258400e-01  7.7811307250387185e-01  7.9382167850193297e-01  8.1119440101892926e-01  8.2870723095345256e-01  8.4516310760681279e-01  8.6028230425066021e-01  8.7651320793328735e-01  8.9618667841970767e-01  9.1289370255631497e-01  8.7787660217366204e-01  7.0399331660512432e-01  9.3460511697700865e-01  9.4995779612490039e-01  9.5280965369610138e-01  9.5059859429794724e-01  9.4524151547148494e-01  9.3841670714165981e-01  9.3168363150407318e-01  9.2608809731533381e-01  9.2110105558491095e-01  9.1523347536304189e-01  9.0780292609946434e-01  8.9912113198166843e-01  8.8974654593576885e-01  8.8010415629565653e-01  8.7036862965225070e-01  8.6040825774796004e-01  8.4985673394615813e-01  8.3830933088735438e-01  8.2551999507941720e-01  8.1149133731376955e-01  7.9643910380866667e-01  7.8068618354103991e-01  7.6456671026844347e-01  7.4840171933310740e-01  7.3255903769753217e-01  7.1756159210943338e-01  7.0418987265875699e-01  6.9352098516143823e-01  6.8681605558113734e-01  6.8516310196965824e-01  6.8894658268473929e-01  6.9748939769833906e-01  7.0926850868222702e-01  7.2271308874180362e-01  7.3672734652424843e-01  7.4919255334719936e-01  7.5388270832905091e-01  7.3506732984510237e-01  5.8713549772416640e-01  3.9453941726327829e-01  3.6367687901052748e-01  2.2685207735071555e-01  8.6307806626037697e-01  9.0939202351311932e-01  9.1929561168458696e-01  9.2035008793332906e-01  9.1794221773279572e-01  9.1443363693254498e-01  9.1084603131034392e-01  9.0695880377098903e-01  9.0195355827781065e-01  8.9546047775995685e-01  8.8769406605377965e-01  8.7902890662154365e-01  8.6974092111668388e-01  8.5990866778883102e-01  8.4936989267956264e-01  8.3777728509955030e-01  8.2475423958500882e-01  8.1005078304552125e-01  7.9359432413415743e-01  7.7540216216138502e-01  7.5540569283547943e-01  7.3329294648076737e-01  7.0848432550859752e-01  6.8029522696480837e-01  6.4822552618588547e-01  6.1223916552565583e-01  5.7294260731013313e-01  5.3162971494973355e-01  4.9002329195524352e-01  4.4945863449032825e-01  4.0965841041549456e-01  3.6765551362929894e-01  3.1749425805197468e-01  2.5351875585319167e-01  1.9662118523032507e-01  3.1334039344251452e-01  4.8961300479265568e-01  2.7446948446313585e-01  3.5462595376824496e-01  3.3447194587311319e-01  2.9395665407903016e-01  4.7520412561689468e-01  7.9572226163297566e-01  8.5624949499487846e-01  8.7678307991942250e-01  8.8472190843049492e-01  8.8730359286460136e-01  8.8724636527736489e-01  8.8546226132164352e-01  8.8199474389270538e-01  8.7682929639778617e-01  8.7013817218746448e-01  8.6214951042077859e-01  8.5302799159407661e-01  8.4281177895078097e-01  8.3137568563688125e-01  8.1845493676822123e-01  8.0373453381563265e-01  7.8693168987088480e-01  7.6777450531279667e-01  7.4582199126975557e-01  7.2014564135379366e-01  6.8897859315630272e-01  6.4952353214876879e-01  5.9818211216770067e-01  5.3154048678139199e-01  4.4862122766019097e-01  3.5530401573601739e-01  2.7137076308384478e-01  2.3426937422250538e-01  2.8011796037446918e-01  3.9655587444591656e-01  5.0693805638597011e-01  5.3773063525164089e-01  4.8647360859830324e-01  3.9896785608245089e-01  3.1505539232706270e-01  2.5057850155250061e-01  2.0613469690909425e-01  3.2730026860004308e-01  3.3263859929534817e-01  2.4261134058321404e-01  6.0118332260060081e-01  5.2808368123547678e-01  7.4783246232717426e-01  8.1052782661743672e-01  8.3637163102028167e-01  8.4797532403997034e-01  8.5304145530461073e-01  8.5452842434634280e-01  8.5337534249496039e-01  8.4988435963318021e-01  8.4426479736744175e-01  8.3672670515119751e-01  8.2745692638597979e-01  8.1657053841997862e-01  8.0405774083511761e-01  7.8976318058320671e-01  7.7340751455535250e-01  7.5459952165561128e-01  7.3274840995111012e-01  7.0678859040787856e-01  6.7466838060063705e-01  6.3265934542345281e-01  5.7485416263656808e-01  4.9417739040243402e-01  3.8888238766342209e-01  2.8238583333594652e-01  2.4954509656969476e-01  3.6266526309279162e-01  5.2877829451471192e-01  5.8710183121138937e-01  5.4033499263068852e-01  4.5995068870808486e-01  3.8288732393193786e-01  3.1936202782470829e-01  2.7082965926267477e-01  2.3615081221919704e-01  2.1298427615807625e-01  1.9640218644012492e-01  3.2588574036754747e-01  3.3169217902783921e-01  2.2809423733193551e-01  4.3186881580312386e-01  1.2012708084994572e-01  5.1987430102195997e-01  6.9909243986152603e-01  7.6021908652339831e-01  7.8680664864429706e-01  8.0034178087396080e-01  8.0744034977399459e-01  8.1016375569982424e-01  8.0922914531977208e-01  8.0505751380187196e-01  7.9804588140740618e-01  7.8858721855446245e-01  7.7701012430155347e-01  7.6350019692993043e-01  7.4804672372917502e-01  7.3043007654036651e-01  7.1021538361815661e-01  6.8666562998503311e-01  6.5844297109272454e-01  6.2294911956339050e-01  5.7525749318399355e-01  5.0716259841120082e-01  4.0912245374844919e-01  2.8469431783897658e-01  1.9283424821589001e-01  2.6310225912681989e-01  4.8228771152529459e-01  5.9875112530236474e-01  5.5706494042883259e-01  4.6682050572225620e-01  3.8425268651168942e-01  3.1981020775812707e-01  2.7209829124448492e-01  2.3822697901627174e-01  2.1578623286445522e-01  2.0252886760227004e-01  1.9350053734976849e-01  3.2539577228569438e-01  3.3134251338563503e-01  2.2352307560215542e-01  3.3404006377988271e-01  6.9229901827960216e-01  2.2106249414102336e-01  4.3830035776147236e-01  5.9677192492107567e-01  6.6836728966652759e-01  7.0579973397598550e-01  7.2719062500297049e-01  7.3889289935360003e-01  7.4347394289687696e-01  7.4237160768994226e-01  7.3671039500184476e-01  7.2747953793585096e-01  7.1550863603044423e-01  7.0140422607332154e-01  6.8551333574335649e-01  6.6793323703951413e-01  6.4854297455736609e-01  6.2696832404626068e-01  6.0230543133259284e-01  5.7235529850704991e-01  5.3217346003514476e-01  4.7224310645189993e-01  3.7871018585225985e-01  2.4569833219762338e-01  1.2290564359223022e-01  1.6617865471210314e-01  4.2221692290803930e-01  5.8246350372390709e-01  5.4253117638141957e-01  4.4505123320779011e-01  3.6098669217457258e-01  2.9983977899546721e-01  2.5722543367114015e-01  2.2837108191051600e-01  2.1004780935105583e-01  1.9985344942969827e-01  1.9294917176427134e-01  3.2542670841266774e-01  3.3096978060457427e-01  2.2059850829654334e-01  3.0271897795387148e-01  4.7656917885528960e-01  6.6668739905092578e-01  3.6665847473839164e-01  3.1051213219153678e-01  4.2030572958648427e-01  5.0851143469420912e-01  5.6488696874875788e-01  5.9919094828441866e-01  6.1817076829479189e-01  6.2607233768707515e-01  6.2593927242202230e-01  6.2016749439519270e-01  6.1068430062435763e-01  5.9901448942573099e-01  5.8632788226611265e-01  5.7348862636636633e-01  5.6109508848120293e-01  5.4944181283370508e-01  5.3823063489590428e-01  5.2576262328521783e-01  5.0737335367947778e-01  4.7316986909841208e-01  4.0609762091672580e-01  2.8572122631229957e-01  1.1916531698025368e-01  2.9695165585420402e-02  2.3138416408140888e-01  5.2082318798239136e-01  5.4940745675139280e-01  4.5352845913856715e-01  3.6322642249885911e-01  2.9978404465026681e-01  2.5738742221761318e-01  2.2946360166100954e-01  2.1185265296517267e-01  2.0167100905396926e-01  1.9391501232526373e-01  3.2575600998163534e-01  3.3050240899736405e-01  2.1796700521504592e-01  2.8507941178025231e-01  3.8032711637390348e-01  5.2145867457855999e-01  6.3360463840002512e-01  5.7560925618379732e-01  4.1396929847915864e-01  3.156693907