<?xml version="1.0"?>
<VTKFile type="UnstructuredGrid"  version="0.1"  >
<UnstructuredGrid>
<Piece  NumberOfPoints="1681" NumberOfCells="3200">
<Points>
<DataArray  type="Float64"  NumberOfComponents="3"  format="ascii">0 0 0  0.025 0 0  0.05 0 0  0.075 0 0  0.1 0 0  0.125 0 0  0.15 0 0  0.175 0 0  0.2 0 0  0.225 0 0  0.25 0 0  0.275 0 0  0.3 0 0  0.325 0 0  0.35 0 0  0.375 0 0  0.4 0 0  0.425 0 0  0.45 0 0  0.475 0 0  0.5 0 0  0.525 0 0  0.55 0 0  0.575 0 0  0.6 0 0  0.625 0 0  0.65 0 0  0.675 0 0  0.7 0 0  0.725 0 0  0.75 0 0  0.775 0 0  0.8 0 0  0.825 0 0  0.85 0 0  0.875 0 0  0.9 0 0  0.925 0 0  0.95 0 0  0.975 0 0  1 0 0  0 0.025 0  0.025 0.025 0  0.05 0.025 0  0.075 0.025 0  0.1 0.025 0  0.125 0.025 0  0.15 0.025 0  0.175 0.025 0  0.2 0.025 0  0.225 0.025 0  0.25 0.025 0  0.275 0.025 0  0.3 0.025 0  0.325 0.025 0  0.35 0.025 0  0.375 0.025 0  0.4 0.025 0  0.425 0.025 0  0.45 0.025 0  0.475 0.025 0  0.5 0.025 0  0.525 0.025 0  0.55 0.025 0  0.575 0.025 0  0.6 0.025 0  0.625 0.025 0  0.65 0.025 0  0.675 0.025 0  0.7 0.025 0  0.725 0.025 0  0.75 0.025 0  0.775 0.025 0  0.8 0.025 0  0.825 0.025 0  0.85 0.025 0  0.875 0.025 0  0.9 0.025 0  0.925 0.025 0  0.95 0.025 0  0.975 0.025 0  1 0.025 0  0 0.05 0  0.025 0.05 0  0.05 0.05 0  0.075 0.05 0  0.1 0.05 0  0.125 0.05 0  0.15 0.05 0  0.175 0.05 0  0.2 0.05 0  0.225 0.05 0  0.25 0.05 0  0.275 0.05 0  0.3 0.05 0  0.325 0.05 0  0.35 0.05 0  0.375 0.05 0  0.4 0.05 0  0.425 0.05 0  0.45 0.05 0  0.475 0.05 0  0.5 0.05 0  0.525 0.05 0  0.55 0.05 0  0.575 0.05 0  0.6 0.05 0  0.625 0.05 0  0.65 0.05 0  0.675 0.05 0  0.7 0.05 0  0.725 0.05 0  0.75 0.05 0  0.775 0.05 0  0.8 0.05 0  0.825 0.05 0  0.85 0.05 0  0.875 0.05 0  0.9 0.05 0  0.925 0.05 0  0.95 0.05 0  0.975 0.05 0  1 0.05 0  0 0.075 0  0.025 0.075 0  0.05 0.075 0  0.075 0.075 0  0.1 0.075 0  0.125 0.075 0  0.15 0.075 0  0.175 0.075 0  0.2 0.075 0  0.225 0.075 0  0.25 0.075 0  0.275 0.075 0  0.3 0.075 0  0.325 0.075 0  0.35 0.075 0  0.375 0.075 0  0.4 0.075 0  0.425 0.075 0  0.45 0.075 0  0.475 0.075 0  0.5 0.075 0  0.525 0.075 0  0.55 0.075 0  0.575 0.075 0  0.6 0.075 0  0.625 0.075 0  0.65 0.075 0  0.675 0.075 0  0.7 0.075 0  0.725 0.075 0  0.75 0.075 0  0.775 0.075 0  0.8 0.075 0  0.825 0.075 0  0.85 0.075 0  0.875 0.075 0  0.9 0.075 0  0.925 0.075 0  0.95 0.075 0  0.975 0.075 0  1 0.075 0  0 0.1 0  0.025 0.1 0  0.05 0.1 0  0.075 0.1 0  0.1 0.1 0  0.125 0.1 0  0.15 0.1 0  0.175 0.1 0  0.2 0.1 0  0.225 0.1 0  0.25 0.1 0  0.275 0.1 0  0.3 0.1 0  0.325 0.1 0  0.35 0.1 0  0.375 0.1 0  0.4 0.1 0  0.425 0.1 0  0.45 0.1 0  0.475 0.1 0  0.5 0.1 0  0.525 0.1 0  0.55 0.1 0  0.575 0.1 0  0.6 0.1 0  0.625 0.1 0  0.65 0.1 0  0.675 0.1 0  0.7 0.1 0  0.725 0.1 0  0.75 0.1 0  0.775 0.1 0  0.8 0.1 0  0.825 0.1 0  0.85 0.1 0  0.875 0.1 0  0.9 0.1 0  0.925 0.1 0  0.95 0.1 0  0.975 0.1 0  1 0.1 0  0 0.125 0  0.025 0.125 0  0.05 0.125 0  0.075 0.125 0  0.1 0.125 0  0.125 0.125 0  0.15 0.125 0  0.175 0.125 0  0.2 0.125 0  0.225 0.125 0  0.25 0.125 0  0.275 0.125 0  0.3 0.125 0  0.325 0.125 0  0.35 0.125 0  0.375 0.125 0  0.4 0.125 0  0.425 0.125 0  0.45 0.125 0  0.475 0.125 0  0.5 0.125 0  0.525 0.125 0  0.55 0.125 0  0.575 0.125 0  0.6 0.125 0  0.625 0.125 0  0.65 0.125 0  0.675 0.125 0  0.7 0.125 0  0.725 0.125 0  0.75 0.125 0  0.775 0.125 0  0.8 0.125 0  0.825 0.125 0  0.85 0.125 0  0.875 0.125 0  0.9 0.125 0  0.925 0.125 0  0.95 0.125 0  0.975 0.125 0  1 0.125 0  0 0.15 0  0.025 0.15 0  0.05 0.15 0  0.075 0.15 0  0.1 0.15 0  0.125 0.15 0  0.15 0.15 0  0.175 0.15 0  0.2 0.15 0  0.225 0.15 0  0.25 0.15 0  0.275 0.15 0  0.3 0.15 0  0.325 0.15 0  0.35 0.15 0  0.375 0.15 0  0.4 0.15 0  0.425 0.15 0  0.45 0.15 0  0.475 0.15 0  0.5 0.15 0  0.525 0.15 0  0.55 0.15 0  0.575 0.15 0  0.6 0.15 0  0.625 0.15 0  0.65 0.15 0  0.675 0.15 0  0.7 0.15 0  0.725 0.15 0  0.75 0.15 0  0.775 0.15 0  0.8 0.15 0  0.825 0.15 0  0.85 0.15 0  0.875 0.15 0  0.9 0.15 0  0.925 0.15 0  0.95 0.15 0  0.975 0.15 0  1 0.15 0  0 0.175 0  0.025 0.175 0  0.05 0.175 0  0.075 0.175 0  0.1 0.175 0  0.125 0.175 0  0.15 0.175 0  0.175 0.175 0  0.2 0.175 0  0.225 0.175 0  0.25 0.175 0  0.275 0.175 0  0.3 0.175 0  0.325 0.175 0  0.35 0.175 0  0.375 0.175 0  0.4 0.175 0  0.425 0.175 0  0.45 0.175 0  0.475 0.175 0  0.5 0.175 0  0.525 0.175 0  0.55 0.175 0  0.575 0.175 0  0.6 0.175 0  0.625 0.175 0  0.65 0.175 0  0.675 0.175 0  0.7 0.175 0  0.725 0.175 0  0.75 0.175 0  0.775 0.175 0  0.8 0.175 0  0.825 0.175 0  0.85 0.175 0  0.875 0.175 0  0.9 0.175 0  0.925 0.175 0  0.95 0.175 0  0.975 0.175 0  1 0.175 0  0 0.2 0  0.025 0.2 0  0.05 0.2 0  0.075 0.2 0  0.1 0.2 0  0.125 0.2 0  0.15 0.2 0  0.175 0.2 0  0.2 0.2 0  0.225 0.2 0  0.25 0.2 0  0.275 0.2 0  0.3 0.2 0  0.325 0.2 0  0.35 0.2 0  0.375 0.2 0  0.4 0.2 0  0.425 0.2 0  0.45 0.2 0  0.475 0.2 0  0.5 0.2 0  0.525 0.2 0  0.55 0.2 0  0.575 0.2 0  0.6 0.2 0  0.625 0.2 0  0.65 0.2 0  0.675 0.2 0  0.7 0.2 0  0.725 0.2 0  0.75 0.2 0  0.775 0.2 0  0.8 0.2 0  0.825 0.2 0  0.85 0.2 0  0.875 0.2 0  0.9 0.2 0  0.925 0.2 0  0.95 0.2 0  0.975 0.2 0  1 0.2 0  0 0.225 0  0.025 0.225 0  0.05 0.225 0  0.075 0.225 0  0.1 0.225 0  0.125 0.225 0  0.15 0.225 0  0.175 0.225 0  0.2 0.225 0  0.225 0.225 0  0.25 0.225 0  0.275 0.225 0  0.3 0.225 0  0.325 0.225 0  0.35 0.225 0  0.375 0.225 0  0.4 0.225 0  0.425 0.225 0  0.45 0.225 0  0.475 0.225 0  0.5 0.225 0  0.525 0.225 0  0.55 0.225 0  0.575 0.225 0  0.6 0.225 0  0.625 0.225 0  0.65 0.225 0  0.675 0.225 0  0.7 0.225 0  0.725 0.225 0  0.75 0.225 0  0.775 0.225 0  0.8 0.225 0  0.825 0.225 0  0.85 0.225 0  0.875 0.225 0  0.9 0.225 0  0.925 0.225 0  0.95 0.225 0  0.975 0.225 0  1 0.225 0  0 0.25 0  0.025 0.25 0  0.05 0.25 0  0.075 0.25 0  0.1 0.25 0  0.125 0.25 0  0.15 0.25 0  0.175 0.25 0  0.2 0.25 0  0.225 0.25 0  0.25 0.25 0  0.275 0.25 0  0.3 0.25 0  0.325 0.25 0  0.35 0.25 0  0.375 0.25 0  0.4 0.25 0  0.425 0.25 0  0.45 0.25 0  0.475 0.25 0  0.5 0.25 0  0.525 0.25 0  0.55 0.25 0  0.575 0.25 0  0.6 0.25 0  0.625 0.25 0  0.65 0.25 0  0.675 0.25 0  0.7 0.25 0  0.725 0.25 0  0.75 0.25 0  0.775 0.25 0  0.8 0.25 0  0.825 0.25 0  0.85 0.25 0  0.875 0.25 0  0.9 0.25 0  0.925 0.25 0  0.95 0.25 0  0.975 0.25 0  1 0.25 0  0 0.275 0  0.025 0.275 0  0.05 0.275 0  0.075 0.275 0  0.1 0.275 0  0.125 0.275 0  0.15 0.275 0  0.175 0.275 0  0.2 0.275 0  0.225 0.275 0  0.25 0.275 0  0.275 0.275 0  0.3 0.275 0  0.325 0.275 0  0.35 0.275 0  0.375 0.275 0  0.4 0.275 0  0.425 0.275 0  0.45 0.275 0  0.475 0.275 0  0.5 0.275 0  0.525 0.275 0  0.55 0.275 0  0.575 0.275 0  0.6 0.275 0  0.625 0.275 0  0.65 0.275 0  0.675 0.275 0  0.7 0.275 0  0.725 0.275 0  0.75 0.275 0  0.775 0.275 0  0.8 0.275 0  0.825 0.275 0  0.85 0.275 0  0.875 0.275 0  0.9 0.275 0  0.925 0.275 0  0.95 0.275 0  0.975 0.275 0  1 0.275 0  0 0.3 0  0.025 0.3 0  0.05 0.3 0  0.075 0.3 0  0.1 0.3 0  0.125 0.3 0  0.15 0.3 0  0.175 0.3 0  0.2 0.3 0  0.225 0.3 0  0.25 0.3 0  0.275 0.3 0  0.3 0.3 0  0.325 0.3 0  0.35 0.3 0  0.375 0.3 0  0.4 0.3 0  0.425 0.3 0  0.45 0.3 0  0.475 0.3 0  0.5 0.3 0  0.525 0.3 0  0.55 0.3 0  0.575 0.3 0  0.6 0.3 0  0.625 0.3 0  0.65 0.3 0  0.675 0.3 0  0.7 0.3 0  0.725 0.3 0  0.75 0.3 0  0.775 0.3 0  0.8 0.3 0  0.825 0.3 0  0.85 0.3 0  0.875 0.3 0  0.9 0.3 0  0.925 0.3 0  0.95 0.3 0  0.975 0.3 0  1 0.3 0  0 0.325 0  0.025 0.325 0  0.05 0.325 0  0.075 0.325 0  0.1 0.325 0  0.125 0.325 0  0.15 0.325 0  0.175 0.325 0  0.2 0.325 0  0.225 0.325 0  0.25 0.325 0  0.275 0.325 0  0.3 0.325 0  0.325 0.325 0  0.35 0.325 0  0.375 0.325 0  0.4 0.325 0  0.425 0.325 0  0.45 0.325 0  0.475 0.325 0  0.5 0.325 0  0.525 0.325 0  0.55 0.325 0  0.575 0.325 0  0.6 0.325 0  0.625 0.325 0  0.65 0.325 0  0.675 0.325 0  0.7 0.325 0  0.725 0.325 0  0.75 0.325 0  0.775 0.325 0  0.8 0.325 0  0.825 0.325 0  0.85 0.325 0  0.875 0.325 0  0.9 0.325 0  0.925 0.325 0  0.95 0.325 0  0.975 0.325 0  1 0.325 0  0 0.35 0  0.025 0.35 0  0.05 0.35 0  0.075 0.35 0  0.1 0.35 0  0.125 0.35 0  0.15 0.35 0  0.175 0.35 0  0.2 0.35 0  0.225 0.35 0  0.25 0.35 0  0.275 0.35 0  0.3 0.35 0  0.325 0.35 0  0.35 0.35 0  0.375 0.35 0  0.4 0.35 0  0.425 0.35 0  0.45 0.35 0  0.475 0.35 0  0.5 0.35 0  0.525 0.35 0  0.55 0.35 0  0.575 0.35 0  0.6 0.35 0  0.625 0.35 0  0.65 0.35 0  0.675 0.35 0  0.7 0.35 0  0.725 0.35 0  0.75 0.35 0  0.775 0.35 0  0.8 0.35 0  0.825 0.35 0  0.85 0.35 0  0.875 0.35 0  0.9 0.35 0  0.925 0.35 0  0.95 0.35 0  0.975 0.35 0  1 0.35 0  0 0.375 0  0.025 0.375 0  0.05 0.375 0  0.075 0.375 0  0.1 0.375 0  0.125 0.375 0  0.15 0.375 0  0.175 0.375 0  0.2 0.375 0  0.225 0.375 0  0.25 0.375 0  0.275 0.375 0  0.3 0.375 0  0.325 0.375 0  0.35 0.375 0  0.375 0.375 0  0.4 0.375 0  0.425 0.375 0  0.45 0.375 0  0.475 0.375 0  0.5 0.375 0  0.525 0.375 0  0.55 0.375 0  0.575 0.375 0  0.6 0.375 0  0.625 0.375 0  0.65 0.375 0  0.675 0.375 0  0.7 0.375 0  0.725 0.375 0  0.75 0.375 0  0.775 0.375 0  0.8 0.375 0  0.825 0.375 0  0.85 0.375 0  0.875 0.375 0  0.9 0.375 0  0.925 0.375 0  0.95 0.375 0  0.975 0.375 0  1 0.375 0  0 0.4 0  0.025 0.4 0  0.05 0.4 0  0.075 0.4 0  0.1 0.4 0  0.125 0.4 0  0.15 0.4 0  0.175 0.4 0  0.2 0.4 0  0.225 0.4 0  0.25 0.4 0  0.275 0.4 0  0.3 0.4 0  0.325 0.4 0  0.35 0.4 0  0.375 0.4 0  0.4 0.4 0  0.425 0.4 0  0.45 0.4 0  0.475 0.4 0  0.5 0.4 0  0.525 0.4 0  0.55 0.4 0  0.575 0.4 0  0.6 0.4 0  0.625 0.4 0  0.65 0.4 0  0.675 0.4 0  0.7 0.4 0  0.725 0.4 0  0.75 0.4 0  0.775 0.4 0  0.8 0.4 0  0.825 0.4 0  0.85 0.4 0  0.875 0.4 0  0.9 0.4 0  0.925 0.4 0  0.95 0.4 0  0.975 0.4 0  1 0.4 0  0 0.425 0  0.025 0.425 0  0.05 0.425 0  0.075 0.425 0  0.1 0.425 0  0.125 0.425 0  0.15 0.425 0  0.175 0.425 0  0.2 0.425 0  0.225 0.425 0  0.25 0.425 0  0.275 0.425 0  0.3 0.425 0  0.325 0.425 0  0.35 0.425 0  0.375 0.425 0  0.4 0.425 0  0.425 0.425 0  0.45 0.425 0  0.475 0.425 0  0.5 0.425 0  0.525 0.425 0  0.55 0.425 0  0.575 0.425 0  0.6 0.425 0  0.625 0.425 0  0.65 0.425 0  0.675 0.425 0  0.7 0.425 0  0.725 0.425 0  0.75 0.425 0  0.775 0.425 0  0.8 0.425 0  0.825 0.425 0  0.85 0.425 0  0.875 0.425 0  0.9 0.425 0  0.925 0.425 0  0.95 0.425 0  0.975 0.425 0  1 0.425 0  0 0.45 0  0.02
[...]
<PointData  Scalars="ControlVisualisation"> 
<DataArray  type="Float64"  Name="ControlVisualisation"  format="ascii">4.6307171382381684e-01  4.4871975109635326e-01  4.4872266713494829e-01  4.4884914449334323e-01  4.4913031557397215e-01  4.4952094747277566e-01  4.4994724512465706e-01  4.5034444014480995e-01  4.5067337388070106e-01  4.5091986399293787e-01  4.5108673819966377e-01  4.5118551336906820e-01  4.5123048409158312e-01  4.5123539380343702e-01  4.5121196258231183e-01  4.5116950057065180e-01  4.5111505411693414e-01  4.5105375568843126e-01  4.5098920682530780e-01  4.5092381752880417e-01  4.5085907503798078e-01  4.5079573791277844e-01  4.5073395996401194e-01  4.5067335020072113e-01  4.5061297385209070e-01  4.5055129843332736e-01  4.5048609033449305e-01  4.5041427542618395e-01  4.5033179767935955e-01  4.5023355357114059e-01  4.5011356101057193e-01  4.4996563899054842e-01  4.4978504086690230e-01  4.4957148139747949e-01  4.4933360335864736e-01  4.4909380001553190e-01  4.4888870241982465e-01  4.4875915020410229e-01  4.4872209213658082e-01  4.4873697981677335e-01  4.7743651323092989e-01  4.4871715086294417e-01  4.0605257023456276e-01  4.0671908269891810e-01  4.0859444497011582e-01  4.1189976281559865e-01  4.1622691231068276e-01  4.2087518092438087e-01  4.2521634417609266e-01  4.2885880115258307e-01  4.3164927412429904e-01  4.3360262723953730e-01  4.3482464443521418e-01  4.3545472904162069e-01  4.3563182985537502e-01  4.3547800172358986e-01  4.3509286933614044e-01  4.3455384177306433e-01  4.3391882696755779e-01  4.3322964433579680e-01  4.3251525141345915e-01  4.3179441560857545e-01  4.3107772139687661e-01  4.3036891577224951e-01  4.2966563061337798e-01  4.2895952244691399e-01  4.2823586589608542e-01  4.2747265169746645e-01  4.2663930719937843e-01  4.2569532797853338e-01  4.2458947603821862e-01  4.2326086408839519e-01  4.2164432140079122e-01  4.1968387921355427e-01  4.1735869511438278e-01  4.1472424932836227e-01  4.1196019667419781e-01  4.0939085441685430e-01  4.0742165988213885e-01  4.0632000989172629e-01  4.0598777821157994e-01  4.4873678862211275e-01  4.4869066678380048e-01  4.0664127078415768e-01  4.0965319267078798e-01  4.1531899734795807e-01  4.2366017998180960e-01  4.3374067238443892e-01  4.4412663401485586e-01  4.5359996015528176e-01  4.6144642479481279e-01  4.6742035770172102e-01  4.7159178147954411e-01  4.7419672665396573e-01  4.7553048514207030e-01  4.7588456818099262e-01  4.7551586500179288e-01  4.7463583867765086e-01  4.7341058791276602e-01  4.7196587168968046e-01  4.7039370131608876e-01  4.6875874543584412e-01  4.6710375714154123e-01  4.6545374419373164e-01  4.6381884266896140e-01  4.6219594307495449e-01  4.6056913431036545e-01  4.5890902809444523e-01  4.5717105128173147e-01  4.5529290632535746e-01  4.5319169247904056e-01  4.5076181512017849e-01  4.4787597454666056e-01  4.4439356416828563e-01  4.4018345842879464e-01  4.3517052246870097e-01  4.2941427196618598e-01  4.2320590131620200e-01  4.1713268177233925e-01  4.1197088131676063e-01  4.0829006486367453e-01  4.0629810133806293e-01  4.4871702509715611e-01  4.4871551909299606e-01  4.0844036753836138e-01  4.1612223570437334e-01  4.2696190319936755e-01  4.3987714368878866e-01  4.5364500158353016e-01  4.6676529883251816e-01  4.7811290765054637e-01  4.8713539665109462e-01  4.9374901972826374e-01  4.9815718051946972e-01  5.0069932282005358e-01  5.0175082782245672e-01  5.0166615700786532e-01  5.0075202091724980e-01  4.9925905373649476e-01  4.9738362374490575e-01  4.9527431243252545e-01  4.9303981255663426e-01  4.9075650138697968e-01  4.8847487313364962e-01  4.8622453179645592e-01  4.8401769907999581e-01  4.8185129063862253e-01  4.7970763253996029e-01  4.7755388136864768e-01  4.7534022146935712e-01  4.7299699811850054e-01  4.7043118985619131e-01  4.6752318343102045e-01  4.6412587564886754e-01  4.6007014106107313e-01  4.5518335027456563e-01  4.4933182332146160e-01  4.4249655579136099e-01  4.3487441173550262e-01  4.2695611736098249e-01  4.1937870527822596e-01  4.1260656316665079e-01  4.0744396636306440e-01  4.4873132531905358e-01  4.4883108819616013e-01  4.1248730066755923e-01  4.3010445903052202e-01  4.4914723053618977e-01  4.6627520759853985e-01  4.8103220167697808e-01  4.9323707102996206e-01  5.0277584383324769e-01  5.0972342442575391e-01  5.1432563883038473e-01  5.1692634413013760e-01  5.1790211270159847e-01  5.1761700170488278e-01  5.1639619826323346e-01  5.1451406736375993e-01  5.1219202208211179e-01  5.0960223018190742e-01  5.0687412231606410e-01  5.0410167025284636e-01  5.0135024322425936e-01  4.9866244688090205e-01  4.9606271759596626e-01  4.9356064023085033e-01  4.9115303920053177e-01  4.8882490891057134e-01  4.8654923719345666e-01  4.8428576510739990e-01  4.8197875288457626e-01  4.7955393453852402e-01  4.7691513785613915e-01  4.7394162239304571e-01  4.7048841490236148e-01  4.6639340363141502e-01  4.6149815418776674e-01  4.5568337510666979e-01  4.4891176746889222e-01  4.4118682121005692e-01  4.3225254523536860e-01  4.2145748025657709e-01  4.1021384581113879e-01  4.4883217316249552e-01  4.4918232401132335e-01  4.2444437089753551e-01  4.6284679395923589e-01  4.9370815942932417e-01  5.1222794527921933e-01  5.2289452741916520e-01  5.2908144213517827e-01  5.3252207898524473e-01  5.3406673589887110e-01  5.3418248528531831e-01  5.3318586277704516e-01  5.3133250912351615e-01  5.2884465954861548e-01  5.2591576059195444e-01  5.2270926099744230e-01  5.1935800678011801e-01  5.1596571324613505e-01  5.1261010460847833e-01  5.0934687276016199e-01  5.0621373166949224e-01  5.0323410420731796e-01  5.0042020551305255e-01  4.9777543899923149e-01  4.9529610520660622e-01  4.9297246077860196e-01  4.9078917554003743e-01  4.8872523795250195e-01  4.8675336889858134e-01  4.8483904122962107e-01  4.8293929392661827e-01  4.8100168817293876e-01  4.7896411530361849e-01  4.7675591300046383e-01  4.7430015731186387e-01  4.7150143369298497e-01  4.6817132711169429e-01  4.6364620418302621e-01  4.5580700161329185e-01  4.3992201793250751e-01  4.1616767727994380e-01  4.4899260787147932e-01  4.5946187279666967e-01  4.7428128817441068e-01  5.4452019796816942e-01  5.7880511646726029e-01  5.8740293913090458e-01  5.8423192076071073e-01  5.7704848449842616e-01  5.6924431249544216e-01  5.6191920585083699e-01  5.5525197778206536e-01  5.4914723491014905e-01  5.4347656504607555e-01  5.3814682810188685e-01  5.3310579008435210e-01  5.2833043447709382e-01  5.2381421763994207e-01  5.1955776482242044e-01  5.1556328611069890e-01  5.1183179733573381e-01  5.0836214520066036e-01  5.0515107104660961e-01  5.0219381505558369e-01  4.9948497708473583e-01  4.9701950324966410e-01  4.9479377440991662e-01  4.9280685448398820e-01  4.9106203353723621e-01  4.8956889319642904e-01  4.8834625494465456e-01  4.8742656523673900e-01  4.8686255961976427e-01  4.8673735586567418e-01  4.8717851943272911e-01  4.8837357987482000e-01  4.9055781214812066e-01  4.9386751174551324e-01  4.9761383471731352e-01  4.9812597479542314e-01  4.8357157772346443e-01  4.3901404145357020e-01  4.5018775369629127e-01  5.9396356114157911e-01  6.6487483950807991e-01  7.0726991431893449e-01  7.1015086358199164e-01  6.9149684564006830e-01  6.6345119657122154e-01  6.3543493850225452e-01  6.1158823902680015e-01  5.9245051061014553e-01  5.7724263493583483e-01  5.6499235121863745e-01  5.5489629534032947e-01  5.4637253195010183e-01  5.3902132535178016e-01  5.3257314823881452e-01  5.2684607282545615e-01  5.2171556169408106e-01  5.1709443506699337e-01  5.1292009787916104e-01  5.0914665037195461e-01  5.0574020932595198e-01  5.0267635049381776e-01  4.9993901150189018e-01  4.9752050223879235e-01  4.9542250210818961e-01  4.9365812445440022e-01  4.9225534280471261e-01  4.9126235559352605e-01  4.9075589396680080e-01  4.9085417182506685e-01  4.9173734722265999e-01  4.9368009643912880e-01  4.9710305223484186e-01  5.0264876055545993e-01  5.1126000162373086e-01  5.2413133857698102e-01  5.4192941110471571e-01  5.6196064220132402e-01  5.7104482366095677e-01  5.4204461854803410e-01  4.7761926323129494e-01  8.2327853756076053e-01  8.9164568283525547e-01  8.6454242015697347e-01  8.4157735936098588e-01  8.0109776109347819e-01  7.4797939992212936e-01  6.9686805584713951e-01  6.5498067022349205e-01  6.2279675877394769e-01  5.9841410323951238e-01  5.7974303995540255e-01  5.6513607687019018e-01  5.5342444390374945e-01  5.4380908843417763e-01  5.3574815860403391e-01  5.2887212267193762e-01  5.2292581084775303e-01  5.1773035686942137e-01  5.1315862239274856e-01  5.0911949397088996e-01  5.0554800972403868e-01  5.0239939322278326e-01  4.9964583256763678e-01  4.9727536630859881e-01  4.9529262858898354e-01  4.9372154917003658e-01  4.9261048386890544e-01  4.9204077450740374e-01  4.9214057228593522e-01  4.9310719920204177e-01  4.9524387451859830e-01  4.9902102643869878e-01  5.0517955402314285e-01  5.1489887848874372e-01  5.3003666754750356e-01  5.5330908649425936e-01  5.8765497575321501e-01  6.3308695145703975e-01  6.7945090267447439e-01  7.2384353868026308e-01  6.0076334121125652e-01  8.9759712764959598e-01  9.4326057749052961e-01  9.2470538371312683e-01  9.1644194657027400e-01  8.8170566687990393e-01  8.1814277992057627e-01  7.5000737624340785e-01  6.9268391157195808e-01  6.4887036515014374e-01  6.1626377777936636e-01  5.9187374522564884e-01  5.7328746108419792e-01  5.5879153023243300e-01  5.4721767591251114e-01  5.3777510794196137e-01  5.2992483271308011e-01  5.2329477557130843e-01  5.1762446182540922e-01  5.1272934483906640e-01  5.0847788007658656e-01  5.0477690059725400e-01  5.0156253002951046e-01  4.9879497020419622e-01  4.9645623758172786e-01  4.9455046049449908e-01  4.9310681634662368e-01  4.9218570589918620e-01  4.9188948640954411e-01  4.9238026775125154e-01  4.9390936894951692e-01  4.9686684967857597e-01  5.0186649886036860e-01  5.0989342383790082e-01  5.2255538772217980e-01  5.4247518506967063e-01  5.7368706590477303e-01  6.2114926677037341e-01  6.8667987840630063e-01  7.5769392851909778e-01  8.3094393880091266e-01  7.1441237935229152e-01  9.0949284434747457e-01  9.5810208057977486e-01  9.4453237572589099e-01  9.4160615542134296e-01  9.1934760180512076e-01  8.5908625768217195e-01  7.8435083715617471e-01  7.1806852218779826e-01  6.6660635781211841e-01  6.2830054697262994e-01  5.9984736009862627e-01  5.7839786113010183e-01  5.6188645648204361e-01  5.4889290130159485e-01  5.3845148552698407e-01  5.2990179476417443e-01  5.2278664030533362e-01  5.1678519432344205e-01  5.1166969594808187e-01  5.0727746302168486e-01  5.0349286352039557e-01  5.0023591734089434e-01  4.9745551587499826e-01  4.9512611872232520e-01  4.9324741274055400e-01  4.9184695049184485e-01  4.9098636346190183e-01  4.9077254680586757e-01  4.9137652103937229e-01  4.9306500595249647e-01  4.9625404707829418e-01  5.0160201596602283e-01  5.1017304043562972e-01  5.2372120761814434e-01  5.4514657912424380e-01  5.7900422910915683e-01  6.3117781244566917e-01  7.0424901471389589e-01  7.8386115901759079e-01  8.5684436014445298e-01  7.4949579537240629e-01  8.8667632128196117e-01  9.4590578860374630e-01  9.3895097288505225e-01  9.3708293076695348e-01  9.1991552599822657e-01  8.6677120776382743e-01  7.9440152388988716e-01  7.2696910901866274e-01  6.7326999136465482e-01  6.3279790224215138e-01  6.0257775782698109e-01  5.7977920468236965e-01  5.6227072349861706e-01  5.4855587444145615e-01  5.3760282981768959e-01  5.2869836420833305e-01  5.2134429993796483e-01  5.1518827808229684e-01  5.0997828103548892e-01  5.0553285658962632e-01  5.0172167164126935e-01  4.9845298541366673e-01  4.9566594450214668e-01  4.9332647783491662e-01  4.9142619345659339e-01  4.8998419548712591e-01  4.8905228001252132e-01  4.8872469253555101e-01  4.8915478687197744e-01  4.9058296210887303e-01  4.9338399868788668e-01  4.9814880624859964e-01  5.0582756827396569e-01  5.1797839720815941e-01  5.3716579376128537e-01  5.6743101842435451e-01  6.1410836584875916e-01  6.8012004492612554e-01  7.5615173233866695e-01  8.2526965586037315e-01  7.2567063232986773e-01  7.9267704868896549e-01  9.0689125000368564e-01  8.9479814958944115e-01  9.0263557780710646e-01  8.8931329755268873e-01  8.4419637070759923e-01  7.8050162016892277e-01  7.1886264136106748e-01  6.6826590142110087e-01  6.2928538784357269e-01  5.9972807312471854e-01  5.7719846181201140e-01  5.5978584999655090e-01  5.4610088743376362e-01  5.3516117370870020e-01  5.2627409800625125e-01  5.1894786593283859e-01  5.1282959878104706e-01  5.0766350314039677e-01  5.0326284326409321e-01  4.9949123396101419e-01  4.9625028605975885e-01  4.9347171537693285e-01  4.9111276872039283e-01  4.8915435195546575e-01  4.8760167334051424e-01  4.8648763813784568e-01  4.8587976154591089e-01  4.8589217475997010e-01  4.8670567312752627e-01  4.8860121158573877e-01  4.9201663741624146e-01  4.9764377642063223e-01  5.0659188873801153e-01  5.2063699808532837e-01  5.4247934631179684e-01  5.7543427786625778e-01  6.2083678487700278e-01  6.7156814332477233e-01  7.0445385999756827e-01  6.3562146175424050e-01  5.4006343609683849e-01  7.4703166576082880e-01  8.0194562335531683e-01  8.3386685258221016e-01  8.3152555103323145e-01  7.9806293851103349e-01  7.4760435632845190e-01  6.9662709268734369e-01  6.5316040952540055e-01  6.1861256090015571e-01  5.9176859197552134e-01  5.7092398282770107e-01  5.5459083735430492e-01  5.4162695848437759e-01  5.3119262482493057e-01  5.2267750410626379e-01  5.1563720187710371e-01  5.0974584973126336e-01  5.0476247743966685e-01  5.0050761296632973e-01  4.9684713284129911e-01  4.9368121788415975e-01  4.9093696302776624e-01  4.8856370431965407e-01  4.8653050456065433e-01  4.8482553690188662e-01  4.8345737754207202e-01  4.8245852470896722e-01  4.8189188354688695e-01  4.8186162495790075e-01  4.8253094896710641e-01  4.8415113740640026e-01  4.8710885745852728e-01  4.9199940585009660e-01  4.9971805747799819e-01  5.1146543285784063e-01  5.2817338776814227e-01  5.4793371015960113e-01  5.5862629772124850e-01  5.3065214050481957e-01  5.0505483745750890e-01  4.5686486582835456e-01  5.3617649382675237e-01  6.8115812092547012e-01  7.4384982116505460e-01  7.5731711937113444e-01  7.3866858380337541e-01  7.0351770581391349e-01  6.6531078426038015e-01  6.3100895004541668e-01  6.0260342148097834e-01  5.7980050360552682e-01  5.6163508445755694e-01  5.4711598445461884e-01  5.3541498523898834e-01  5.2588710161287899e-01  5.1804261988655487e-01  5.1151215059926147e-01  5.0601654605899526e-01  5.0134368111377459e-01  4.9733127167461200e-01  4.9385439203708442e-01  4.9081649963597784e-01  4.8814305636252120e-01  4.8577709566877969e-01  4.8367629418635361e-01  4.8181127193230594e-01  4.8016498288296000e-01  4.7873318826326988e-01  4.7752615450790337e-01  4.7657192301511464e-01  4.7592180907743165e-01  4.7565921805873806e-01  4.7591306697168023e-01  4.7687477284153384e-01  4.7880187916770500e-01  4.8191721807697335e-01  4.8585851987433010e-01  4.8774176698681815e-01  4.7790347317077908e-01  4.4349205406401526e-01  4.5385080809832046e-01  4.5248403716669799e-01  4.7391720068671023e-01  5.9124471876907769e-01  6.6016941334849566e-01  6.8366434431242362e-01  6.7781603974496341e-01  6.5652044018691147e-01  6.3042037235580095e-01  6.0533187680244638e-01  5.8348230463073103e-01  5.6523745823617422e-01  5.5024367317265432e-01  5.3796117788259212e-01  5.2786858919431734e-01  5.1952324846223508e-01  5.1256776333244769e-01  5.0671929146804251e-01  5.0175534902933383e-01  4.9750072187844813e-01  4.9381665585543116e-01  4.9059232011773934e-01  4.8773818961268606e-01  4.8518094341720597e-01  4.8285952141511151e-01  4.8072204863964962e-01  4.7872339959716159e-01  4.7682322837272001e-01  4.7498433791377043e-01  4.7317131426423403e-01  4.7134943191566042e-01  4.6948398996669471e-01  4.6754051959857862e-01  4.6548663746397312e-01  4.6329562957490522e-01  4.6094418173900675e-01  4.5836005295021004e-01  4.5515656080937417e-01  4.4977886680039442e-01  4.3829245914971182e-01  4.1891211687778629e-01  4.4945682937969633e-01  4.5205769116591094e-01  4.5675601134157018e-01  5.4185957895210524e-01  5.9849792520562806e-01  6.2262021886356822e-01  6.2411733414952175e-01  6.1284888162779960e-01  5.9637835006886386e-01  5.7917837571084785e-01  5.6331659160709746e-01  5.4947571943906115e-01  5.3769783903493906e-01  5.2777727108489803e-01  5.1944115372278721e-01  5.1242258701532839e-01  5.0648597232038839e-01  5.0143222950776900e-01  4.9709627471037315e-01  4.9334198032141396e-01  4.9005675344583377e-01  4.8714651973871687e-01  4.8453132542376859e-01  4.8214153257389769e-01  4.7991449263692038e-01  4.7779155838759579e-01  4.7571530026214348e-01  4.7362681928890576e-01  4.7146310156523574e-01  4.6915446178804338e-01  4.6662232895387512e-01  4.6377803542279639e-01  4.6052405567479782e-01  4.5676051687819080e-01  4.5240149795598900e-01  4.4740494530865171e-01  4.4180594161268799e-01  4.3568753939388177e-01  4.2893061150859280e-01  4.2083649726077899e-01  4.1141880519495494e-01  4.4909004799310759e-01  4.5154424360315787e-01  4.4648819287491665e-01  5.1156245332261885e-01  5.5565472751466582e-01  5.7629746319398412e-01  5.8070849297122940e-01  5.7553692711852900e-01  5.6578843209089780e-01  5.5461447602087521e-01  5.4366474858203373e-01  5.3365946277260667e-01  5.2482778200326030e-01  5.1716534922380841e-01  5.1056968394649660e-01  5.0490562418937290e-01  5.0003538696014471e-01  4.9583111294100568e-01  4.9217900228955036e-01  4.8897948598546465e-01  4.8614561642189730e-01  4.8360072169723689e-01  4.8127580009697579e-01  4.7910684301154421e-01  4.7703213160830393e-01  4.7498948992601381e-01  4.7291346787802180e-01  4.7073246943887936e-01  4.6836595249830204e-01  4.6572205214760409e-01  4.6269639972828663e-01  4.5917365280687972e-01  4.5503451273046691e-01  4.5017291181271751e-01  4.4453024482256853e-01  4.3815368116057613e-01  4.3127489540499747e-01  4.2436449431000878e-01  4.1803604343362316e-01  4.1265891140661554e-01  4.0829709310378431e-01  4.4889124333472485e-01  4.5112592251206435e-01  4.3948570924414943e-01  4.9136110152199369e-01  5.2553847351204130e-01  5.4197359564776393e-01  5.4692578344793708e-01  5.4504686000677305e-01  5.3960714836808854e-01  5.3269153056753593e-01  5.2548148868265876e-01  5.1858208489812319e-01  5.1226330811615783e-01  5.0661368768657344e-01  5.0162859309668351e-01  4.9725858869926209e-01  4.9343541101522403e-01  4.9008543301364782e-01  4.8713622972860937e-01  4.8451929977998748e-01  4.8217064061406395e-01  4.8003010703213167e-01  4.7804005275566608e-01  4.7614350932330829e-01  4.7428202230918093e-01  4.7239320461234147e-01  4.7040806955186093e-01  4.6824828277258723e-01  4.6582365390682795e-01  4.6303053762950530e-01  4.5975241694310948e-01  4.5586491500035237e-01  4.5124890852759386e-01  4.4581707867671622e-01  4.3956031892914349e-01  4.3261771953443007e-01  4.2536012701147713e-01  4.1844132357364888e-01  4.1270663145038022e-01  4.0882433497443199e-01  4.0677371514272598e-01  4.4878908940455065e-01  4.5074968582500002e-01  4.3380859339222405e-01  4.7600175738318296e-01  5.0310536879242518e-01  5.1615067260782987e-01  5.2076298864976311e-01  5.2055419564324801e-01  5.1775281773707282e-01  5.1370731025381366e-01  5.0920846328149028e-01  5.0470073850655628e-01  5.0041904212494759e-01  4.9647475646116079e-01  4.9290714646465600e-01  4.8971426393187117e-01  4.8687144575854208e-01  4.8434224547475108e-01  4.8208469982095303e-01  4.8005465423055654e-01  4.7820721154027240e-01  4.7649694979756985e-01  4.7487729497500308e-01  4.7329926996414579e-01  4.7170974576081925e-01  4.7004928259277795e-01  4.6824967237513132e-01  4.6623140065653224e-01  4.6390147934769915e-01  4.6115252945897078e-01  4.5786470083626052e-01  4.5391309502637661e-01  4.4918472212716537e-01  4.4361024396625465e-01  4.3721547098398555e-01  4.3019182351773122e-01  4.2296957209444724e-01  4.1624606589022739e-01  4.1088141954291463e-01  4.0756191221236965e-01  4.0625545817561731e-01  4.4874985357901592e-01  4.5042078102718219e-01  4.2913111150766148e-01  4.6387605013446104e-01  4.8577543120469741e-01  4.9621541312379058e-01  5.0026505769147078e-01  5.0088799578871801e-01  4.9967976830572447e-01  4.975261560