<?xml version="1.0"?>
<VTKFile type="UnstructuredGrid"  version="0.1"  >
<UnstructuredGrid>
<Piece  NumberOfPoints="1681" NumberOfCells="3200">
<Points>
<DataArray  type="Float64"  NumberOfComponents="3"  format="ascii">0 0 0  0.025 0 0  0.05 0 0  0.075 0 0  0.1 0 0  0.125 0 0  0.15 0 0  0.175 0 0  0.2 0 0  0.225 0 0  0.25 0 0  0.275 0 0  0.3 0 0  0.325 0 0  0.35 0 0  0.375 0 0  0.4 0 0  0.425 0 0  0.45 0 0  0.475 0 0  0.5 0 0  0.525 0 0  0.55 0 0  0.575 0 0  0.6 0 0  0.625 0 0  0.65 0 0  0.675 0 0  0.7 0 0  0.725 0 0  0.75 0 0  0.775 0 0  0.8 0 0  0.825 0 0  0.85 0 0  0.875 0 0  0.9 0 0  0.925 0 0  0.95 0 0  0.975 0 0  1 0 0  0 0.025 0  0.025 0.025 0  0.05 0.025 0  0.075 0.025 0  0.1 0.025 0  0.125 0.025 0  0.15 0.025 0  0.175 0.025 0  0.2 0.025 0  0.225 0.025 0  0.25 0.025 0  0.275 0.025 0  0.3 0.025 0  0.325 0.025 0  0.35 0.025 0  0.375 0.025 0  0.4 0.025 0  0.425 0.025 0  0.45 0.025 0  0.475 0.025 0  0.5 0.025 0  0.525 0.025 0  0.55 0.025 0  0.575 0.025 0  0.6 0.025 0  0.625 0.025 0  0.65 0.025 0  0.675 0.025 0  0.7 0.025 0  0.725 0.025 0  0.75 0.025 0  0.775 0.025 0  0.8 0.025 0  0.825 0.025 0  0.85 0.025 0  0.875 0.025 0  0.9 0.025 0  0.925 0.025 0  0.95 0.025 0  0.975 0.025 0  1 0.025 0  0 0.05 0  0.025 0.05 0  0.05 0.05 0  0.075 0.05 0  0.1 0.05 0  0.125 0.05 0  0.15 0.05 0  0.175 0.05 0  0.2 0.05 0  0.225 0.05 0  0.25 0.05 0  0.275 0.05 0  0.3 0.05 0  0.325 0.05 0  0.35 0.05 0  0.375 0.05 0  0.4 0.05 0  0.425 0.05 0  0.45 0.05 0  0.475 0.05 0  0.5 0.05 0  0.525 0.05 0  0.55 0.05 0  0.575 0.05 0  0.6 0.05 0  0.625 0.05 0  0.65 0.05 0  0.675 0.05 0  0.7 0.05 0  0.725 0.05 0  0.75 0.05 0  0.775 0.05 0  0.8 0.05 0  0.825 0.05 0  0.85 0.05 0  0.875 0.05 0  0.9 0.05 0  0.925 0.05 0  0.95 0.05 0  0.975 0.05 0  1 0.05 0  0 0.075 0  0.025 0.075 0  0.05 0.075 0  0.075 0.075 0  0.1 0.075 0  0.125 0.075 0  0.15 0.075 0  0.175 0.075 0  0.2 0.075 0  0.225 0.075 0  0.25 0.075 0  0.275 0.075 0  0.3 0.075 0  0.325 0.075 0  0.35 0.075 0  0.375 0.075 0  0.4 0.075 0  0.425 0.075 0  0.45 0.075 0  0.475 0.075 0  0.5 0.075 0  0.525 0.075 0  0.55 0.075 0  0.575 0.075 0  0.6 0.075 0  0.625 0.075 0  0.65 0.075 0  0.675 0.075 0  0.7 0.075 0  0.725 0.075 0  0.75 0.075 0  0.775 0.075 0  0.8 0.075 0  0.825 0.075 0  0.85 0.075 0  0.875 0.075 0  0.9 0.075 0  0.925 0.075 0  0.95 0.075 0  0.975 0.075 0  1 0.075 0  0 0.1 0  0.025 0.1 0  0.05 0.1 0  0.075 0.1 0  0.1 0.1 0  0.125 0.1 0  0.15 0.1 0  0.175 0.1 0  0.2 0.1 0  0.225 0.1 0  0.25 0.1 0  0.275 0.1 0  0.3 0.1 0  0.325 0.1 0  0.35 0.1 0  0.375 0.1 0  0.4 0.1 0  0.425 0.1 0  0.45 0.1 0  0.475 0.1 0  0.5 0.1 0  0.525 0.1 0  0.55 0.1 0  0.575 0.1 0  0.6 0.1 0  0.625 0.1 0  0.65 0.1 0  0.675 0.1 0  0.7 0.1 0  0.725 0.1 0  0.75 0.1 0  0.775 0.1 0  0.8 0.1 0  0.825 0.1 0  0.85 0.1 0  0.875 0.1 0  0.9 0.1 0  0.925 0.1 0  0.95 0.1 0  0.975 0.1 0  1 0.1 0  0 0.125 0  0.025 0.125 0  0.05 0.125 0  0.075 0.125 0  0.1 0.125 0  0.125 0.125 0  0.15 0.125 0  0.175 0.125 0  0.2 0.125 0  0.225 0.125 0  0.25 0.125 0  0.275 0.125 0  0.3 0.125 0  0.325 0.125 0  0.35 0.125 0  0.375 0.125 0  0.4 0.125 0  0.425 0.125 0  0.45 0.125 0  0.475 0.125 0  0.5 0.125 0  0.525 0.125 0  0.55 0.125 0  0.575 0.125 0  0.6 0.125 0  0.625 0.125 0  0.65 0.125 0  0.675 0.125 0  0.7 0.125 0  0.725 0.125 0  0.75 0.125 0  0.775 0.125 0  0.8 0.125 0  0.825 0.125 0  0.85 0.125 0  0.875 0.125 0  0.9 0.125 0  0.925 0.125 0  0.95 0.125 0  0.975 0.125 0  1 0.125 0  0 0.15 0  0.025 0.15 0  0.05 0.15 0  0.075 0.15 0  0.1 0.15 0  0.125 0.15 0  0.15 0.15 0  0.175 0.15 0  0.2 0.15 0  0.225 0.15 0  0.25 0.15 0  0.275 0.15 0  0.3 0.15 0  0.325 0.15 0  0.35 0.15 0  0.375 0.15 0  0.4 0.15 0  0.425 0.15 0  0.45 0.15 0  0.475 0.15 0  0.5 0.15 0  0.525 0.15 0  0.55 0.15 0  0.575 0.15 0  0.6 0.15 0  0.625 0.15 0  0.65 0.15 0  0.675 0.15 0  0.7 0.15 0  0.725 0.15 0  0.75 0.15 0  0.775 0.15 0  0.8 0.15 0  0.825 0.15 0  0.85 0.15 0  0.875 0.15 0  0.9 0.15 0  0.925 0.15 0  0.95 0.15 0  0.975 0.15 0  1 0.15 0  0 0.175 0  0.025 0.175 0  0.05 0.175 0  0.075 0.175 0  0.1 0.175 0  0.125 0.175 0  0.15 0.175 0  0.175 0.175 0  0.2 0.175 0  0.225 0.175 0  0.25 0.175 0  0.275 0.175 0  0.3 0.175 0  0.325 0.175 0  0.35 0.175 0  0.375 0.175 0  0.4 0.175 0  0.425 0.175 0  0.45 0.175 0  0.475 0.175 0  0.5 0.175 0  0.525 0.175 0  0.55 0.175 0  0.575 0.175 0  0.6 0.175 0  0.625 0.175 0  0.65 0.175 0  0.675 0.175 0  0.7 0.175 0  0.725 0.175 0  0.75 0.175 0  0.775 0.175 0  0.8 0.175 0  0.825 0.175 0  0.85 0.175 0  0.875 0.175 0  0.9 0.175 0  0.925 0.175 0  0.95 0.175 0  0.975 0.175 0  1 0.175 0  0 0.2 0  0.025 0.2 0  0.05 0.2 0  0.075 0.2 0  0.1 0.2 0  0.125 0.2 0  0.15 0.2 0  0.175 0.2 0  0.2 0.2 0  0.225 0.2 0  0.25 0.2 0  0.275 0.2 0  0.3 0.2 0  0.325 0.2 0  0.35 0.2 0  0.375 0.2 0  0.4 0.2 0  0.425 0.2 0  0.45 0.2 0  0.475 0.2 0  0.5 0.2 0  0.525 0.2 0  0.55 0.2 0  0.575 0.2 0  0.6 0.2 0  0.625 0.2 0  0.65 0.2 0  0.675 0.2 0  0.7 0.2 0  0.725 0.2 0  0.75 0.2 0  0.775 0.2 0  0.8 0.2 0  0.825 0.2 0  0.85 0.2 0  0.875 0.2 0  0.9 0.2 0  0.925 0.2 0  0.95 0.2 0  0.975 0.2 0  1 0.2 0  0 0.225 0  0.025 0.225 0  0.05 0.225 0  0.075 0.225 0  0.1 0.225 0  0.125 0.225 0  0.15 0.225 0  0.175 0.225 0  0.2 0.225 0  0.225 0.225 0  0.25 0.225 0  0.275 0.225 0  0.3 0.225 0  0.325 0.225 0  0.35 0.225 0  0.375 0.225 0  0.4 0.225 0  0.425 0.225 0  0.45 0.225 0  0.475 0.225 0  0.5 0.225 0  0.525 0.225 0  0.55 0.225 0  0.575 0.225 0  0.6 0.225 0  0.625 0.225 0  0.65 0.225 0  0.675 0.225 0  0.7 0.225 0  0.725 0.225 0  0.75 0.225 0  0.775 0.225 0  0.8 0.225 0  0.825 0.225 0  0.85 0.225 0  0.875 0.225 0  0.9 0.225 0  0.925 0.225 0  0.95 0.225 0  0.975 0.225 0  1 0.225 0  0 0.25 0  0.025 0.25 0  0.05 0.25 0  0.075 0.25 0  0.1 0.25 0  0.125 0.25 0  0.15 0.25 0  0.175 0.25 0  0.2 0.25 0  0.225 0.25 0  0.25 0.25 0  0.275 0.25 0  0.3 0.25 0  0.325 0.25 0  0.35 0.25 0  0.375 0.25 0  0.4 0.25 0  0.425 0.25 0  0.45 0.25 0  0.475 0.25 0  0.5 0.25 0  0.525 0.25 0  0.55 0.25 0  0.575 0.25 0  0.6 0.25 0  0.625 0.25 0  0.65 0.25 0  0.675 0.25 0  0.7 0.25 0  0.725 0.25 0  0.75 0.25 0  0.775 0.25 0  0.8 0.25 0  0.825 0.25 0  0.85 0.25 0  0.875 0.25 0  0.9 0.25 0  0.925 0.25 0  0.95 0.25 0  0.975 0.25 0  1 0.25 0  0 0.275 0  0.025 0.275 0  0.05 0.275 0  0.075 0.275 0  0.1 0.275 0  0.125 0.275 0  0.15 0.275 0  0.175 0.275 0  0.2 0.275 0  0.225 0.275 0  0.25 0.275 0  0.275 0.275 0  0.3 0.275 0  0.325 0.275 0  0.35 0.275 0  0.375 0.275 0  0.4 0.275 0  0.425 0.275 0  0.45 0.275 0  0.475 0.275 0  0.5 0.275 0  0.525 0.275 0  0.55 0.275 0  0.575 0.275 0  0.6 0.275 0  0.625 0.275 0  0.65 0.275 0  0.675 0.275 0  0.7 0.275 0  0.725 0.275 0  0.75 0.275 0  0.775 0.275 0  0.8 0.275 0  0.825 0.275 0  0.85 0.275 0  0.875 0.275 0  0.9 0.275 0  0.925 0.275 0  0.95 0.275 0  0.975 0.275 0  1 0.275 0  0 0.3 0  0.025 0.3 0  0.05 0.3 0  0.075 0.3 0  0.1 0.3 0  0.125 0.3 0  0.15 0.3 0  0.175 0.3 0  0.2 0.3 0  0.225 0.3 0  0.25 0.3 0  0.275 0.3 0  0.3 0.3 0  0.325 0.3 0  0.35 0.3 0  0.375 0.3 0  0.4 0.3 0  0.425 0.3 0  0.45 0.3 0  0.475 0.3 0  0.5 0.3 0  0.525 0.3 0  0.55 0.3 0  0.575 0.3 0  0.6 0.3 0  0.625 0.3 0  0.65 0.3 0  0.675 0.3 0  0.7 0.3 0  0.725 0.3 0  0.75 0.3 0  0.775 0.3 0  0.8 0.3 0  0.825 0.3 0  0.85 0.3 0  0.875 0.3 0  0.9 0.3 0  0.925 0.3 0  0.95 0.3 0  0.975 0.3 0  1 0.3 0  0 0.325 0  0.025 0.325 0  0.05 0.325 0  0.075 0.325 0  0.1 0.325 0  0.125 0.325 0  0.15 0.325 0  0.175 0.325 0  0.2 0.325 0  0.225 0.325 0  0.25 0.325 0  0.275 0.325 0  0.3 0.325 0  0.325 0.325 0  0.35 0.325 0  0.375 0.325 0  0.4 0.325 0  0.425 0.325 0  0.45 0.325 0  0.475 0.325 0  0.5 0.325 0  0.525 0.325 0  0.55 0.325 0  0.575 0.325 0  0.6 0.325 0  0.625 0.325 0  0.65 0.325 0  0.675 0.325 0  0.7 0.325 0  0.725 0.325 0  0.75 0.325 0  0.775 0.325 0  0.8 0.325 0  0.825 0.325 0  0.85 0.325 0  0.875 0.325 0  0.9 0.325 0  0.925 0.325 0  0.95 0.325 0  0.975 0.325 0  1 0.325 0  0 0.35 0  0.025 0.35 0  0.05 0.35 0  0.075 0.35 0  0.1 0.35 0  0.125 0.35 0  0.15 0.35 0  0.175 0.35 0  0.2 0.35 0  0.225 0.35 0  0.25 0.35 0  0.275 0.35 0  0.3 0.35 0  0.325 0.35 0  0.35 0.35 0  0.375 0.35 0  0.4 0.35 0  0.425 0.35 0  0.45 0.35 0  0.475 0.35 0  0.5 0.35 0  0.525 0.35 0  0.55 0.35 0  0.575 0.35 0  0.6 0.35 0  0.625 0.35 0  0.65 0.35 0  0.675 0.35 0  0.7 0.35 0  0.725 0.35 0  0.75 0.35 0  0.775 0.35 0  0.8 0.35 0  0.825 0.35 0  0.85 0.35 0  0.875 0.35 0  0.9 0.35 0  0.925 0.35 0  0.95 0.35 0  0.975 0.35 0  1 0.35 0  0 0.375 0  0.025 0.375 0  0.05 0.375 0  0.075 0.375 0  0.1 0.375 0  0.125 0.375 0  0.15 0.375 0  0.175 0.375 0  0.2 0.375 0  0.225 0.375 0  0.25 0.375 0  0.275 0.375 0  0.3 0.375 0  0.325 0.375 0  0.35 0.375 0  0.375 0.375 0  0.4 0.375 0  0.425 0.375 0  0.45 0.375 0  0.475 0.375 0  0.5 0.375 0  0.525 0.375 0  0.55 0.375 0  0.575 0.375 0  0.6 0.375 0  0.625 0.375 0  0.65 0.375 0  0.675 0.375 0  0.7 0.375 0  0.725 0.375 0  0.75 0.375 0  0.775 0.375 0  0.8 0.375 0  0.825 0.375 0  0.85 0.375 0  0.875 0.375 0  0.9 0.375 0  0.925 0.375 0  0.95 0.375 0  0.975 0.375 0  1 0.375 0  0 0.4 0  0.025 0.4 0  0.05 0.4 0  0.075 0.4 0  0.1 0.4 0  0.125 0.4 0  0.15 0.4 0  0.175 0.4 0  0.2 0.4 0  0.225 0.4 0  0.25 0.4 0  0.275 0.4 0  0.3 0.4 0  0.325 0.4 0  0.35 0.4 0  0.375 0.4 0  0.4 0.4 0  0.425 0.4 0  0.45 0.4 0  0.475 0.4 0  0.5 0.4 0  0.525 0.4 0  0.55 0.4 0  0.575 0.4 0  0.6 0.4 0  0.625 0.4 0  0.65 0.4 0  0.675 0.4 0  0.7 0.4 0  0.725 0.4 0  0.75 0.4 0  0.775 0.4 0  0.8 0.4 0  0.825 0.4 0  0.85 0.4 0  0.875 0.4 0  0.9 0.4 0  0.925 0.4 0  0.95 0.4 0  0.975 0.4 0  1 0.4 0  0 0.425 0  0.025 0.425 0  0.05 0.425 0  0.075 0.425 0  0.1 0.425 0  0.125 0.425 0  0.15 0.425 0  0.175 0.425 0  0.2 0.425 0  0.225 0.425 0  0.25 0.425 0  0.275 0.425 0  0.3 0.425 0  0.325 0.425 0  0.35 0.425 0  0.375 0.425 0  0.4 0.425 0  0.425 0.425 0  0.45 0.425 0  0.475 0.425 0  0.5 0.425 0  0.525 0.425 0  0.55 0.425 0  0.575 0.425 0  0.6 0.425 0  0.625 0.425 0  0.65 0.425 0  0.675 0.425 0  0.7 0.425 0  0.725 0.425 0  0.75 0.425 0  0.775 0.425 0  0.8 0.425 0  0.825 0.425 0  0.85 0.425 0  0.875 0.425 0  0.9 0.425 0  0.925 0.425 0  0.95 0.425 0  0.975 0.425 0  1 0.425 0  0 0.45 0  0.02
[...]
<PointData  Scalars="ControlVisualisation"> 
<DataArray  type="Float64"  Name="ControlVisualisation"  format="ascii">3.7817834573458691e-08  2.1879120970312192e-08  2.1880218559330631e-08  2.1882054056352971e-08  2.1884571527748149e-08  2.1887704833933714e-08  2.1891369673595658e-08  2.1895468434631060e-08  2.1899892857987736e-08  2.1904527590997428e-08  2.1909252161670186e-08  2.1913945603912230e-08  2.1918489025025567e-08  2.1922768844104072e-08  2.1926679816145906e-08  2.1930125297158963e-08  2.1933022790530297e-08  2.1935302583516965e-08  2.1936910252085761e-08  2.1937808081101429e-08  2.1937975167892190e-08  2.1937407302081725e-08  2.1936118727822850e-08  2.1934139334406825e-08  2.1931516974968981e-08  2.1928314111787849e-08  2.1924608083004646e-08  2.1920489109344592e-08  2.1916058518146579e-08  2.1911426241183348e-08  2.1906708820136850e-08  2.1902025993653104e-08  2.1897497805728438e-08  2.1893241626322158e-08  2.1889368645436833e-08  2.1885981045667688e-08  2.1883168600358969e-08  2.1881005936686489e-08  2.1879556423364006e-08  2.1878834745192208e-08  8.5633097766311876e-08  2.1879123525725514e-08  5.9399840301329155e-09  5.9410597592283744e-09  5.9429529972768749e-09  5.9456331262458325e-09  5.9490286781838286e-09  5.9530485035832175e-09  5.9575857857185578e-09  5.9625208944694114e-09  5.9677249367924461e-09  5.9730630634754225e-09  5.9783981247603482e-09  5.9835947012664200e-09  5.9885220404602912e-09  5.9930588525594838e-09  5.9970927572155838e-09  6.0005255673988628e-09  6.0032749772872996e-09  6.0052750316903272e-09  6.0064777537213543e-09  6.0068555372022957e-09  6.0063989733656685e-09  6.0051195641093660e-09  6.0030475931346527e-09  6.0002326702152533e-09  5.9967426403646641e-09  5.9926618425549403e-09  5.9880896681695599e-09  5.9831386286334476e-09  5.9779315985912605e-09  5.9725991961221132e-09  5.9672765150147147e-09  5.9620996355729653e-09  5.9572020589805170e-09  5.9527112775780753e-09  5.9487450280585940e-09  5.9454079863714788e-09  5.9427886998942635e-09  5.9409550238072819e-09  5.9398993486147958e-09  2.1878835129568609e-08  2.1880248483421718e-08  5.9410817097423956e-09  5.9424278280062306e-09  5.9445853792720498e-09  5.9476454046992553e-09  5.9515304612556139e-09  5.9561367200636325e-09  5.9613417871516146e-09  5.9670083315313531e-09  5.9729880302815944e-09  5.9791260700206178e-09  5.9852646067149888e-09  5.9912481792445704e-09  5.9969259542015558e-09  6.0021573749106660e-09  6.0068144980277566e-09  6.0107830682473325e-09  6.0139678509885642e-09  6.0162930188075442e-09  6.0177029105523134e-09  6.0181644883579284e-09  6.0176671314139716e-09  6.0162226752391389e-09  6.0138657616301697e-09  6.0106527216997997e-09  6.0066604333453054e-09  6.0019854679430936e-09  5.9967417360906332e-09  5.9910580090686441e-09  5.9850755013463667e-09  5.9789437886072270e-09  5.9728183086642247e-09  5.9668556932601399e-09  5.9612096556427013e-09  5.9560272136787029e-09  5.9514441731861058e-09  5.9475816803620006e-09  5.9445410750950151e-09  5.9423915015559179e-09  5.9409736426742179e-09  2.1879566081049514e-08  2.1882197253607756e-08  5.9430759218182403e-09  5.9446973404673315e-09  5.9468808926354773e-09  5.9499615857402207e-09  5.9538721841328252e-09  5.9585088247611458e-09  5.9637478867628044e-09  5.9694509064150588e-09  5.9754681977742986e-09  5.9816437663911273e-09  5.9878186369297519e-09  5.9938362785160504e-09  5.9995460440590507e-09  6.0048056719332084e-09  6.0094870592809813e-09  6.0134765586725705e-09  6.0166783049538178e-09  6.0190158804011111e-09  6.0204342950980489e-09  6.0209000979204036e-09  6.0204031642985661e-09  6.0189546527111833e-09  6.0165893995635349e-09  6.0133633201150752e-09  6.0093535792317096e-09  6.0046564559972567e-09  5.9993863377932010e-09  5.9936723298884885e-09  5.9876557625024626e-09  5.9814873359261900e-09  5.9753230977760448e-09  5.9693208988031880e-09  5.9636357096743018e-09  5.9584158286914549e-09  5.9537984182918156e-09  5.9499056498803674e-09  5.9468389006912990e-09  5.9446509971645978e-09  5.9428993161403170e-09  2.1881073399064703e-08  2.1885017829904921e-08  5.9460430108881507e-09  5.9480789568253130e-09  5.9502845375764065e-09  5.9533669972156074e-09  5.9572777228311709e-09  5.9619134166851590e-09  5.9671498639576467e-09  5.9728481870034850e-09  5.9788586360077301e-09  5.9850248954173673e-09  5.9911880902197441e-09  5.9971918314107575e-09  6.0028860648292533e-09  6.0081297592427010e-09  6.0127949099189301e-09  6.0167695223133628e-09  6.0199585045655294e-09  6.0222863472329241e-09  6.0236982679898975e-09  6.0241614361638707e-09  6.0236662574307307e-09  6.0222235042950371e-09  6.0198671613691684e-09  6.0166528200374829e-09  6.0126568117078958e-09  6.0079746869474292e-09  6.0027192868649599e-09  5.9970192718959740e-09  5.9910152791710194e-09  5.9848571406390959e-09  5.9787009970797910e-09  5.9727043840984793e-09  5.9670226108518895e-09  5.9618043144961322e-09  5.9571870924715191e-09  5.9532934419383222e-09  5.9502238542112962e-09  5.9480071280607907e-09  5.9457853654911740e-09  2.1883422656557466e-08  2.1888790420934265e-08  5.9500667148351279e-09  5.9526725869001651e-09  5.9549070723683976e-09  5.9579896112353092e-09  5.9618979486766794e-09  5.9665292567025033e-09  5.9717585909673346e-09  5.9774466345242767e-09  5.9834431273172869e-09  5.9895917522210411e-09  5.9957343118497470e-09  6.0017145127741681e-09  6.0073831003078230e-09  6.0126006466571811e-09  6.0172401244796921e-09  6.0211909785256281e-09  6.0243596557783400e-09  6.0266715798544682e-09  6.0280736655009103e-09  6.0285333182307942e-09  6.0280401134295823e-09  6.0266058099483582e-09  6.0242634129829218e-09  6.0210674708769151e-09  6.0170930974619321e-09  6.0124346928027395e-09  6.0072036321761926e-09  6.0015267400020750e-09  5.9955442980799706e-09  5.9894049062716436e-09  5.9832643797522271e-09  5.9772799514734736e-09  5.9716070298780004e-09  5.9663946708720585e-09  5.9617810860125020e-09  5.9578892274715951e-09  5.9548183727527627e-09  5.9525653523831148e-09  5.9497142828631432e-09  2.1886673440180207e-08  2.1893621145878204e-08  5.9552605909471589e-09  5.9586084240397470e-09  5.9608801083510445e-09  5.9639614545503013e-09  5.9678647010052916e-09  5.9724879602822633e-09  5.9777058150161516e-09  5.9833777787752819e-09  5.9893535556731943e-09  5.9954760961701625e-09  6.0015881711004137e-09  6.0075348235500989e-09  6.0131672366738484e-09  6.0183477010370633e-09  6.0229512958382754e-09  6.0268691950720935e-09  6.0300097550266507e-09  6.0322997568661279e-09  6.0336879443031222e-09  6.0341425363100819e-09  6.0336528505094405e-09  6.0322299804809045e-09  6.0299069080997949e-09  6.0267367337924386e-09  6.0227926516502423e-09  6.0181675055067781e-09  6.0129707189134487e-09  6.0073273111725132e-09  6.0013756425540420e-09  5.9952637867815949e-09  5.9891462762773428e-09  5.9831803412341802e-09  5.9775214310801811e-09  5.9723190117410814e-09  5.9677119893045606e-09  5.9638240510297677e-09  5.9607529822073585e-09  5.9584545947021998e-09  5.9547960260813659e-09  2.1890916283636603e-08  2.1899646943396984e-08  5.9617731306323629e-09  5.9660561695689434e-09  5.9683737718375120e-09  5.9714517613624675e-09  5.9753463374254652e-09  5.9799562539846536e-09  5.9851556991101566e-09  5.9908031973968955e-09  5.9967480633188964e-09  6.0028338007904993e-09  6.0089024673088715e-09  6.0148011601485539e-09  6.0203831654092648e-09  6.0255127900534028e-09  6.0300669488749176e-09  6.0339398657734809e-09  6.0370425641830663e-09  6.0393035479191812e-09  6.0406728669275631e-09  6.0411202090497790e-09  6.0406351843236193e-09  6.0392287277721801e-09  6.0369319830311859e-09  6.0337967745314078e-09  6.0298943629057185e-09  6.0253149834369768e-09  6.0201656782056232e-09  6.0145690801646659e-09  6.0086610958582874e-09  6.0025882501262496e-09  5.9965043077411365e-09  5.9905658178128417e-09  5.9849282640826000e-09  5.9797416745825116e-09  5.9751456530749768e-09  5.9712648008795786e-09  5.9681950888940930e-09  5.9658413356779932e-09  5.9611742722227536e-09  2.1896269888943022e-08  2.1907040869022232e-08  5.9697926552596196e-09  5.9752311482810209e-09  5.9776040088060632e-09  5.9806751722087719e-09  5.9845552664823124e-09  5.9891446796010566e-09  5.9943160259679941e-09  5.9999271969674176e-09  6.0058266278646876e-09  6.0118589072516393e-09  6.0178667974592753e-09  6.0236988408087097e-09  6.0292109268386310e-09  6.0342705782301976e-09  6.0387577598642207e-09  6.0425697214354857e-09  6.0456210868326015e-09  6.0478433955137830e-09  6.0491880683811233e-09  6.0496258970796259e-09  6.0491472990047271e-09  6.0477626290541857e-09  6.0455016311556353e-09  6.0424140461591408e-09  6.0385684863495000e-09  6.0340518588516279e-09  6.0289678294171178e-09  6.0234360109213785e-09  6.0175894239587805e-09  6.0115722248967944e-09  6.0055365845245009e-09  5.9996382892240903e-09  5.9940327012034207e-09  5.9888703530067022e-09  5.9842917481953801e-09  5.9804226785191414e-09  5.9773569482024050e-09  5.9749367764788102e-09  5.9690309221798583e-09  2.1902885047049465e-08  2.1916017339479434e-08  5.9795545178063174e-09  5.9864031618681385e-09  5.9888409928064499e-09  5.9919002651294258e-09  5.9957576447616191e-09  6.0003152019063903e-09  6.0054444737206962e-09  6.0110023115480559e-09  6.0168367202454435e-09  6.0227924272484134e-09  6.0287145413138365e-09  6.0344535171081360e-09  6.0398693504810133e-09  6.0448328816591304e-09  6.0492293220331281e-09  6.0529596624056884e-09  6.0559424351873645e-09  6.0581124272457766e-09  6.0594243626854039e-09  6.0598500924402669e-09  6.0593801191872933e-09  6.0580250586716951e-09  6.0558123804047600e-09  6.0527893250576470e-09  6.0490210965765007e-09  6.0445901239539004e-09  6.0395958388996333e-09  6.0341538796988469e-09  6.0283932839790252e-09  6.0224548872914158e-09  6.0164884085323375e-09  6.0106483981830321e-09  6.0050898370864264e-09  5.9999637039553758e-09  5.9954117497393254e-09  5.9915610680293187e-09  5.9885031019598286e-09  5.9860042226390461e-09  5.9785929224335065e-09  2.1910949908059296e-08  2.1926839846613640e-08  5.9913483497816325e-09  5.9999049019636046e-09  6.0024192074685867e-09  6.0054595059989759e-09  6.0092830361499462e-09  6.0137935656184989e-09  6.0188607420298909e-09  6.0243405695323515e-09  6.0300809255630195e-09  6.0359280203113931e-09  6.0417292105628443e-09  6.0473386691388822e-09  6.0526215835201624e-09  6.0574536788533245e-09  6.0617265867046504e-09  6.0653468828938245e-09  6.0682379765411288e-09  6.0703387309923701e-09  6.0716063404137964e-09  6.0720164016070059e-09  6.0715589762786287e-09  6.0702439524492238e-09  6.0680967816605277e-09  6.0651607324061893e-09  6.0614973305249302e-09  6.0571833297453029e-09  6.0523128866676905e-09  6.0469956815876376e-09  6.0413555881957697e-09  6.0355285418566696e-09  6.0296608832181179e-09  6.0239049316671483e-09  6.0184148110514196e-09  6.0133418400884353e-09  6.0088291878714696e-09  6.0050058910699468e-09  6.0019606880369339e-09  5.9993687877457235e-09  5.9901399450717317e-09  2.1920696483195789e-08  2.1939831078135248e-08  6.0055309977672075e-09  6.0161458600962300e-09  6.0187496210857491e-09  6.0217626102697042e-09  6.0255375418356631e-09  6.0299801900647531e-09  6.0349574727650077e-09  6.0403248721800209e-09  6.0459300353917563e-09  6.0516219472833896e-09  6.0572525045199882e-09  6.0626812581415512e-09  6.0677800430420805e-09  6.0724327682526802e-09  6.0765373299310062e-09  6.0800090708340807e-09  6.0827771227256118e-09  6.0847857314264616e-09  6.0859957537547707e-09  6.0863845991829797e-09  6.0859449147164767e-09  6.0846836646379681e-09  6.0826247288432835e-09  6.0798066692070537e-09  6.0762856631114316e-09  6.0721319747825723e-09  6.0674324858632256e-09  6.0622889783281916e-09  6.0568176800555561e-09  6.0511485623035978e-09  6.0454221334857141e-09  6.0397869744480498e-09  6.0343954691864543e-09  6.0293991006907624e-09  6.0249426585316700e-09  6.0211579717710203e-09  6.0181313517112111e-09  6.0154291727409949e-09  6.0040145185140276e-09  2.1932408126549606e-08  2.1955382818403756e-08  6.0225383861121484e-09  6.0356293325067972e-09  6.0383392585260672e-09  6.0413145761124205e-09  6.0450224087389103e-09  6.0493689491958368e-09  6.0542178405840930e-09  6.0594231296204997e-09  6.0648350593490157e-09  6.0703057622103768e-09  6.0756947495792302e-09  6.0808701187030325e-09  6.0857137512801700e-09  6.0901199307123166e-09  6.0939965413730865e-09  6.0972667974219549e-09  6.0998693865679506e-09  6.1017551970399867e-09  6.1028896470884927e-09  6.1032515643874263e-09  6.1028355440831934e-09  6.1016473617499988e-09  6.0997068270688379e-09  6.0970488974893635e-09  6.0937219923894054e-09  6.0897880493282720e-09  6.0853246729319054e-09  6.0804233511723521e-09  6.0751900222388244e-09  6.0697453215448966e-09  6.0642210798801136e-09  6.0587593758809164e-09  6.0535093345407164e-09  6.0486215450508868e-09  6.0442430090874020e-09  6.0405099154026930e-09  6.0375070769306268e-09  6.0346721434526385e-09  6.0206334493760605e-09  2.1946428828733837e-08  2.1973967997097772e-08  6.0429008462760037e-09  6.0589699539746031e-09  6.0618110315580117e-09  6.0647404351248028e-09  6.0683597616187483e-09  6.0725732121802093e-09  6.0772401426620420e-09  6.0822129230309726e-09  6.0873467595053656e-09  6.0925008034930523e-09  6.0975472233240670e-09  6.1023664373141249e-09  6.1068548662494748e-09  6.1109208261324641e-09  6.1144865792476380e-09  6.1174859611285659e-09  6.1198665599303240e-09  6.1215886743071355e-09  6.1226227400325035e-09  6.1229503021801159e-09  6.1225662287634095e-09  6.1214764785011924e-09  6.1196961865169861e-09  6.1172546208110870e-09  6.1141919487287642e-09  6.1105600895719214e-09  6.1064237166778749e-09  6.1018614719992351e-09  6.0969651960667574e-09  6.0918407598221003e-09  6.0866068025730426e-09  6.0813946462369197e-09  6.0763466800725174e-09  6.0716111044117097e-09  6.0673373734685804e-09  6.0636682643632964e-09  6.0606901267594435e-09  6.0576903463990488e-09  6.0405020754235022e-09  2.1963173673056336e-08  2.1996153354864929e-08  6.0672605100975982e-09  6.0869185541336795e-09  6.0899312500241113e-09  6.0928152732878641e-09  6.0963256856871971e-09  6.1003599752963401e-09  6.1047702463140181e-09  6.1094090923297089e-09  6.1141402338475782e-09  6.1188386353376023e-09  6.1233943911051354e-09  6.1277118344914938e-09  6.1317048135834068e-09  6.1353023731933722e-09  6.1384430462722435e-09  6.1410762744094709e-09  6.1431610486369346e-09  6.1446651365154271e-09  6.1455662920555514e-09  6.1458494535132785e-09  6.1455095104714143e-09  6.1445516018438608e-09  6.1429872417908553e-09  6.1408381352209517e-09  6.1381351745014423e-09  6.1349180183084256e-09  6.1312362987994645e-09  6.1271504476150621e-09  6.1227333101987108e-09  6.1180684302535279e-09  6.1132540845263076e-09  6.1084035842431825e-09  6.1036452373610598e-09  6.0991209143927700e-09  6.0949824890426175e-09  6.0913835125410875e-09  6.0884183116519927e-09  6.0852021658184969e-09  6.0642279010631128e-09  2.1983139422461349e-08  2.2022610471644309e-08  6.0963893374181607e-09  6.1203883622293311e-09  6.1236480453358373e-09  6.1265114987636949e-09  6.1299028543582539e-09  6.1337017897741672e-09  6.1377482684753223e-09  6.1419028687983140e-09  6.1460467987757132e-09  6.1500836788762852e-09  6.1539356024668215e-09  6.1575395847655236e-09  6.1608405993827340e-09  6.1637917150301567e-09  6.1663542617070368e-09  6.1684935195823905e-09  6.1701825838943760e-09  6.1713989072994827e-09  6.1721244973743424e-09  6.1723504324760462e-09  6.1720708136501841e-09  6.1712891418749157e-09  6.1700139665894276e-09  6.1682593110288489e-09  6.1660449914465330e-09  6.1633971042496846e-09  6.1603473984813106e-09  6.1569334815694238e-09  6.1532000433320415e-09  6.1491999640040166e-09  6.1449986517527917e-09  6.1406775019780825e-09  6.1363379692378517e-09  6.1321061700377396e-09  6.1281338308370004e-09  6.1245918537176260e-09  6.1215964944928397e-09  6.1180736549185012e-09  6.0925332748676032e-09  2.2006912436722913e-08  2.2054100157732499e-08  6.1311924649339078e-09  6.1604827485095250e-09  6.1641387240903137e-09  6.1670655932735618e-09  6.1703571507381045e-09  6.1738550266381105e-09  6.1773842306048403e-09  6.1808238266066343e-09  6.1840989252795157e-09  6.1871650938975147e-09  6.1899994573902989e-09  6.1925878764208591e-09  6.1949188738687234e-09  6.1969794134492248e-09  6.1987556221689024e-09  6.2002326173029638e-09  6.2013952905890552e-09  6.2022314889170570e-09  6.2027286557373410e-09  6.2028799905363259e-09  6.2026819569316177e-09  6.2021347292880061e-09  6.2012443529387632e-09  6.2000184971230685e-09  6.1984656421973598e-09  6.1965976664548880e-09  6.1944261381382359e-09  6.1919603652834794e-09  6.1892082454642587e-09  6.1861782834476210e-09  6.1828836264988219e-09  6.1793498492735693e-09  6.1756266232119952e-09  6.1718030931008843e-09  6.1680209830839640e-09  6.1644766307755669e-09  6.1613356035415837e-09  6.1573345662429454e-09  6.1262566465682970e-09  2.2035168235092855e-08  2.2091443170387548e-08  6.1726923546026741e-09  6.2085112206709193e-09  6.2128806736219448e-09  6.2160904241466808e-09  6.2193716220751529e-09  6.2224895742120951e-09  6.2252633996384467e-09  6.2276250183360274e-09  6.2295888037431749e-09  6.2312122864345965e-09  6.2325624111110107e-09  6.2337012187050456e-09  6.2346741714359137e-09  6.2355111533639459e-09  6.2362236600862025e-09  6.2368164022243317e-09  6.2372854024829289e-09  6.2376246887928000e-09  6.2378252830223271e-09  6.2378817172152768e-09  6.2377908704944664e-09  6.2375528769600991e-09  6.2371701197767332e-09  6.2366471892370542e-09  6.2359842423548720e-09  6.2351793353977039e-09  6.2342247168526861e-09  6.2330971202367080e-09  6.2317596443538069e-09  6.2301578723828854e-09  6.2282241719224459e-09  6.2258877498691462e-09  6.2230982006905845e-09  6.2198601758480952e-09  6.2162744947236025e-09  6.2125679264617737e-09  6.2090068305546746e-09  6.2041807842557654e-09  6.1663239858288438e-09  2.2068644954832855e-08  2.2135368062369839e-08  6.2219411759964326e-09  6.2659912348360681e-09  6.2717584624879786e-09  6.2757691692175376e-09  6.2792762690941309e-09  6.2819103979249637e-09  6.2835243002537012e-09  6.2841996896623518e-09  6.2841415666966322e-09  6.2835893273926650e-09  6.2827624346474214e-09  6.2818294147825727e-09  6.2809068018633039e-09  6.2800705410319584e-09  6.2793569406267739e-09  6.2787815805593508e-09  6.2783448077666841e-09  6.2780411486068301e-09  6.2778610664391935e-09  6.2777974333653507e-09  6.2778466617874039e-09  6.2780101591879988e-09  6.2782905881193869e-09  6.2786916807252414e-09  6.2792136503195215e-09  6.2798472412214845e-09  6.2805689446410219e-09  6.2813264993688388e-09  6.2820321480121881e-09  6.2825498331553167e-09  6.2826912833576198e-09  6.2822251407178650e-09  6.2809104055101724e-09  6.2785632466590912e-09  6.2751555554919440e-09  6.2709229009249523e-09  6.2663219806261005e-09  6.2599392630442734e-09  6.2136494450745276e-09  2.2108057934941855e-08  2.2186135557045071e-08  6.2797542685820997e-09  6.3345787914204371e-09  6.3432764112407002e-09  6.3492497424650651e-09  6.3534839649208595e-09  6.3554309263011908e-09  6.3551336422969021e-09  6.3530540637562946e-09  6.3497973607476773e-09  6.3459281056119842e-09  6.3418929885763235e-09  6.3380049222188142e-09  6.3344562154133482e-09  6.3313548802088282e-09  6.3287497004809307e-09  6.3266500214608100e-09  6.3250471533066790e-09  6.3239237638413974e-09  6.3232624373504578e-09  6.3230484192438742e-09  6.3232780871552242e-09  6.3239541030151332e-09  6.3250867981382538e-09  6.3266867591011535e-09  6.3287652610156722e-09  6.3313219248541418e-09  6.3343316681773937e-09  6.3377282040846473e-09  6.3413802908453407e-09  6.3450594444984505e-09  6.3484133578452550e-09  6.3509568784034032e-09  6.3520971231898777e-09  6.3512368787109820e-09  6.3479882225711719e-09  6.3424848302649013e-09  6.3354918128945651e-09  6.3259423137026609e-09  6.2688475416913380e-09  2.2153862332501675e-08  2.2242665465974935e-08  6.3460325839211101e-09  6.4159197192453399e-09  6.4310790141048888e-09  6.4415268326032209e-09  6.4473926181838485e-09  6.4480721733925187e-09  6.4443205241461632e-09  6.437529079