<?xml version="1.0"?>
<VTKFile type="UnstructuredGrid"  version="0.1"  >
<UnstructuredGrid>
<Piece  NumberOfPoints="1681" NumberOfCells="3200">
<Points>
<DataArray  type="Float64"  NumberOfComponents="3"  format="ascii">0 0 0  0.025 0 0  0.05 0 0  0.075 0 0  0.1 0 0  0.125 0 0  0.15 0 0  0.175 0 0  0.2 0 0  0.225 0 0  0.25 0 0  0.275 0 0  0.3 0 0  0.325 0 0  0.35 0 0  0.375 0 0  0.4 0 0  0.425 0 0  0.45 0 0  0.475 0 0  0.5 0 0  0.525 0 0  0.55 0 0  0.575 0 0  0.6 0 0  0.625 0 0  0.65 0 0  0.675 0 0  0.7 0 0  0.725 0 0  0.75 0 0  0.775 0 0  0.8 0 0  0.825 0 0  0.85 0 0  0.875 0 0  0.9 0 0  0.925 0 0  0.95 0 0  0.975 0 0  1 0 0  0 0.025 0  0.025 0.025 0  0.05 0.025 0  0.075 0.025 0  0.1 0.025 0  0.125 0.025 0  0.15 0.025 0  0.175 0.025 0  0.2 0.025 0  0.225 0.025 0  0.25 0.025 0  0.275 0.025 0  0.3 0.025 0  0.325 0.025 0  0.35 0.025 0  0.375 0.025 0  0.4 0.025 0  0.425 0.025 0  0.45 0.025 0  0.475 0.025 0  0.5 0.025 0  0.525 0.025 0  0.55 0.025 0  0.575 0.025 0  0.6 0.025 0  0.625 0.025 0  0.65 0.025 0  0.675 0.025 0  0.7 0.025 0  0.725 0.025 0  0.75 0.025 0  0.775 0.025 0  0.8 0.025 0  0.825 0.025 0  0.85 0.025 0  0.875 0.025 0  0.9 0.025 0  0.925 0.025 0  0.95 0.025 0  0.975 0.025 0  1 0.025 0  0 0.05 0  0.025 0.05 0  0.05 0.05 0  0.075 0.05 0  0.1 0.05 0  0.125 0.05 0  0.15 0.05 0  0.175 0.05 0  0.2 0.05 0  0.225 0.05 0  0.25 0.05 0  0.275 0.05 0  0.3 0.05 0  0.325 0.05 0  0.35 0.05 0  0.375 0.05 0  0.4 0.05 0  0.425 0.05 0  0.45 0.05 0  0.475 0.05 0  0.5 0.05 0  0.525 0.05 0  0.55 0.05 0  0.575 0.05 0  0.6 0.05 0  0.625 0.05 0  0.65 0.05 0  0.675 0.05 0  0.7 0.05 0  0.725 0.05 0  0.75 0.05 0  0.775 0.05 0  0.8 0.05 0  0.825 0.05 0  0.85 0.05 0  0.875 0.05 0  0.9 0.05 0  0.925 0.05 0  0.95 0.05 0  0.975 0.05 0  1 0.05 0  0 0.075 0  0.025 0.075 0  0.05 0.075 0  0.075 0.075 0  0.1 0.075 0  0.125 0.075 0  0.15 0.075 0  0.175 0.075 0  0.2 0.075 0  0.225 0.075 0  0.25 0.075 0  0.275 0.075 0  0.3 0.075 0  0.325 0.075 0  0.35 0.075 0  0.375 0.075 0  0.4 0.075 0  0.425 0.075 0  0.45 0.075 0  0.475 0.075 0  0.5 0.075 0  0.525 0.075 0  0.55 0.075 0  0.575 0.075 0  0.6 0.075 0  0.625 0.075 0  0.65 0.075 0  0.675 0.075 0  0.7 0.075 0  0.725 0.075 0  0.75 0.075 0  0.775 0.075 0  0.8 0.075 0  0.825 0.075 0  0.85 0.075 0  0.875 0.075 0  0.9 0.075 0  0.925 0.075 0  0.95 0.075 0  0.975 0.075 0  1 0.075 0  0 0.1 0  0.025 0.1 0  0.05 0.1 0  0.075 0.1 0  0.1 0.1 0  0.125 0.1 0  0.15 0.1 0  0.175 0.1 0  0.2 0.1 0  0.225 0.1 0  0.25 0.1 0  0.275 0.1 0  0.3 0.1 0  0.325 0.1 0  0.35 0.1 0  0.375 0.1 0  0.4 0.1 0  0.425 0.1 0  0.45 0.1 0  0.475 0.1 0  0.5 0.1 0  0.525 0.1 0  0.55 0.1 0  0.575 0.1 0  0.6 0.1 0  0.625 0.1 0  0.65 0.1 0  0.675 0.1 0  0.7 0.1 0  0.725 0.1 0  0.75 0.1 0  0.775 0.1 0  0.8 0.1 0  0.825 0.1 0  0.85 0.1 0  0.875 0.1 0  0.9 0.1 0  0.925 0.1 0  0.95 0.1 0  0.975 0.1 0  1 0.1 0  0 0.125 0  0.025 0.125 0  0.05 0.125 0  0.075 0.125 0  0.1 0.125 0  0.125 0.125 0  0.15 0.125 0  0.175 0.125 0  0.2 0.125 0  0.225 0.125 0  0.25 0.125 0  0.275 0.125 0  0.3 0.125 0  0.325 0.125 0  0.35 0.125 0  0.375 0.125 0  0.4 0.125 0  0.425 0.125 0  0.45 0.125 0  0.475 0.125 0  0.5 0.125 0  0.525 0.125 0  0.55 0.125 0  0.575 0.125 0  0.6 0.125 0  0.625 0.125 0  0.65 0.125 0  0.675 0.125 0  0.7 0.125 0  0.725 0.125 0  0.75 0.125 0  0.775 0.125 0  0.8 0.125 0  0.825 0.125 0  0.85 0.125 0  0.875 0.125 0  0.9 0.125 0  0.925 0.125 0  0.95 0.125 0  0.975 0.125 0  1 0.125 0  0 0.15 0  0.025 0.15 0  0.05 0.15 0  0.075 0.15 0  0.1 0.15 0  0.125 0.15 0  0.15 0.15 0  0.175 0.15 0  0.2 0.15 0  0.225 0.15 0  0.25 0.15 0  0.275 0.15 0  0.3 0.15 0  0.325 0.15 0  0.35 0.15 0  0.375 0.15 0  0.4 0.15 0  0.425 0.15 0  0.45 0.15 0  0.475 0.15 0  0.5 0.15 0  0.525 0.15 0  0.55 0.15 0  0.575 0.15 0  0.6 0.15 0  0.625 0.15 0  0.65 0.15 0  0.675 0.15 0  0.7 0.15 0  0.725 0.15 0  0.75 0.15 0  0.775 0.15 0  0.8 0.15 0  0.825 0.15 0  0.85 0.15 0  0.875 0.15 0  0.9 0.15 0  0.925 0.15 0  0.95 0.15 0  0.975 0.15 0  1 0.15 0  0 0.175 0  0.025 0.175 0  0.05 0.175 0  0.075 0.175 0  0.1 0.175 0  0.125 0.175 0  0.15 0.175 0  0.175 0.175 0  0.2 0.175 0  0.225 0.175 0  0.25 0.175 0  0.275 0.175 0  0.3 0.175 0  0.325 0.175 0  0.35 0.175 0  0.375 0.175 0  0.4 0.175 0  0.425 0.175 0  0.45 0.175 0  0.475 0.175 0  0.5 0.175 0  0.525 0.175 0  0.55 0.175 0  0.575 0.175 0  0.6 0.175 0  0.625 0.175 0  0.65 0.175 0  0.675 0.175 0  0.7 0.175 0  0.725 0.175 0  0.75 0.175 0  0.775 0.175 0  0.8 0.175 0  0.825 0.175 0  0.85 0.175 0  0.875 0.175 0  0.9 0.175 0  0.925 0.175 0  0.95 0.175 0  0.975 0.175 0  1 0.175 0  0 0.2 0  0.025 0.2 0  0.05 0.2 0  0.075 0.2 0  0.1 0.2 0  0.125 0.2 0  0.15 0.2 0  0.175 0.2 0  0.2 0.2 0  0.225 0.2 0  0.25 0.2 0  0.275 0.2 0  0.3 0.2 0  0.325 0.2 0  0.35 0.2 0  0.375 0.2 0  0.4 0.2 0  0.425 0.2 0  0.45 0.2 0  0.475 0.2 0  0.5 0.2 0  0.525 0.2 0  0.55 0.2 0  0.575 0.2 0  0.6 0.2 0  0.625 0.2 0  0.65 0.2 0  0.675 0.2 0  0.7 0.2 0  0.725 0.2 0  0.75 0.2 0  0.775 0.2 0  0.8 0.2 0  0.825 0.2 0  0.85 0.2 0  0.875 0.2 0  0.9 0.2 0  0.925 0.2 0  0.95 0.2 0  0.975 0.2 0  1 0.2 0  0 0.225 0  0.025 0.225 0  0.05 0.225 0  0.075 0.225 0  0.1 0.225 0  0.125 0.225 0  0.15 0.225 0  0.175 0.225 0  0.2 0.225 0  0.225 0.225 0  0.25 0.225 0  0.275 0.225 0  0.3 0.225 0  0.325 0.225 0  0.35 0.225 0  0.375 0.225 0  0.4 0.225 0  0.425 0.225 0  0.45 0.225 0  0.475 0.225 0  0.5 0.225 0  0.525 0.225 0  0.55 0.225 0  0.575 0.225 0  0.6 0.225 0  0.625 0.225 0  0.65 0.225 0  0.675 0.225 0  0.7 0.225 0  0.725 0.225 0  0.75 0.225 0  0.775 0.225 0  0.8 0.225 0  0.825 0.225 0  0.85 0.225 0  0.875 0.225 0  0.9 0.225 0  0.925 0.225 0  0.95 0.225 0  0.975 0.225 0  1 0.225 0  0 0.25 0  0.025 0.25 0  0.05 0.25 0  0.075 0.25 0  0.1 0.25 0  0.125 0.25 0  0.15 0.25 0  0.175 0.25 0  0.2 0.25 0  0.225 0.25 0  0.25 0.25 0  0.275 0.25 0  0.3 0.25 0  0.325 0.25 0  0.35 0.25 0  0.375 0.25 0  0.4 0.25 0  0.425 0.25 0  0.45 0.25 0  0.475 0.25 0  0.5 0.25 0  0.525 0.25 0  0.55 0.25 0  0.575 0.25 0  0.6 0.25 0  0.625 0.25 0  0.65 0.25 0  0.675 0.25 0  0.7 0.25 0  0.725 0.25 0  0.75 0.25 0  0.775 0.25 0  0.8 0.25 0  0.825 0.25 0  0.85 0.25 0  0.875 0.25 0  0.9 0.25 0  0.925 0.25 0  0.95 0.25 0  0.975 0.25 0  1 0.25 0  0 0.275 0  0.025 0.275 0  0.05 0.275 0  0.075 0.275 0  0.1 0.275 0  0.125 0.275 0  0.15 0.275 0  0.175 0.275 0  0.2 0.275 0  0.225 0.275 0  0.25 0.275 0  0.275 0.275 0  0.3 0.275 0  0.325 0.275 0  0.35 0.275 0  0.375 0.275 0  0.4 0.275 0  0.425 0.275 0  0.45 0.275 0  0.475 0.275 0  0.5 0.275 0  0.525 0.275 0  0.55 0.275 0  0.575 0.275 0  0.6 0.275 0  0.625 0.275 0  0.65 0.275 0  0.675 0.275 0  0.7 0.275 0  0.725 0.275 0  0.75 0.275 0  0.775 0.275 0  0.8 0.275 0  0.825 0.275 0  0.85 0.275 0  0.875 0.275 0  0.9 0.275 0  0.925 0.275 0  0.95 0.275 0  0.975 0.275 0  1 0.275 0  0 0.3 0  0.025 0.3 0  0.05 0.3 0  0.075 0.3 0  0.1 0.3 0  0.125 0.3 0  0.15 0.3 0  0.175 0.3 0  0.2 0.3 0  0.225 0.3 0  0.25 0.3 0  0.275 0.3 0  0.3 0.3 0  0.325 0.3 0  0.35 0.3 0  0.375 0.3 0  0.4 0.3 0  0.425 0.3 0  0.45 0.3 0  0.475 0.3 0  0.5 0.3 0  0.525 0.3 0  0.55 0.3 0  0.575 0.3 0  0.6 0.3 0  0.625 0.3 0  0.65 0.3 0  0.675 0.3 0  0.7 0.3 0  0.725 0.3 0  0.75 0.3 0  0.775 0.3 0  0.8 0.3 0  0.825 0.3 0  0.85 0.3 0  0.875 0.3 0  0.9 0.3 0  0.925 0.3 0  0.95 0.3 0  0.975 0.3 0  1 0.3 0  0 0.325 0  0.025 0.325 0  0.05 0.325 0  0.075 0.325 0  0.1 0.325 0  0.125 0.325 0  0.15 0.325 0  0.175 0.325 0  0.2 0.325 0  0.225 0.325 0  0.25 0.325 0  0.275 0.325 0  0.3 0.325 0  0.325 0.325 0  0.35 0.325 0  0.375 0.325 0  0.4 0.325 0  0.425 0.325 0  0.45 0.325 0  0.475 0.325 0  0.5 0.325 0  0.525 0.325 0  0.55 0.325 0  0.575 0.325 0  0.6 0.325 0  0.625 0.325 0  0.65 0.325 0  0.675 0.325 0  0.7 0.325 0  0.725 0.325 0  0.75 0.325 0  0.775 0.325 0  0.8 0.325 0  0.825 0.325 0  0.85 0.325 0  0.875 0.325 0  0.9 0.325 0  0.925 0.325 0  0.95 0.325 0  0.975 0.325 0  1 0.325 0  0 0.35 0  0.025 0.35 0  0.05 0.35 0  0.075 0.35 0  0.1 0.35 0  0.125 0.35 0  0.15 0.35 0  0.175 0.35 0  0.2 0.35 0  0.225 0.35 0  0.25 0.35 0  0.275 0.35 0  0.3 0.35 0  0.325 0.35 0  0.35 0.35 0  0.375 0.35 0  0.4 0.35 0  0.425 0.35 0  0.45 0.35 0  0.475 0.35 0  0.5 0.35 0  0.525 0.35 0  0.55 0.35 0  0.575 0.35 0  0.6 0.35 0  0.625 0.35 0  0.65 0.35 0  0.675 0.35 0  0.7 0.35 0  0.725 0.35 0  0.75 0.35 0  0.775 0.35 0  0.8 0.35 0  0.825 0.35 0  0.85 0.35 0  0.875 0.35 0  0.9 0.35 0  0.925 0.35 0  0.95 0.35 0  0.975 0.35 0  1 0.35 0  0 0.375 0  0.025 0.375 0  0.05 0.375 0  0.075 0.375 0  0.1 0.375 0  0.125 0.375 0  0.15 0.375 0  0.175 0.375 0  0.2 0.375 0  0.225 0.375 0  0.25 0.375 0  0.275 0.375 0  0.3 0.375 0  0.325 0.375 0  0.35 0.375 0  0.375 0.375 0  0.4 0.375 0  0.425 0.375 0  0.45 0.375 0  0.475 0.375 0  0.5 0.375 0  0.525 0.375 0  0.55 0.375 0  0.575 0.375 0  0.6 0.375 0  0.625 0.375 0  0.65 0.375 0  0.675 0.375 0  0.7 0.375 0  0.725 0.375 0  0.75 0.375 0  0.775 0.375 0  0.8 0.375 0  0.825 0.375 0  0.85 0.375 0  0.875 0.375 0  0.9 0.375 0  0.925 0.375 0  0.95 0.375 0  0.975 0.375 0  1 0.375 0  0 0.4 0  0.025 0.4 0  0.05 0.4 0  0.075 0.4 0  0.1 0.4 0  0.125 0.4 0  0.15 0.4 0  0.175 0.4 0  0.2 0.4 0  0.225 0.4 0  0.25 0.4 0  0.275 0.4 0  0.3 0.4 0  0.325 0.4 0  0.35 0.4 0  0.375 0.4 0  0.4 0.4 0  0.425 0.4 0  0.45 0.4 0  0.475 0.4 0  0.5 0.4 0  0.525 0.4 0  0.55 0.4 0  0.575 0.4 0  0.6 0.4 0  0.625 0.4 0  0.65 0.4 0  0.675 0.4 0  0.7 0.4 0  0.725 0.4 0  0.75 0.4 0  0.775 0.4 0  0.8 0.4 0  0.825 0.4 0  0.85 0.4 0  0.875 0.4 0  0.9 0.4 0  0.925 0.4 0  0.95 0.4 0  0.975 0.4 0  1 0.4 0  0 0.425 0  0.025 0.425 0  0.05 0.425 0  0.075 0.425 0  0.1 0.425 0  0.125 0.425 0  0.15 0.425 0  0.175 0.425 0  0.2 0.425 0  0.225 0.425 0  0.25 0.425 0  0.275 0.425 0  0.3 0.425 0  0.325 0.425 0  0.35 0.425 0  0.375 0.425 0  0.4 0.425 0  0.425 0.425 0  0.45 0.425 0  0.475 0.425 0  0.5 0.425 0  0.525 0.425 0  0.55 0.425 0  0.575 0.425 0  0.6 0.425 0  0.625 0.425 0  0.65 0.425 0  0.675 0.425 0  0.7 0.425 0  0.725 0.425 0  0.75 0.425 0  0.775 0.425 0  0.8 0.425 0  0.825 0.425 0  0.85 0.425 0  0.875 0.425 0  0.9 0.425 0  0.925 0.425 0  0.95 0.425 0  0.975 0.425 0  1 0.425 0  0 0.45 0  0.02
[...]
<PointData  Scalars="ControlVisualisation"> 
<DataArray  type="Float64"  Name="ControlVisualisation"  format="ascii">2.7687024827711920e-01  2.3938268694387566e-01  2.3959665430356175e-01  2.4014899513774965e-01  2.4100179708985872e-01  2.4204411552593894e-01  2.4314804477538465e-01  2.4420744738577541e-01  2.4515413692077972e-01  2.4595519720831832e-01  2.4660314784165727e-01  2.4710595445001454e-01  2.4747945702855700e-01  2.4774239977105184e-01  2.4791349365535931e-01  2.4800986332879865e-01  2.4804635531101824e-01  2.4803533919430576e-01  2.4798676154545798e-01  2.4790830405793315e-01  2.4780555804285836e-01  2.4768216475750576e-01  2.4753989305084056e-01  2.4737863860498302e-01  2.4719633776636363e-01  2.4698879843267660e-01  2.4674946620870825e-01  2.4646917478943298e-01  2.4613598579491716e-01  2.4573532672758649e-01  2.4525080227646484e-01  2.4466627795893536e-01  2.4397017588043893e-01  2.4316279498314958e-01  2.4226700483832486e-01  2.4134026135453818e-01  2.4047931109285056e-01  2.3980808795088995e-01  2.3943606111098120e-01  2.3936178314733347e-01  3.1713427596330407e-01  2.3937820783224006e-01  1.4676538540666123e-01  1.4873058204794815e-01  1.5277000892811560e-01  1.5886995063450415e-01  1.6643199846068774e-01  1.7465481045605311e-01  1.8280525871144399e-01  1.9034581657698246e-01  1.9695699629417174e-01  2.0250116726881809e-01  2.0696889688481179e-01  2.1042951091969886e-01  2.1299320156764817e-01  2.1478511708839904e-01  2.1592922643598073e-01  2.1653922403322060e-01  2.1671406750941744e-01  2.1653631250351074e-01  2.1607195864220136e-01  2.1537095662208317e-01  2.1446783706565964e-01  2.1338212975002654e-01  2.1211837895917929e-01  2.1066566026703767e-01  2.0899660041164617e-01  2.0706603442127391e-01  2.0480965800280898e-01  2.0214341428204730e-01  1.9896501459285501e-01  1.9515996149183568e-01  1.9061586521876581e-01  1.8525036445202503e-01  1.7905757084798118e-01  1.7217647060518460e-01  1.6496686614285577e-01  1.5805329851274669e-01  1.5226896316664787e-01  1.4836517989967585e-01  1.4648489677922585e-01  2.3936127655878089e-01  2.3954773451391242e-01  1.4866404274348274e-01  1.5392556149924186e-01  1.6247548246283716e-01  1.7478439869771728e-01  1.8978297103472538e-01  2.0591693581968157e-01  2.2179458142217659e-01  2.3641877328760913e-01  2.4920467665689261e-01  2.5990265163649934e-01  2.6849902088094485e-01  2.7512674229638384e-01  2.7999669032247831e-01  2.8334992074619358e-01  2.8542721586811820e-01  2.8645133214970397e-01  2.8661783923411593e-01  2.8609133349206739e-01  2.8500470425615304e-01  2.8345986580289823e-01  2.8152891269982311e-01  2.7925503624869558e-01  2.7665280143568366e-01  2.7370757869037654e-01  2.7037410875355905e-01  2.6657441672859861e-01  2.6219567171547326e-01  2.5708921442855853e-01  2.5107303687139271e-01  2.4394150429552788e-01  2.3548855130040192e-01  2.2555247655977259e-01  2.1409241604820020e-01  2.0130431442398466e-01  1.8775623549998055e-01  1.7450579221824211e-01  1.6299888028139314e-01  1.5438662347284404e-01  1.4840912850097826e-01  2.3942899445574553e-01  2.3996100885218030e-01  1.5267908013638926e-01  1.6334145039034742e-01  1.7679858001730964e-01  1.9393731467493991e-01  2.1323492315789527e-01  2.3276855992300760e-01  2.5112698804506173e-01  2.6746433161679156e-01  2.8136954445787993e-01  2.9273301116686651e-01  3.0164313962600259e-01  3.0830764040897335e-01  3.1299513481646751e-01  3.1599394859826258e-01  3.1758500238971021e-01  3.1802553764093638e-01  3.1754057990924967e-01  3.1631950654494256e-01  3.1451566237667605e-01  3.1224751710886395e-01  3.0960031499523943e-01  3.0662751622067219e-01  3.0335158573046678e-01  2.9976388039304830e-01  2.9582356087485490e-01  2.9145566201088341e-01  2.8654876531731555e-01  2.8095320567305465e-01  2.7448158137167572e-01  2.6691447950810165e-01  2.5801659337953126e-01  2.4756979326188633e-01  2.3543686803924879e-01  2.2166512622792625e-01  2.0664454890376008e-01  1.9130650404803384e-01  1.7703494788126797e-01  1.6477189973607248e-01  1.5287701440398527e-01  2.3980009012520762e-01  2.4053984799816897e-01  1.5919875234334943e-01  1.8147878626821756e-01  2.0405816219435266e-01  2.2725198257432094e-01  2.4931804302312971e-01  2.6902668622315051e-01  2.8591173068649639e-01  2.9993755245388715e-01  3.1124030479442150e-01  3.2002632769169898e-01  3.2654121993350160e-01  3.3105449255055003e-01  3.3384507806950703e-01  3.3518711900426512e-01  3.3533811462495033e-01  3.3453058920816747e-01  3.3296730616742554e-01  3.3081938166856467e-01  3.2822641405667918e-01  3.2529777163720669e-01  3.2211432656578637e-01  3.1873009699416210e-01  3.1517341910972507e-01  3.1144740235647433e-01  3.0752953072317502e-01  3.0337037724237970e-01  2.9889152140867603e-01  2.9398291985532399e-01  2.8850026141425117e-01  2.8226310292522772e-01  2.7505576734449788e-01  2.6663297158554738e-01  2.5674157108186807e-01  2.4516126546619996e-01  2.3183032889348021e-01  2.1699676951009578e-01  2.0122125147856837e-01  1.8425511096313912e-01  1.6150362887779859e-01  2.4060430351174661e-01  2.4101027794397292e-01  1.7372398204534378e-01  2.2064911426009329e-01  2.5892119751569093e-01  2.8712814864462738e-01  3.0742171646064737e-01  3.2190483767448930e-01  3.3226905410810298e-01  3.3967797030648117e-01  3.4485505911200415e-01  3.4824908168376784e-01  3.5016311464690503e-01  3.5083011796146685e-01  3.5044981051287999e-01  3.4920335024063059e-01  3.4725714168152721e-01  3.4476224793355303e-01  3.4185275071959975e-01  3.3864453161336178e-01  3.3523491468279154e-01  3.3170310354620192e-01  3.2811114889765114e-01  3.2450514986259538e-01  3.2091643155457061e-01  3.1736249858606957e-01  3.1384761091067764e-01  3.1036284565557037e-01  3.0688547340562455e-01  3.0337735289957563e-01  2.9978178012544560e-01  2.9601759230558500e-01  2.9196893687891790e-01  2.8746634027375989e-01  2.8226112592840080e-01  2.7597794725409230e-01  2.6810680940237053e-01  2.5781204060835888e-01  2.4359963947755936e-01  2.2059158174546145e-01  1.7665037454641422e-01  2.4172814430396863e-01  2.5621108179255697e-01  2.3065844150793802e-01  3.2030915372036195e-01  3.6671245937937919e-01  3.8733820494034615e-01  3.9421772290733270e-01  3.9439220446776851e-01  3.9163414291253962e-01  3.8773593392358341e-01  3.8345638996927339e-01  3.7907549276581931e-01  3.7467311883556015e-01  3.7025747672820569e-01  3.6582057034094351e-01  3.6136006268831850e-01  3.5688558265400616e-01  3.5241803294471713e-01  3.4798628835399831e-01  3.4362354729527184e-01  3.3936438352166021e-01  3.3524284840071511e-01  3.3129161850062994e-01  3.2754204253108021e-01  3.2402492132406213e-01  3.2077188936398393e-01  3.1781731308668182e-01  3.1520064616390886e-01  3.1296914361609929e-01  3.1118066948633738e-01  3.0990588559334348e-01  3.0922814528787557e-01  3.0923774847572649e-01  3.1001235398199334e-01  3.1157651267066305e-01  3.1380075023176440e-01  3.1625388525403164e-01  3.1761424465088073e-01  3.1441952114495297e-01  2.9439387062380790e-01  2.2061228378939648e-01  2.4561664040947262e-01  4.5370967545914997e-01  4.8552376624872384e-01  5.3597090376193257e-01  5.4160022967908750e-01  5.2909868806028681e-01  5.0699818966394250e-01  4.8299583625936693e-01  4.6083108027825709e-01  4.4163003267197809e-01  4.2534420856315691e-01  4.1154494074425335e-01  3.9975389793623067e-01  3.8954899206597293e-01  3.8058755048208393e-01  3.7260391697274542e-01  3.6539954176688477e-01  3.5883115750960110e-01  3.5279927642301118e-01  3.4723818011477803e-01  3.4210796932119258e-01  3.3738881712884866e-01  3.3307732390251332e-01  3.2918478399208129e-01  3.2573719787962674e-01  3.2277695549993624e-01  3.2036624698207572e-01  3.1859240657484583e-01  3.1757554398143706e-01  3.1747892289710605e-01  3.1852248209647199e-01  3.2099945776594829e-01  3.2529438754678408e-01  3.3189658790750870e-01  3.4139739493945997e-01  3.5441700279395039e-01  3.7143393515370560e-01  3.9197500850642775e-01  4.1282737321032348e-01  4.1848882038472057e-01  3.7851786335639859e-01  2.9764648585314868e-01  7.7995817489093056e-01  8.5639593181035834e-01  7.9006185614236046e-01  7.3680361016629559e-01  6.8307069754725647e-01  6.2735948439003397e-01  5.7582846685348366e-01  5.3188995880917755e-01  4.9588355956781155e-01  4.6672931631610698e-01  4.4306353988424535e-01  4.2368118867413807e-01  4.0762047195161139e-01  3.9413808439896425e-01  3.8266711985266089e-01  3.7277980333880573e-01  3.6415730389613393e-01  3.5656557791859683e-01  3.4983634724788676e-01  3.4385260016325636e-01  3.3853808846772887e-01  3.3385033009556719e-01  3.2977670791379310e-01  3.2633340153379609e-01  3.2356709546584794e-01  3.2155967439609329e-01  3.2043646041692420e-01  3.2037899844820517e-01  3.2164398776375869e-01  3.2459068889812959e-01  3.2971987511992246e-01  3.3772724712952434e-01  3.4957215748203563e-01  3.6654877465051477e-01  3.9030256559523235e-01  4.2266339701927691e-01  4.6457471065476241e-01  5.1426440366678638e-01  5.5473150661845871e-01  6.0735989511672794e-01  4.9318592153651780e-01  8.9822335652853369e-01  9.7997895898211462e-01  9.3489933287311344e-01  8.7332726645035208e-01  8.0305001270367127e-01  7.2773393796486929e-01  6.5593107774733672e-01  5.9399274742399266e-01  5.4335411591274474e-01  5.0277025635912143e-01  4.7029457887507442e-01  4.4413699929468714e-01  4.2286110300778701e-01  4.0536057937879921e-01  3.9079396811814870e-01  3.7852525963803041e-01  3.6807688218791024e-01  3.5909338260905893e-01  3.5131365861718372e-01  3.4455014466492245e-01  3.3867375157257301e-01  3.3360363130852999e-01  3.2930108690105497e-01  3.2576722045401812e-01  3.2304423140956129e-01  3.2122067044391855e-01  3.2044147232080084e-01  3.2092431702681612e-01  3.2298492286743885e-01  3.2707540095130577e-01  3.3384182141784141e-01  3.4420913774272927e-01  3.5950130153514531e-01  3.8158738728801500e-01  4.1299127117526357e-01  4.5667036937979411e-01  5.1465737815401169e-01  5.8561378476370063e-01  6.5025292104724530e-01  7.2362290576856603e-01  6.2800785682558202e-01  9.2433268800183177e-01  9.9842033898390092e-01  9.7564161899714441e-01  9.2630758749975939e-01  8.6374191394912003e-01  7.8795135738747524e-01  7.0883643866254220e-01  6.3723762491290703e-01  5.7731626135075576e-01  5.2885993688490018e-01  4.9004174056647254e-01  4.5887609553296838e-01  4.3367734147476716e-01  4.1311530249856093e-01  3.9616531780646613e-01  3.8204588453332944e-01  3.7016490300464638e-01  3.6007690689084210e-01  3.5145001989966207e-01  3.4404103849998552e-01  3.3767723531328853e-01  3.3224374473400031e-01  3.2767568639942729e-01  3.2395450630163730e-01  3.2110838316281781e-01  3.1921699237158557e-01  3.1842150557542220e-01  3.1894153902128780e-01  3.2110201510399866e-01  3.2537479596719576e-01  3.3244268439522812e-01  3.4329678751462456e-01  3.5937957663917364e-01  3.8277335843231280e-01  4.1637040914912926e-01  4.6366221972190819e-01  5.2735939899267903e-01  6.0569747249565387e-01  6.7980638444759012e-01  7.5400136747426050e-01  6.5991231677506224e-01  8.8478232464377826e-01  9.8734086471021809e-01  9.5508469097134963e-01  9.1515276673626778e-01  8.6817112210987069e-01  8.0306994644342022e-01  7.2793005224152774e-01  6.5587829907178152e-01  5.9339709569191967e-01  5.4182070217238754e-01  5.0002334980104091e-01  4.6625747645680815e-01  4.3888119434892026e-01  4.1653583692112939e-01  3.9814551781080482e-01  3.8287389609450673e-01  3.7007745147366439e-01  3.5926490753297258e-01  3.5006443810296528e-01  3.4219822650757542e-01  3.3546344327188904e-01  3.2971868471235505e-01  3.2487508055064845e-01  3.2089153627513833e-01  3.1777389549756785e-01  3.1557819998864939e-01  3.1441873833480161e-01  3.1448229866364658e-01  3.1605112175796701e-01  3.1953869436222815e-01  3.2554496315586329e-01  3.3494076228282060e-01  3.4899357385153074e-01  3.6954098281741410e-01  3.9916776277000904e-01  4.4113431329723113e-01  4.9835566452334473e-01  5.6951260543657634e-01  6.4316102205797554e-01  7.1795578667300619e-01  6.3293683066012896e-01  7.3666108530404462e-01  8.8745229242821944e-01  8.6195738938652100e-01  8.5265327196450191e-01  8.2688930996058663e-01  7.7801950050274460e-01  7.1435570621761213e-01  6.4932660263342878e-01  5.9052467750315418e-01  5.4060177020875799e-01  4.9935443634063115e-01  4.6557669700910281e-01  4.3792497150241416e-01  4.1520142427869927e-01  3.9641456812410486e-01  3.8076942515892387e-01  3.6763924388503111e-01  3.5653527285884945e-01  3.4707984429572519e-01  3.3898422765750780e-01  3.3203132978210576e-01  3.2606283123632507e-01  3.2097025097349818e-01  3.1668951956928265e-01  3.1319882693355311e-01  3.1051976486459637e-01  3.0872211812714667e-01  3.0793311088654607e-01  3.0835255900391467e-01  3.1027630837247744e-01  3.1413164457331977e-01  3.2052994412029295e-01  3.3034294375707907e-01  3.4480578928720640e-01  3.6562465789253146e-01  3.9497314175674997e-01  4.3488651538801076e-01  4.8480936345862685e-01  5.3959633770592796e-01  5.7655036374735991e-01  5.2584003386975176e-01  3.8270319879339204e-01  6.1048558318855850e-01  6.9140938482860437e-01  7.4679241859914902e-01  7.5096071768772021e-01  7.2218919479598431e-01  6.7445874898504876e-01  6.2130122893705186e-01  5.7075480270237544e-01  5.2631575187909374e-01  4.8863016691119171e-01  4.5714639606328911e-01  4.3096773746825912e-01  4.0918962716554302e-01  3.9100974975417524e-01  3.7575371887404269e-01  3.6287028903970442e-01  3.5191633752958651e-01  3.4253971914745762e-01  3.3446331436248727e-01  3.2747152739166235e-01  3.2139955602282122e-01  3.1612536010574871e-01  3.1156413208423883e-01  3.0766508642149115e-01  3.0441046881433287e-01  3.0181681067720245e-01  2.9993860780946585e-01  2.9887477677211027e-01  2.9877841308922709e-01  2.9987045548114805e-01  3.0245759414991119e-01  3.0695353109704177e-01  3.1389851685873693e-01  3.2396040270296822e-01  3.3785709184108159e-01  3.5590993101444984e-01  3.7625084427676658e-01  3.8840050840372881e-01  3.4218136826756118e-01  3.3529862073430966e-01  2.5760325909242299e-01  3.4012124039298447e-01  5.3078954148307456e-01  6.2565123201287842e-01  6.5711866641098049e-01  6.4831358588926558e-01  6.1754637542990065e-01  5.7822455224874403e-01  5.3833536867686704e-01  5.0172263666377725e-01  4.6964187071293539e-01  4.4213727696538979e-01  4.1878412364708500e-01  3.9902244697346134e-01  3.8229249535081128e-01  3.6808751233405557e-01  3.5597036431839613e-01  3.4557412408210675e-01  3.3659585120679125e-01  3.2878808014296601e-01  3.2195021327362172e-01  3.1592081566776037e-01  3.1057119098751884e-01  3.0580031453887624e-01  3.0153106147306069e-01  2.9770760959621895e-01  2.9429386332603269e-01  2.9127269657202731e-01  2.8864570142902307e-01  2.8643288393629446e-01  2.8467124291476620e-01  2.8341017885331510e-01  2.8269988485920250e-01  2.8256594187538786e-01  2.8295966502284303e-01  2.8365835441255272e-01  2.8399067658217647e-01  2.8166065010810887e-01  2.6735737161412010e-01  2.1411622916582046e-01  2.5148574993560580e-01  2.5046658878796996e-01  2.6231278207159453e-01  4.2689609309142867e-01  5.2137030684322350e-01  5.6465763634772193e-01  5.6996719531484297e-01  5.5360027813601964e-01  5.2738506350535697e-01  4.9843066767796307e-01  4.7041001823086448e-01  4.4486355863526134e-01  4.2225759997085488e-01  4.0256220232126128e-01  3.8553628039690924e-01  3.7086225295510761e-01  3.5821161715276972e-01  3.4727570129143320e-01  3.3777836922868498e-01  3.2947921330771235e-01  3.2217196695896616e-01  3.1568076241784765e-01  3.0985565174548824e-01  3.0456811302255909e-01  2.9970686686338316e-01  2.9517410397804028e-01  2.9088209147838173e-01  2.8675003006362315e-01  2.8270093552622660e-01  2.7865817910303292e-01  2.7454110575493712e-01  2.7025883498110154e-01  2.6570096782952862e-01  2.6072381104729475e-01  2.5513199764956840e-01  2.4866106764474316e-01  2.4097787947463933e-01  2.3170196611749538e-01  2.2013984927363942e-01  2.0334616225776733e-01  1.7369142764797246e-01  2.4230966271023210e-01  2.4981683693379925e-01  2.4199392971944272e-01  3.6760659498424592e-01  4.4465073691687890e-01  4.8557559043098758e-01  4.9722986627692334e-01  4.9083334078736118e-01  4.7520924784474511e-01  4.5589422795140233e-01  4.3595211447277471e-01  4.1689104077035566e-01  3.9938330454925430e-01  3.8365916467630057e-01  3.6971882348614910e-01  3.5744551975652816e-01  3.4666923386195453e-01  3.3720234736191423e-01  3.2885888905040528e-01  3.2146388961508010e-01  3.1485689984162429e-01  3.0889215975288031e-01  3.0343692243042825e-01  2.9836881062632542e-01  2.9357269734588620e-01  2.8893737022110449e-01  2.8435210810332329e-01  2.7970323178150275e-01  2.7487066938459576e-01  2.6972459729002674e-01  2.6412230492223943e-01  2.5790567360245542e-01  2.5090030382164930e-01  2.4291903842684845e-01  2.3377672271311914e-01  2.2333231762839983e-01  2.1158877312956692e-01  1.9887436275205492e-01  1.8595519594689711e-01  1.7333183799611646e-01  1.5859755969401387e-01  2.4094419570827175e-01  2.4871316933742293e-01  2.2833563269911430e-01  3.2851401818666176e-01  3.8851735700800399e-01  4.2208041130006668e-01  4.3485329222811669e-01  4.3425570610603587e-01  4.2617267049941410e-01  4.1443407459637066e-01  4.0128831484274208e-01  3.8799511033840484e-01  3.7524308379704741e-01  3.6338145038905867e-01  3.5255566254246418e-01  3.4278799176432989e-01  3.3402891022161318e-01  3.2618967237320406e-01  3.1916250308525346e-01  3.1283240152455871e-01  3.0708339351326075e-01  3.0180116116305777e-01  2.9687334249544889e-01  2.9218834255840020e-01  2.8763320155654509e-01  2.8309089154372730e-01  2.7843733998817910e-01  2.7353849760794086e-01  2.6824788511534264e-01  2.6240529576285210e-01  2.5583775172938933e-01  2.4836451980613419e-01  2.3980921083006621e-01  2.3002406693618418e-01  2.1893487645447690e-01  2.0661965373609073e-01  1.9343424718971983e-01  1.8017465072441435e-01  1.6814905129857655e-01  1.5866879039862286e-01  1.5138770085382475e-01  2.4003715627697098e-01  2.4772144540543167e-01  2.1837780871415280e-01  3.0104238002920147e-01  3.4663052562093288e-01  3.7216477262937403e-01  3.8358650809533906e-01  3.8583935934168301e-01  3.8262318183547622e-01  3.7633172991865688e-01  3.6844109479077525e-01  3.5987660123716381e-01  3.5122130167059701e-01  3.4283312813926037e-01  3.3491652757720569e-01  3.2757029861847625e-01  3.2082228299456045e-01  3.1465404756337911e-01  3.0901794037812191e-01  3.0384825530584009e-01  2.9906801966199309e-01  2.9459259800965876e-01  2.9033101727109822e-01  2.8618567497620251e-01  2.8205092422456229e-01  2.7781094372673620e-01  2.7333730927485905e-01  2.6848680049401497e-01  2.6310023107727837e-01  2.5700352425062911e-01  2.5001290988772601e-01  2.4194705787148565e-01  2.3265017029076068e-01  2.2203132310581866e-01  2.1012605402009593e-01  1.9718384440664238e-01  1.8377310318211118e-01  1.7086693585403187e-01  1.5980842301231910e-01  1.5197896816138212e-01  1.4785139392378130e-01  2.3956118392700707e-01  2.4675593164307588e-01  2.0943337997365657e-01  2.7853711876228404e-01  3.1358567814851895e-01  3.3272150948664586e-01  3.4215476278816381e-01  3.4555749984658135e-01  3.4525051539394591e-01  3.4261840653387204e-01  3.3854045682266709e-01  3.3362094654681118e-01  3.2828866158006814e-01  3.2284516307539735e-01  3.1749275688343198e-01  3.1235660593138820e-01  3.0750360513000002e-01  3.0295781937906946e-01  2.9871244066403435e-01  2.9473842420085394e-01  2.9099025527400424e-01  2.8740935384874516e-01  2.8392559702686637e-01  2.8045737377156621e-01  2.7691053726352233e-01  2.7317661976655211e-01  2.6913075388144736e-01  2.6462993649962019e-01  2.5951262115362483e-01  2.5360117853447273e-01  2.4670955587240123e-01  2.3865950435211258e-01  2.2930974585360958e-01  2.1860299640864875e-01  2.0663419921290260e-01  1.9373611079510433e-01  1.8056211679527398e-01  1.6811859236640328e-01  1.5766962274047930e-01  1.5044275715308283e-01  1.4697284749155692e-01  2.3940444112651818e-01  2.4583965538990105e-01  2.0133147569602006e-01  2.5953259218360031e-01  2.8685471529140255e-01  3.0115343325803218e-01  3.0871136066974969e-01  3.1242464540540321e-01  3.1375501808862671e-01  3.134638599