<?xml version="1.0"?>
<VTKFile type="UnstructuredGrid"  version="0.1"  >
<UnstructuredGrid>
<Piece  NumberOfPoints="1681" NumberOfCells="3200">
<Points>
<DataArray  type="Float64"  NumberOfComponents="3"  format="ascii">0 0 0  0.025 0 0  0.05 0 0  0.075 0 0  0.1 0 0  0.125 0 0  0.15 0 0  0.175 0 0  0.2 0 0  0.225 0 0  0.25 0 0  0.275 0 0  0.3 0 0  0.325 0 0  0.35 0 0  0.375 0 0  0.4 0 0  0.425 0 0  0.45 0 0  0.475 0 0  0.5 0 0  0.525 0 0  0.55 0 0  0.575 0 0  0.6 0 0  0.625 0 0  0.65 0 0  0.675 0 0  0.7 0 0  0.725 0 0  0.75 0 0  0.775 0 0  0.8 0 0  0.825 0 0  0.85 0 0  0.875 0 0  0.9 0 0  0.925 0 0  0.95 0 0  0.975 0 0  1 0 0  0 0.025 0  0.025 0.025 0  0.05 0.025 0  0.075 0.025 0  0.1 0.025 0  0.125 0.025 0  0.15 0.025 0  0.175 0.025 0  0.2 0.025 0  0.225 0.025 0  0.25 0.025 0  0.275 0.025 0  0.3 0.025 0  0.325 0.025 0  0.35 0.025 0  0.375 0.025 0  0.4 0.025 0  0.425 0.025 0  0.45 0.025 0  0.475 0.025 0  0.5 0.025 0  0.525 0.025 0  0.55 0.025 0  0.575 0.025 0  0.6 0.025 0  0.625 0.025 0  0.65 0.025 0  0.675 0.025 0  0.7 0.025 0  0.725 0.025 0  0.75 0.025 0  0.775 0.025 0  0.8 0.025 0  0.825 0.025 0  0.85 0.025 0  0.875 0.025 0  0.9 0.025 0  0.925 0.025 0  0.95 0.025 0  0.975 0.025 0  1 0.025 0  0 0.05 0  0.025 0.05 0  0.05 0.05 0  0.075 0.05 0  0.1 0.05 0  0.125 0.05 0  0.15 0.05 0  0.175 0.05 0  0.2 0.05 0  0.225 0.05 0  0.25 0.05 0  0.275 0.05 0  0.3 0.05 0  0.325 0.05 0  0.35 0.05 0  0.375 0.05 0  0.4 0.05 0  0.425 0.05 0  0.45 0.05 0  0.475 0.05 0  0.5 0.05 0  0.525 0.05 0  0.55 0.05 0  0.575 0.05 0  0.6 0.05 0  0.625 0.05 0  0.65 0.05 0  0.675 0.05 0  0.7 0.05 0  0.725 0.05 0  0.75 0.05 0  0.775 0.05 0  0.8 0.05 0  0.825 0.05 0  0.85 0.05 0  0.875 0.05 0  0.9 0.05 0  0.925 0.05 0  0.95 0.05 0  0.975 0.05 0  1 0.05 0  0 0.075 0  0.025 0.075 0  0.05 0.075 0  0.075 0.075 0  0.1 0.075 0  0.125 0.075 0  0.15 0.075 0  0.175 0.075 0  0.2 0.075 0  0.225 0.075 0  0.25 0.075 0  0.275 0.075 0  0.3 0.075 0  0.325 0.075 0  0.35 0.075 0  0.375 0.075 0  0.4 0.075 0  0.425 0.075 0  0.45 0.075 0  0.475 0.075 0  0.5 0.075 0  0.525 0.075 0  0.55 0.075 0  0.575 0.075 0  0.6 0.075 0  0.625 0.075 0  0.65 0.075 0  0.675 0.075 0  0.7 0.075 0  0.725 0.075 0  0.75 0.075 0  0.775 0.075 0  0.8 0.075 0  0.825 0.075 0  0.85 0.075 0  0.875 0.075 0  0.9 0.075 0  0.925 0.075 0  0.95 0.075 0  0.975 0.075 0  1 0.075 0  0 0.1 0  0.025 0.1 0  0.05 0.1 0  0.075 0.1 0  0.1 0.1 0  0.125 0.1 0  0.15 0.1 0  0.175 0.1 0  0.2 0.1 0  0.225 0.1 0  0.25 0.1 0  0.275 0.1 0  0.3 0.1 0  0.325 0.1 0  0.35 0.1 0  0.375 0.1 0  0.4 0.1 0  0.425 0.1 0  0.45 0.1 0  0.475 0.1 0  0.5 0.1 0  0.525 0.1 0  0.55 0.1 0  0.575 0.1 0  0.6 0.1 0  0.625 0.1 0  0.65 0.1 0  0.675 0.1 0  0.7 0.1 0  0.725 0.1 0  0.75 0.1 0  0.775 0.1 0  0.8 0.1 0  0.825 0.1 0  0.85 0.1 0  0.875 0.1 0  0.9 0.1 0  0.925 0.1 0  0.95 0.1 0  0.975 0.1 0  1 0.1 0  0 0.125 0  0.025 0.125 0  0.05 0.125 0  0.075 0.125 0  0.1 0.125 0  0.125 0.125 0  0.15 0.125 0  0.175 0.125 0  0.2 0.125 0  0.225 0.125 0  0.25 0.125 0  0.275 0.125 0  0.3 0.125 0  0.325 0.125 0  0.35 0.125 0  0.375 0.125 0  0.4 0.125 0  0.425 0.125 0  0.45 0.125 0  0.475 0.125 0  0.5 0.125 0  0.525 0.125 0  0.55 0.125 0  0.575 0.125 0  0.6 0.125 0  0.625 0.125 0  0.65 0.125 0  0.675 0.125 0  0.7 0.125 0  0.725 0.125 0  0.75 0.125 0  0.775 0.125 0  0.8 0.125 0  0.825 0.125 0  0.85 0.125 0  0.875 0.125 0  0.9 0.125 0  0.925 0.125 0  0.95 0.125 0  0.975 0.125 0  1 0.125 0  0 0.15 0  0.025 0.15 0  0.05 0.15 0  0.075 0.15 0  0.1 0.15 0  0.125 0.15 0  0.15 0.15 0  0.175 0.15 0  0.2 0.15 0  0.225 0.15 0  0.25 0.15 0  0.275 0.15 0  0.3 0.15 0  0.325 0.15 0  0.35 0.15 0  0.375 0.15 0  0.4 0.15 0  0.425 0.15 0  0.45 0.15 0  0.475 0.15 0  0.5 0.15 0  0.525 0.15 0  0.55 0.15 0  0.575 0.15 0  0.6 0.15 0  0.625 0.15 0  0.65 0.15 0  0.675 0.15 0  0.7 0.15 0  0.725 0.15 0  0.75 0.15 0  0.775 0.15 0  0.8 0.15 0  0.825 0.15 0  0.85 0.15 0  0.875 0.15 0  0.9 0.15 0  0.925 0.15 0  0.95 0.15 0  0.975 0.15 0  1 0.15 0  0 0.175 0  0.025 0.175 0  0.05 0.175 0  0.075 0.175 0  0.1 0.175 0  0.125 0.175 0  0.15 0.175 0  0.175 0.175 0  0.2 0.175 0  0.225 0.175 0  0.25 0.175 0  0.275 0.175 0  0.3 0.175 0  0.325 0.175 0  0.35 0.175 0  0.375 0.175 0  0.4 0.175 0  0.425 0.175 0  0.45 0.175 0  0.475 0.175 0  0.5 0.175 0  0.525 0.175 0  0.55 0.175 0  0.575 0.175 0  0.6 0.175 0  0.625 0.175 0  0.65 0.175 0  0.675 0.175 0  0.7 0.175 0  0.725 0.175 0  0.75 0.175 0  0.775 0.175 0  0.8 0.175 0  0.825 0.175 0  0.85 0.175 0  0.875 0.175 0  0.9 0.175 0  0.925 0.175 0  0.95 0.175 0  0.975 0.175 0  1 0.175 0  0 0.2 0  0.025 0.2 0  0.05 0.2 0  0.075 0.2 0  0.1 0.2 0  0.125 0.2 0  0.15 0.2 0  0.175 0.2 0  0.2 0.2 0  0.225 0.2 0  0.25 0.2 0  0.275 0.2 0  0.3 0.2 0  0.325 0.2 0  0.35 0.2 0  0.375 0.2 0  0.4 0.2 0  0.425 0.2 0  0.45 0.2 0  0.475 0.2 0  0.5 0.2 0  0.525 0.2 0  0.55 0.2 0  0.575 0.2 0  0.6 0.2 0  0.625 0.2 0  0.65 0.2 0  0.675 0.2 0  0.7 0.2 0  0.725 0.2 0  0.75 0.2 0  0.775 0.2 0  0.8 0.2 0  0.825 0.2 0  0.85 0.2 0  0.875 0.2 0  0.9 0.2 0  0.925 0.2 0  0.95 0.2 0  0.975 0.2 0  1 0.2 0  0 0.225 0  0.025 0.225 0  0.05 0.225 0  0.075 0.225 0  0.1 0.225 0  0.125 0.225 0  0.15 0.225 0  0.175 0.225 0  0.2 0.225 0  0.225 0.225 0  0.25 0.225 0  0.275 0.225 0  0.3 0.225 0  0.325 0.225 0  0.35 0.225 0  0.375 0.225 0  0.4 0.225 0  0.425 0.225 0  0.45 0.225 0  0.475 0.225 0  0.5 0.225 0  0.525 0.225 0  0.55 0.225 0  0.575 0.225 0  0.6 0.225 0  0.625 0.225 0  0.65 0.225 0  0.675 0.225 0  0.7 0.225 0  0.725 0.225 0  0.75 0.225 0  0.775 0.225 0  0.8 0.225 0  0.825 0.225 0  0.85 0.225 0  0.875 0.225 0  0.9 0.225 0  0.925 0.225 0  0.95 0.225 0  0.975 0.225 0  1 0.225 0  0 0.25 0  0.025 0.25 0  0.05 0.25 0  0.075 0.25 0  0.1 0.25 0  0.125 0.25 0  0.15 0.25 0  0.175 0.25 0  0.2 0.25 0  0.225 0.25 0  0.25 0.25 0  0.275 0.25 0  0.3 0.25 0  0.325 0.25 0  0.35 0.25 0  0.375 0.25 0  0.4 0.25 0  0.425 0.25 0  0.45 0.25 0  0.475 0.25 0  0.5 0.25 0  0.525 0.25 0  0.55 0.25 0  0.575 0.25 0  0.6 0.25 0  0.625 0.25 0  0.65 0.25 0  0.675 0.25 0  0.7 0.25 0  0.725 0.25 0  0.75 0.25 0  0.775 0.25 0  0.8 0.25 0  0.825 0.25 0  0.85 0.25 0  0.875 0.25 0  0.9 0.25 0  0.925 0.25 0  0.95 0.25 0  0.975 0.25 0  1 0.25 0  0 0.275 0  0.025 0.275 0  0.05 0.275 0  0.075 0.275 0  0.1 0.275 0  0.125 0.275 0  0.15 0.275 0  0.175 0.275 0  0.2 0.275 0  0.225 0.275 0  0.25 0.275 0  0.275 0.275 0  0.3 0.275 0  0.325 0.275 0  0.35 0.275 0  0.375 0.275 0  0.4 0.275 0  0.425 0.275 0  0.45 0.275 0  0.475 0.275 0  0.5 0.275 0  0.525 0.275 0  0.55 0.275 0  0.575 0.275 0  0.6 0.275 0  0.625 0.275 0  0.65 0.275 0  0.675 0.275 0  0.7 0.275 0  0.725 0.275 0  0.75 0.275 0  0.775 0.275 0  0.8 0.275 0  0.825 0.275 0  0.85 0.275 0  0.875 0.275 0  0.9 0.275 0  0.925 0.275 0  0.95 0.275 0  0.975 0.275 0  1 0.275 0  0 0.3 0  0.025 0.3 0  0.05 0.3 0  0.075 0.3 0  0.1 0.3 0  0.125 0.3 0  0.15 0.3 0  0.175 0.3 0  0.2 0.3 0  0.225 0.3 0  0.25 0.3 0  0.275 0.3 0  0.3 0.3 0  0.325 0.3 0  0.35 0.3 0  0.375 0.3 0  0.4 0.3 0  0.425 0.3 0  0.45 0.3 0  0.475 0.3 0  0.5 0.3 0  0.525 0.3 0  0.55 0.3 0  0.575 0.3 0  0.6 0.3 0  0.625 0.3 0  0.65 0.3 0  0.675 0.3 0  0.7 0.3 0  0.725 0.3 0  0.75 0.3 0  0.775 0.3 0  0.8 0.3 0  0.825 0.3 0  0.85 0.3 0  0.875 0.3 0  0.9 0.3 0  0.925 0.3 0  0.95 0.3 0  0.975 0.3 0  1 0.3 0  0 0.325 0  0.025 0.325 0  0.05 0.325 0  0.075 0.325 0  0.1 0.325 0  0.125 0.325 0  0.15 0.325 0  0.175 0.325 0  0.2 0.325 0  0.225 0.325 0  0.25 0.325 0  0.275 0.325 0  0.3 0.325 0  0.325 0.325 0  0.35 0.325 0  0.375 0.325 0  0.4 0.325 0  0.425 0.325 0  0.45 0.325 0  0.475 0.325 0  0.5 0.325 0  0.525 0.325 0  0.55 0.325 0  0.575 0.325 0  0.6 0.325 0  0.625 0.325 0  0.65 0.325 0  0.675 0.325 0  0.7 0.325 0  0.725 0.325 0  0.75 0.325 0  0.775 0.325 0  0.8 0.325 0  0.825 0.325 0  0.85 0.325 0  0.875 0.325 0  0.9 0.325 0  0.925 0.325 0  0.95 0.325 0  0.975 0.325 0  1 0.325 0  0 0.35 0  0.025 0.35 0  0.05 0.35 0  0.075 0.35 0  0.1 0.35 0  0.125 0.35 0  0.15 0.35 0  0.175 0.35 0  0.2 0.35 0  0.225 0.35 0  0.25 0.35 0  0.275 0.35 0  0.3 0.35 0  0.325 0.35 0  0.35 0.35 0  0.375 0.35 0  0.4 0.35 0  0.425 0.35 0  0.45 0.35 0  0.475 0.35 0  0.5 0.35 0  0.525 0.35 0  0.55 0.35 0  0.575 0.35 0  0.6 0.35 0  0.625 0.35 0  0.65 0.35 0  0.675 0.35 0  0.7 0.35 0  0.725 0.35 0  0.75 0.35 0  0.775 0.35 0  0.8 0.35 0  0.825 0.35 0  0.85 0.35 0  0.875 0.35 0  0.9 0.35 0  0.925 0.35 0  0.95 0.35 0  0.975 0.35 0  1 0.35 0  0 0.375 0  0.025 0.375 0  0.05 0.375 0  0.075 0.375 0  0.1 0.375 0  0.125 0.375 0  0.15 0.375 0  0.175 0.375 0  0.2 0.375 0  0.225 0.375 0  0.25 0.375 0  0.275 0.375 0  0.3 0.375 0  0.325 0.375 0  0.35 0.375 0  0.375 0.375 0  0.4 0.375 0  0.425 0.375 0  0.45 0.375 0  0.475 0.375 0  0.5 0.375 0  0.525 0.375 0  0.55 0.375 0  0.575 0.375 0  0.6 0.375 0  0.625 0.375 0  0.65 0.375 0  0.675 0.375 0  0.7 0.375 0  0.725 0.375 0  0.75 0.375 0  0.775 0.375 0  0.8 0.375 0  0.825 0.375 0  0.85 0.375 0  0.875 0.375 0  0.9 0.375 0  0.925 0.375 0  0.95 0.375 0  0.975 0.375 0  1 0.375 0  0 0.4 0  0.025 0.4 0  0.05 0.4 0  0.075 0.4 0  0.1 0.4 0  0.125 0.4 0  0.15 0.4 0  0.175 0.4 0  0.2 0.4 0  0.225 0.4 0  0.25 0.4 0  0.275 0.4 0  0.3 0.4 0  0.325 0.4 0  0.35 0.4 0  0.375 0.4 0  0.4 0.4 0  0.425 0.4 0  0.45 0.4 0  0.475 0.4 0  0.5 0.4 0  0.525 0.4 0  0.55 0.4 0  0.575 0.4 0  0.6 0.4 0  0.625 0.4 0  0.65 0.4 0  0.675 0.4 0  0.7 0.4 0  0.725 0.4 0  0.75 0.4 0  0.775 0.4 0  0.8 0.4 0  0.825 0.4 0  0.85 0.4 0  0.875 0.4 0  0.9 0.4 0  0.925 0.4 0  0.95 0.4 0  0.975 0.4 0  1 0.4 0  0 0.425 0  0.025 0.425 0  0.05 0.425 0  0.075 0.425 0  0.1 0.425 0  0.125 0.425 0  0.15 0.425 0  0.175 0.425 0  0.2 0.425 0  0.225 0.425 0  0.25 0.425 0  0.275 0.425 0  0.3 0.425 0  0.325 0.425 0  0.35 0.425 0  0.375 0.425 0  0.4 0.425 0  0.425 0.425 0  0.45 0.425 0  0.475 0.425 0  0.5 0.425 0  0.525 0.425 0  0.55 0.425 0  0.575 0.425 0  0.6 0.425 0  0.625 0.425 0  0.65 0.425 0  0.675 0.425 0  0.7 0.425 0  0.725 0.425 0  0.75 0.425 0  0.775 0.425 0  0.8 0.425 0  0.825 0.425 0  0.85 0.425 0  0.875 0.425 0  0.9 0.425 0  0.925 0.425 0  0.95 0.425 0  0.975 0.425 0  1 0.425 0  0 0.45 0  0.02
[...]
<PointData  Scalars="ControlVisualisation"> 
<DataArray  type="Float64"  Name="ControlVisualisation"  format="ascii">8.6856339562372237e-02  6.0507114392391669e-02  6.0646395353845362e-02  6.0899623432442554e-02  6.1231780149637718e-02  6.1603259134105470e-02  6.1977989032468768e-02  6.2329216374286449e-02  6.2640581120809752e-02  6.2904212761248940e-02  6.3118111673827956e-02  6.3283925319487760e-02  6.3405395107913112e-02  6.3487323189497846e-02  6.3534853738659192e-02  6.3552951865664425e-02  6.3546055461449896e-02  6.3517920579490711e-02  6.3471678568892298e-02  6.3410068251444934e-02  6.3335703106713520e-02  6.3251157635209609e-02  6.3158718716102027e-02  6.3059857468056993e-02  6.2954696235396915e-02  6.2841808608891381e-02  6.2718537587151693e-02  6.2581719105775840e-02  6.2428475757659363e-02  6.2256790486947683e-02  6.2065818855433830e-02  6.1856159517121784e-02  6.1630356423474399e-02  6.1393781679830971e-02  6.1155916422660300e-02  6.0931346746304980e-02  6.0738168554681650e-02  6.0593222103803766e-02  6.0506195855302369e-02  6.0473847982118294e-02  1.5466322341835695e-01  6.0507587350756835e-02  3.1508149864697563e-02  3.1841852339333537e-02  3.2435671893470526e-02  3.3253749716004602e-02  3.4217367411508062e-02  3.5241476372032926e-02  3.6251881605613226e-02  3.7192003390034929e-02  3.8023997448838921e-02  3.8726537721530709e-02  3.9291528685798556e-02  3.9720716589591094e-02  4.0022387623470886e-02  4.0208287716825129e-02  4.0291079531886098e-02  4.0282657654008278e-02  4.0193454674011704e-02  4.0032694167659727e-02  3.9809374075992943e-02  3.9533436266031459e-02  3.9216237364722600e-02  3.8869576844488364e-02  3.8503392012891574e-02  3.8123276015495235e-02  3.7729354850604135e-02  3.7317328742653540e-02  3.6881097513650180e-02  3.6415500524385608e-02  3.5918004413850090e-02  3.5389310811546129e-02  3.4833593742654496e-02  3.4258854316296897e-02  3.3677594647281227e-02  3.3108240070973426e-02  3.2576725990032598e-02  3.2115483870081868e-02  3.1758123945360636e-02  3.1524842624351825e-02  3.1402808627067388e-02  6.0473758906925593e-02  6.0655054316843850e-02  3.1863752154296383e-02  3.2527650687251011e-02  3.3492916239771284e-02  3.4825012752162682e-02  3.6423688857741915e-02  3.8163081916810407e-02  3.9925096509682262e-02  4.1610247111937948e-02  4.3141692947935142e-02  4.4465953190494116e-02  4.5552212006572237e-02  4.6389961843509776e-02  4.6984388048293524e-02  4.7350134893177576e-02  4.7505420964146464e-02  4.7468272345815306e-02  4.7255348802839499e-02  4.6883020443261945e-02  4.6370262734981647e-02  4.5742264530205898e-02  4.5032012209939180e-02  4.4276759944580982e-02  4.3509320500789102e-02  4.2748693846518422e-02  4.1996198098216760e-02  4.1239786559420989e-02  4.0463414574643725e-02  3.9655292974497429e-02  3.8811076756386072e-02  3.7933086685653213e-02  3.7028820238112735e-02  3.6110766886723780e-02  3.5196694588350091e-02  3.4309831765124837e-02  3.3481296056299042e-02  3.2753900920363947e-02  3.2177816691713060e-02  3.1781217151128714e-02  3.1515758553909055e-02  6.0502507642289594e-02  6.0958622222034402e-02  3.2587801472459037e-02  3.3712368155719305e-02  3.4891574355067706e-02  3.6411295042708257e-02  3.8175921249930828e-02  4.0050534952932718e-02  4.1916925471249665e-02  4.3679445198856109e-02  4.5264378006245859e-02  4.6619508772650801e-02  4.7714959392382621e-02  4.8542790932516011e-02  4.9112346007238621e-02  4.9441932518352577e-02  4.9551156371731200e-02  4.9457288487866916e-02  4.9175257152681638e-02  4.8719120598114694e-02  4.8105230189462209e-02  4.7358350347640625e-02  4.6517333307259830e-02  4.5632576554230239e-02  4.4752107948954900e-02  4.3904044314275512e-02  4.3088268907816689e-02  4.2283676173159125e-02  4.1465180516158301e-02  4.0617585970205962e-02  3.9738083721649199e-02  3.8830589298640993e-02  3.7900346451470140e-02  3.6956238511496202e-02  3.6013582489771684e-02  3.5088894837984538e-02  3.4201630646984199e-02  3.3383120917661255e-02  3.2680160790201952e-02  3.2141083800807338e-02  3.1697813307118607e-02  6.0566636229924031e-02  6.1428055051669636e-02  3.3786556477796520e-02  3.5910161394306229e-02  3.7473311312158621e-02  3.9200027012268532e-02  4.1042070281669167e-02  4.2889301798979915e-02  4.4647113889566797e-02  4.6244372141298909e-02  4.7628596575595136e-02  4.8763772012687383e-02  4.9633507505267634e-02  5.0244298909555098e-02  5.0620118067218528e-02  5.0788942154049367e-02  5.0771742128458447e-02  5.0581273789258648e-02  5.0227111203988553e-02  4.9717552069878053e-02  4.9059405192141081e-02  4.8265934391743724e-02  4.7372308424516930e-02  4.6440027378898921e-02  4.5536512189243580e-02  4.4702160923697790e-02  4.3932237395672494e-02  4.3188872513965644e-02  4.2432289278642538e-02  4.1644988147925568e-02  4.0832343292896117e-02  4.0005979634222186e-02  3.9166542838130966e-02  3.8309156844767087e-02  3.7438625222128291e-02  3.6559194748649215e-02  3.5660935701666216e-02  3.4723551360355938e-02  3.3776160894740830e-02  3.2890086650295483e-02  3.1979530273646820e-02  6.0639228497809797e-02  6.1933678374404368e-02  3.6220372057997711e-02  4.0502768891798956e-02  4.2828809819528912e-02  4.4731653672660555e-02  4.6463686262453265e-02  4.8016733705700879e-02  4.9356300186268603e-02  5.0463073053109257e-02  5.1327465218009440e-02  5.1943826595076376e-02  5.2317173686920404e-02  5.2476483079958981e-02  5.2470529809141311e-02  5.2343415203800543e-02  5.2114605417145965e-02  5.1783368917257218e-02  5.1349578219116655e-02  5.0817840121288732e-02  5.0180793036418925e-02  4.9422328996537812e-02  4.8557269763709172e-02  4.7660492002321753e-02  4.6838072288687131e-02  4.6159010400827608e-02  4.5609990016790863e-02  4.5115244459500270e-02  4.4602382105851289e-02  4.4056812883986350e-02  4.3520596650542691e-02  4.3052144484711445e-02  4.2676712472765319e-02  4.2382675276667718e-02  4.2113536375692116e-02  4.1773263969990308e-02  4.1201107017441931e-02  4.0113731771088623e-02  3.8263033252087394e-02  3.5384706726896892e-02  3.2417652957200227e-02  6.0576459406906119e-02  6.8477276085147962e-02  4.4883078650915204e-02  5.5336149028772437e-02  5.8601923639886241e-02  5.9830238708739436e-02  6.0282105713101324e-02  6.0231189401453590e-02  5.9884518183469126e-02  5.9372540416641612e-02  5.8761846886659273e-02  5.8068346007145458e-02  5.7295084094980540e-02  5.6483465802749051e-02  5.5712327180952016e-02  5.5044412398746641e-02  5.4482825689974680e-02  5.3978504022181531e-02  5.3495801910042010e-02  5.3048503819120525e-02  5.2622416548854682e-02  5.2133243400651508e-02  5.1528122940522038e-02  5.0907713514915506e-02  5.0503463549614200e-02  5.0512203953821798e-02  5.0959751708220494e-02  5.1710316437121005e-02  5.2583589990169502e-02  5.3521380277215841e-02  5.4655694866671149e-02  5.6342377060253288e-02  5.9214842838382464e-02  6.3596827034356776e-02  6.8783734802488852e-02  7.3956785351057347e-02  7.9072748526561668e-02  8.1847454042050391e-02  7.8815502350066360e-02  6.1716122418443382e-02  4.0993585108302449e-02  6.2080691156434380e-02  2.1473480064518910e-01  1.8274854733757273e-01  1.8624317221243530e-01  1.6173435345032564e-01  1.4882935015786830e-01  1.3422853911006621e-01  1.1872162607850778e-01  1.0463774449777917e-01  9.3236268455164237e-02  8.4526767496921840e-02  7.7889508601450802e-02  7.2646989332466272e-02  6.8424297676254908e-02  6.5142934676180944e-02  6.2817927701689924e-02  6.1369966368985986e-02  6.0573766560393913e-02  6.0303523094738999e-02  6.0678225573004924e-02  6.1611877705879718e-02  6.2639488778642949e-02  6.3273799007229070e-02  6.3556052412389263e-02  6.4524253206684867e-02  6.7732101588519278e-02  7.3957621872531853e-02  8.3062382240031263e-02  9.3891389688685337e-02  1.0464188669457558e-01  1.1655676906445202e-01  1.3905951070839861e-01  1.8813902421410761e-01  2.5421405519017876e-01  3.1709404958736293e-01  4.1657845093701984e-01  5.4524540347729733e-01  6.3311535160535048e-01  6.5664128827184431e-01  6.0499146841645468e-01  5.6606546561583004e-01  2.6628078390292242e-01  7.6994626275665867e-01  8.5061927321075181e-01  6.6905955834045761e-01  5.8848114278120078e-01  5.6596201221373454e-01  5.2307809874755495e-01  4.6134586027501906e-01  3.8910403873503707e-01  3.1703049341451250e-01  2.5374877393152839e-01  2.0265650231635315e-01  1.6340905519147486e-01  1.3524113057770953e-01  1.1663712103417227e-01  1.0571616563401964e-01  1.0061631928301876e-01  9.8721457305902927e-02  9.8986289860400367e-02  1.0477209875176753e-01  1.1699291363533335e-01  1.2979840035466383e-01  1.3649524542056735e-01  1.3689812232168763e-01  1.4439778141520876e-01  1.7853557503688927e-01  2.4525294673963091e-01  3.3461573061357941e-01  4.3155447290464732e-01  5.4292264652000000e-01  6.7483507677321308e-01  7.8415855842427307e-01  8.4798055487717683e-01  8.8224573364102044e-01  9.0566414845380405e-01  9.2570107272480950e-01  9.4169649112307208e-01  9.5339371094443881e-01  9.6264663725647281e-01  9.7054237576755920e-01  9.7745520188287460e-01  9.5596632350940403e-01  9.0005034121895200e-01  9.1487822932749641e-01  8.8227130453170410e-01  8.5035881341163655e-01  8.3927073601380819e-01  8.2564828197074225e-01  8.0134341881668170e-01  7.6155438873572989e-01  7.0615749969100094e-01  6.4433490585151099e-01  5.8575775076488490e-01  5.2887754122157116e-01  4.6866692938768062e-01  4.1212915387844423e-01  3.7919967592926912e-01  3.7715063761214973e-01  3.8996422767328287e-01  3.9656794295309361e-01  3.9813512997433481e-01  4.2700780432068947e-01  4.8322642440988844e-01  5.6088213707886869e-01  6.6195897784034086e-01  7.5965681708264587e-01  8.3074952178375250e-01  8.7294570411722583e-01  8.9359043075652334e-01  9.0543574468568067e-01  9.1634927517369591e-01  9.2736669437497832e-01  9.3718600750164616e-01  9.4547533110436977e-01  9.5273294281764864e-01  9.5939682845620822e-01  9.6567869640987158e-01  9.7159874914590283e-01  9.7709970372266719e-01  9.8211809336248101e-01  9.8641115998383511e-01  9.8957127231573816e-01  9.8074536278397495e-01  9.1718447963530148e-01  9.4144846773191360e-01  9.2355241956218337e-01  9.1194449004787681e-01  9.0538661608957971e-01  9.0005250073282395e-01  8.9286392691604344e-01  8.8344830471860947e-01  8.7019828214488615e-01  8.5020331793921611e-01  8.2099102092775900e-01  7.8168084578727559e-01  7.3710018088692897e-01  6.9812302988506070e-01  6.8180787310076318e-01  7.0668186591913285e-01  7.5640404336811384e-01  8.0075226371389596e-01  8.3256320616016111e-01  8.6026932178452387e-01  8.8910520541472160e-01  9.1736159845258958e-01  9.3934208245773587e-01  9.5018991902654315e-01  9.5317038906716445e-01  9.5274773729047801e-01  9.5226496478250222e-01  9.5334395689968920e-01  9.5569399157891977e-01  9.5867205725846805e-01  9.6181914876124830e-01  9.6495589293402162e-01  9.6812418216094698e-01  9.7142195980011625e-01  9.7489826233319432e-01  9.7855267464479379e-01  9.8232701051660065e-01  9.8602449908849565e-01  9.8925805888281981e-01  9.9163317890550273e-01  9.8544202290948568e-01  8.8881556768339520e-01  9.2314774795542631e-01  8.9914303948420882e-01  8.9222797499054662e-01  8.9469034208421827e-01  8.9726459484305021e-01  8.9750561117801853e-01  8.9630899505943207e-01  8.9448516446247051e-01  8.9142504022663027e-01  8.8614524998062505e-01  8.7832710375206791e-01  8.6925523712745179e-01  8.6478105366033897e-01  8.7089793815495931e-01  8.8442899615012316e-01  8.9840548310576906e-01  9.1090654649485625e-01  9.2303928133535906e-01  9.3484502206219189e-01  9.4529142619742534e-01  9.5319976041808840e-01  9.5814727891683493e-01  9.6076693449723238e-01  9.6187651495172233e-01  9.6239813717259470e-01  9.6312347067789195e-01  9.6428596107902387e-01  9.6571387295304789e-01  9.6720720078524758e-01  9.6867146630550105e-01  9.7013272064902001e-01  9.7169855428299778e-01  9.7349531366203179e-01  9.7562799627355634e-01  9.7816720019842240e-01  9.8111727694223494e-01  9.8427220965937934e-01  9.8730698946144502e-01  9.8977143292504310e-01  9.8334103302310971e-01  7.4966396977842786e-01  8.1765508052691993e-01  7.4482950259595571e-01  7.3941760307599147e-01  7.8554687901486331e-01  8.2427389277096041e-01  8.4839306035100071e-01  8.6181102492904582e-01  8.6969637728763605e-01  8.7523655229766018e-01  8.7912976442211810e-01  8.8133743990438762e-01  8.8230229279607630e-01  8.8809503608593954e-01  9.0070746450786765e-01  9.1288603129420620e-01  9.2260250634674423e-01  9.3114002032447396e-01  9.3920622052612801e-01  9.4665547817974949e-01  9.5311982148478980e-01  9.5816801142263619e-01  9.6152777105849507e-01  9.6337258070433185e-01  9.6430469820987752e-01  9.6500840332042803e-01  9.6581446829920714e-01  9.6667626237725635e-01  9.6743388871641534e-01  9.6797173111396650e-01  9.6828091052142973e-01  9.6848865642606163e-01  9.6876333270957182e-01  9.6918722906887234e-01  9.6978411350323568e-01  9.7060189229035687e-01  9.7192484232794196e-01  9.7345207862185568e-01  9.7709708763574321e-01  9.7928961776212287e-01  9.6787368417682951e-01  1.2787632168928714e-01  1.9395562156667523e-01  2.7518767682015277e-01  3.1545892176361162e-01  3.9351811515707247e-01  5.0977036795656971e-01  6.2107611610669256e-01  7.0525359245287733e-01  7.5819398635965041e-01  8.0049720661121682e-01  8.3584136782019003e-01  8.5605959985002233e-01  8.6698696989224766e-01  8.7871162981925910e-01  8.9760498496458563e-01  9.1381310442612895e-01  9.2484747648314214e-01  9.3374613134367979e-01  9.4153597257695254e-01  9.4844983572319030e-01  9.5422770345503549e-01  9.5838667350586870e-01  9.6080883590884691e-01  9.6189883705292789e-01  9.6229217939938361e-01  9.6255790039436695e-01  9.6286787848313682e-01  9.6292764168476608e-01  9.6238494283217890e-01  9.6103955075877279e-01  9.5879859015368230e-01  9.5612427471482031e-01  9.5389135265929581e-01  9.5174355773065333e-01  9.4876897765281343e-01  9.4393877435474149e-01  9.3524066948669571e-01  9.2056523623860054e-01  8.7736187180986847e-01  5.4568931316587643e-01  6.5437825924498505e-01  6.1730917543732208e-02  3.8862016108161694e-02  5.2297287750622215e-02  6.9028086020747198e-02  9.3576514194443960e-02  1.3202794942861074e-01  1.8809909158378402e-01  2.6721989075563196e-01  3.6834583493110190e-01  4.8024466658576920e-01  6.2670076781239104e-01  7.5093706772969682e-01  8.1665461663514549e-01  8.6315200609136522e-01  8.8865480541088560e-01  9.0594111012767686e-01  9.1786142980683161e-01  9.2675316208107561e-01  9.3531132289262453e-01  9.4334515403522268e-01  9.4955929140847706e-01  9.5336766852301014e-01  9.5386743276307040e-01  9.5125557058656829e-01  9.4726046797522301e-01  9.4452856690405529e-01  9.4422446507585911e-01  9.4393358704797858e-01  9.4077447323654217e-01  9.3414631704893691e-01  9.2398064148444403e-01  9.0831984061566273e-01  8.8908096181174368e-01  8.6500976493591419e-01  7.9564470204840865e-01  7.1687375997931679e-01  6.3301564996173942e-01  4.1549979451462538e-01  7.2213096562999179e-02  5.1285547251298323e-02  7.2256680027419806e-02  6.0723190642695005e-02  3.2800164579283961e-02  3.6213933011885413e-02  4.1459037030454858e-02  4.9161640118185315e-02  6.0107346080145667e-02  7.5621428350617623e-02  9.8642414260737249e-02  1.3442833530734355e-01  1.9411094527636868e-01  3.0208567035089745e-01  4.7723380275948962e-01  6.6257240869606027e-01  8.0657814072156531e-01  8.8437449592731332e-01  8.9089655560160719e-01  8.9901801593527109e-01  9.0933289061560096e-01  9.1760329406178431e-01  9.2895363208334303e-01  9.3318111825545291e-01  9.2531291489811918e-01  9.1909229766393574e-01  9.1184396635945864e-01  8.9954329459612570e-01  8.7824194513506282e-01  8.6520538774726186e-01  8.5891509479188444e-01  8.3924745459288530e-01  8.1238520372230405e-01  7.8168240246820386e-01  7.2635740712549457e-01  6.3533743532425924e-01  5.0733638839743966e-01  3.2703585263612905e-01  1.7953672081141547e-01  1.0028067207953775e-01  6.7583609485247359e-02  5.7815226420851934e-02  4.1413580208228516e-02  6.2416404263442610e-02  6.0791058142273785e-02  3.2406927104688905e-02  3.4154139634708758e-02  3.7107217065716555e-02  4.1765059362907600e-02  4.8400075245804759e-02  5.7675394403327404e-02  7.1221225429789148e-02  9.3283274177065917e-02  1.3578247286449671e-01  2.2319628586630147e-01  3.7025468281170570e-01  5.4324477067392773e-01  7.2692235347969258e-01  8.3254122422933241e-01  8.6047416049236358e-01  8.0912169139239443e-01  7.7478207578786207e-01  8.1699468152492893e-01  8.6076491752527540e-01  8.1735648909018677e-01  7.4226490223560138e-01  7.3767162304237299e-01  7.2846931870466036e-01  7.0992371742342331e-01  6.7905138890882188e-01  6.0534649797939610e-01  5.1326846241460755e-01  4.1382211054259066e-01  3.1737035990892226e-01  2.3929751782513883e-01  1.7953452737274284e-01  1.3566286102111644e-01  1.0576472087579430e-01  8.4327642893195540e-02  6.8270113151801731e-02  5.8601204121076833e-02  5.3340072917734876e-02  4.8353616163483847e-02  3.9469860183538777e-02  6.2811973704702484e-02  6.1096164663493754e-02  3.2741351306680946e-02  3.4199809218073592e-02  3.6503760361218440e-02  4.0205160137834317e-02  4.5603603216896854e-02  5.3434487141888844e-02  6.5778780426412567e-02  8.9259786531427007e-02  1.4127411384044603e-01  2.5270730876646169e-01  4.0707595214953590e-01  5.6811482437853156e-01  6.8084748190468058e-01  7.5694015548871385e-01  7.5984716582597400e-01  6.5407924460683953e-01  4.4940417662137544e-01  3.0335201598364192e-01  4.7078246646412969e-01  4.8328989476642703e-01  3.6679944041731738e-01  2.9429232974618935e-01  2.4475421161569502e-01  1.9892789368352032e-01  1.6147601331202771e-01  1.3161539389516339e-01  1.0830632979672605e-01  9.1424910082385374e-02  7.9576574871913330e-02  7.1380398370489609e-02  6.5743522742577748e-02  6.1781868820084282e-02  5.8944799482402985e-02  5.6783717964730751e-02  5.4721185260065738e-02  5.2436464490352636e-02  4.9799944237376124e-02  4.6379255613820614e-02  3.9467005262564886e-02  6.3186336013576733e-02  6.1544707248863628e-02  3.3498800975952356e-02  3.5136778822070884e-02  3.7284130215154032e-02  4.0688365563863974e-02  4.5756647351846459e-02  5.3511284648215522e-02  6.7317471031169432e-02  9.8188093726332346e-02  1.7408394654112111e-01  3.0708321721532650e-01  4.6900927919557306e-01  6.0942569037465710e-01  6.5895218054627791e-01  6.1422957508393550e-01  5.4508328057546884e-01  4.5447622456891801e-01  3.2864538588745806e-01  2.1319517953170999e-01  1.5017984548864965e-01  1.3558612184657515e-01  1.1347669804126689e-01  9.4648997784784736e-02  8.1320105489993730e-02  7.2807014635142719e-02  6.6955368542207655e-02  6.2795868863623885e-02  5.9725455537257187e-02  5.7397888125676845e-02  5.5660097564899216e-02  5.4399616455756292e-02  5.3503580908142938e-02  5.2836859017962513e-02  5.2247608958576802e-02  5.1607090523589617e-02  5.0785566244854884e-02  4.9627614738406732e-02  4.7959630640562273e-02  4.5459156659328766e-02  3.9301978471373532e-02  6.3315844632195042e-02  6.2088975882025062e-02  3.4625834414662486e-02  3.6787729638904990e-02  3.9025039298652135e-02  4.2510990079303097e-02  4.7920455999715061e-02  5.7094770491001652e-02  7.6406616416650600e-02  1.2562733256485725e-01  2.2996326072962828e-01  3.7631895188198261e-01  5.1303873563672320e-01  5.7980360386731100e-01  5.9195467775985910e-01  5.3296788705919096e-01  3.8229135376941586e-01  2.4361660072211500e-01  1.5751330177971226e-01  1.1758983367905632e-01  9.2834291914617145e-02  7.9510240442924568e-02  7.2043526875786329e-02  6.6108391523721180e-02  6.1480434203211191e-02  5.8245068495414332e-02  5.5987315707159438e-02  5.4377507502059171e-02  5.3183657706664784e-02  5.2252328499932249e-02  5.1499965228681006e-02  5.0879716993220955e-02  5.0351415456888357e-02  4.9867574007831421e-02  4.9374518122080754e-02  4.8821342741025696e-02  4.8159610556657448e-02  4.7327224997804743e-02  4.6187138640118648e-02  4.4332360696092685e-02  3.8873545183447225e-02  6.3266979132535067e-02  6.2690679362308266e-02  3.6085684659995114e-02  3.9161421885461553e-02  4.1776075667490975e-02  4.5859964975815244e-02  5.2810780112426334e-02  6.6968576937173771e-02  1.0160726803426140e-01  1.832885407