<?xml version="1.0"?>
<VTKFile type="UnstructuredGrid"  version="0.1"  >
<UnstructuredGrid>
<Piece  NumberOfPoints="1681" NumberOfCells="3200">
<Points>
<DataArray  type="Float64"  NumberOfComponents="3"  format="ascii">0 0 0  0.025 0 0  0.05 0 0  0.075 0 0  0.1 0 0  0.125 0 0  0.15 0 0  0.175 0 0  0.2 0 0  0.225 0 0  0.25 0 0  0.275 0 0  0.3 0 0  0.325 0 0  0.35 0 0  0.375 0 0  0.4 0 0  0.425 0 0  0.45 0 0  0.475 0 0  0.5 0 0  0.525 0 0  0.55 0 0  0.575 0 0  0.6 0 0  0.625 0 0  0.65 0 0  0.675 0 0  0.7 0 0  0.725 0 0  0.75 0 0  0.775 0 0  0.8 0 0  0.825 0 0  0.85 0 0  0.875 0 0  0.9 0 0  0.925 0 0  0.95 0 0  0.975 0 0  1 0 0  0 0.025 0  0.025 0.025 0  0.05 0.025 0  0.075 0.025 0  0.1 0.025 0  0.125 0.025 0  0.15 0.025 0  0.175 0.025 0  0.2 0.025 0  0.225 0.025 0  0.25 0.025 0  0.275 0.025 0  0.3 0.025 0  0.325 0.025 0  0.35 0.025 0  0.375 0.025 0  0.4 0.025 0  0.425 0.025 0  0.45 0.025 0  0.475 0.025 0  0.5 0.025 0  0.525 0.025 0  0.55 0.025 0  0.575 0.025 0  0.6 0.025 0  0.625 0.025 0  0.65 0.025 0  0.675 0.025 0  0.7 0.025 0  0.725 0.025 0  0.75 0.025 0  0.775 0.025 0  0.8 0.025 0  0.825 0.025 0  0.85 0.025 0  0.875 0.025 0  0.9 0.025 0  0.925 0.025 0  0.95 0.025 0  0.975 0.025 0  1 0.025 0  0 0.05 0  0.025 0.05 0  0.05 0.05 0  0.075 0.05 0  0.1 0.05 0  0.125 0.05 0  0.15 0.05 0  0.175 0.05 0  0.2 0.05 0  0.225 0.05 0  0.25 0.05 0  0.275 0.05 0  0.3 0.05 0  0.325 0.05 0  0.35 0.05 0  0.375 0.05 0  0.4 0.05 0  0.425 0.05 0  0.45 0.05 0  0.475 0.05 0  0.5 0.05 0  0.525 0.05 0  0.55 0.05 0  0.575 0.05 0  0.6 0.05 0  0.625 0.05 0  0.65 0.05 0  0.675 0.05 0  0.7 0.05 0  0.725 0.05 0  0.75 0.05 0  0.775 0.05 0  0.8 0.05 0  0.825 0.05 0  0.85 0.05 0  0.875 0.05 0  0.9 0.05 0  0.925 0.05 0  0.95 0.05 0  0.975 0.05 0  1 0.05 0  0 0.075 0  0.025 0.075 0  0.05 0.075 0  0.075 0.075 0  0.1 0.075 0  0.125 0.075 0  0.15 0.075 0  0.175 0.075 0  0.2 0.075 0  0.225 0.075 0  0.25 0.075 0  0.275 0.075 0  0.3 0.075 0  0.325 0.075 0  0.35 0.075 0  0.375 0.075 0  0.4 0.075 0  0.425 0.075 0  0.45 0.075 0  0.475 0.075 0  0.5 0.075 0  0.525 0.075 0  0.55 0.075 0  0.575 0.075 0  0.6 0.075 0  0.625 0.075 0  0.65 0.075 0  0.675 0.075 0  0.7 0.075 0  0.725 0.075 0  0.75 0.075 0  0.775 0.075 0  0.8 0.075 0  0.825 0.075 0  0.85 0.075 0  0.875 0.075 0  0.9 0.075 0  0.925 0.075 0  0.95 0.075 0  0.975 0.075 0  1 0.075 0  0 0.1 0  0.025 0.1 0  0.05 0.1 0  0.075 0.1 0  0.1 0.1 0  0.125 0.1 0  0.15 0.1 0  0.175 0.1 0  0.2 0.1 0  0.225 0.1 0  0.25 0.1 0  0.275 0.1 0  0.3 0.1 0  0.325 0.1 0  0.35 0.1 0  0.375 0.1 0  0.4 0.1 0  0.425 0.1 0  0.45 0.1 0  0.475 0.1 0  0.5 0.1 0  0.525 0.1 0  0.55 0.1 0  0.575 0.1 0  0.6 0.1 0  0.625 0.1 0  0.65 0.1 0  0.675 0.1 0  0.7 0.1 0  0.725 0.1 0  0.75 0.1 0  0.775 0.1 0  0.8 0.1 0  0.825 0.1 0  0.85 0.1 0  0.875 0.1 0  0.9 0.1 0  0.925 0.1 0  0.95 0.1 0  0.975 0.1 0  1 0.1 0  0 0.125 0  0.025 0.125 0  0.05 0.125 0  0.075 0.125 0  0.1 0.125 0  0.125 0.125 0  0.15 0.125 0  0.175 0.125 0  0.2 0.125 0  0.225 0.125 0  0.25 0.125 0  0.275 0.125 0  0.3 0.125 0  0.325 0.125 0  0.35 0.125 0  0.375 0.125 0  0.4 0.125 0  0.425 0.125 0  0.45 0.125 0  0.475 0.125 0  0.5 0.125 0  0.525 0.125 0  0.55 0.125 0  0.575 0.125 0  0.6 0.125 0  0.625 0.125 0  0.65 0.125 0  0.675 0.125 0  0.7 0.125 0  0.725 0.125 0  0.75 0.125 0  0.775 0.125 0  0.8 0.125 0  0.825 0.125 0  0.85 0.125 0  0.875 0.125 0  0.9 0.125 0  0.925 0.125 0  0.95 0.125 0  0.975 0.125 0  1 0.125 0  0 0.15 0  0.025 0.15 0  0.05 0.15 0  0.075 0.15 0  0.1 0.15 0  0.125 0.15 0  0.15 0.15 0  0.175 0.15 0  0.2 0.15 0  0.225 0.15 0  0.25 0.15 0  0.275 0.15 0  0.3 0.15 0  0.325 0.15 0  0.35 0.15 0  0.375 0.15 0  0.4 0.15 0  0.425 0.15 0  0.45 0.15 0  0.475 0.15 0  0.5 0.15 0  0.525 0.15 0  0.55 0.15 0  0.575 0.15 0  0.6 0.15 0  0.625 0.15 0  0.65 0.15 0  0.675 0.15 0  0.7 0.15 0  0.725 0.15 0  0.75 0.15 0  0.775 0.15 0  0.8 0.15 0  0.825 0.15 0  0.85 0.15 0  0.875 0.15 0  0.9 0.15 0  0.925 0.15 0  0.95 0.15 0  0.975 0.15 0  1 0.15 0  0 0.175 0  0.025 0.175 0  0.05 0.175 0  0.075 0.175 0  0.1 0.175 0  0.125 0.175 0  0.15 0.175 0  0.175 0.175 0  0.2 0.175 0  0.225 0.175 0  0.25 0.175 0  0.275 0.175 0  0.3 0.175 0  0.325 0.175 0  0.35 0.175 0  0.375 0.175 0  0.4 0.175 0  0.425 0.175 0  0.45 0.175 0  0.475 0.175 0  0.5 0.175 0  0.525 0.175 0  0.55 0.175 0  0.575 0.175 0  0.6 0.175 0  0.625 0.175 0  0.65 0.175 0  0.675 0.175 0  0.7 0.175 0  0.725 0.175 0  0.75 0.175 0  0.775 0.175 0  0.8 0.175 0  0.825 0.175 0  0.85 0.175 0  0.875 0.175 0  0.9 0.175 0  0.925 0.175 0  0.95 0.175 0  0.975 0.175 0  1 0.175 0  0 0.2 0  0.025 0.2 0  0.05 0.2 0  0.075 0.2 0  0.1 0.2 0  0.125 0.2 0  0.15 0.2 0  0.175 0.2 0  0.2 0.2 0  0.225 0.2 0  0.25 0.2 0  0.275 0.2 0  0.3 0.2 0  0.325 0.2 0  0.35 0.2 0  0.375 0.2 0  0.4 0.2 0  0.425 0.2 0  0.45 0.2 0  0.475 0.2 0  0.5 0.2 0  0.525 0.2 0  0.55 0.2 0  0.575 0.2 0  0.6 0.2 0  0.625 0.2 0  0.65 0.2 0  0.675 0.2 0  0.7 0.2 0  0.725 0.2 0  0.75 0.2 0  0.775 0.2 0  0.8 0.2 0  0.825 0.2 0  0.85 0.2 0  0.875 0.2 0  0.9 0.2 0  0.925 0.2 0  0.95 0.2 0  0.975 0.2 0  1 0.2 0  0 0.225 0  0.025 0.225 0  0.05 0.225 0  0.075 0.225 0  0.1 0.225 0  0.125 0.225 0  0.15 0.225 0  0.175 0.225 0  0.2 0.225 0  0.225 0.225 0  0.25 0.225 0  0.275 0.225 0  0.3 0.225 0  0.325 0.225 0  0.35 0.225 0  0.375 0.225 0  0.4 0.225 0  0.425 0.225 0  0.45 0.225 0  0.475 0.225 0  0.5 0.225 0  0.525 0.225 0  0.55 0.225 0  0.575 0.225 0  0.6 0.225 0  0.625 0.225 0  0.65 0.225 0  0.675 0.225 0  0.7 0.225 0  0.725 0.225 0  0.75 0.225 0  0.775 0.225 0  0.8 0.225 0  0.825 0.225 0  0.85 0.225 0  0.875 0.225 0  0.9 0.225 0  0.925 0.225 0  0.95 0.225 0  0.975 0.225 0  1 0.225 0  0 0.25 0  0.025 0.25 0  0.05 0.25 0  0.075 0.25 0  0.1 0.25 0  0.125 0.25 0  0.15 0.25 0  0.175 0.25 0  0.2 0.25 0  0.225 0.25 0  0.25 0.25 0  0.275 0.25 0  0.3 0.25 0  0.325 0.25 0  0.35 0.25 0  0.375 0.25 0  0.4 0.25 0  0.425 0.25 0  0.45 0.25 0  0.475 0.25 0  0.5 0.25 0  0.525 0.25 0  0.55 0.25 0  0.575 0.25 0  0.6 0.25 0  0.625 0.25 0  0.65 0.25 0  0.675 0.25 0  0.7 0.25 0  0.725 0.25 0  0.75 0.25 0  0.775 0.25 0  0.8 0.25 0  0.825 0.25 0  0.85 0.25 0  0.875 0.25 0  0.9 0.25 0  0.925 0.25 0  0.95 0.25 0  0.975 0.25 0  1 0.25 0  0 0.275 0  0.025 0.275 0  0.05 0.275 0  0.075 0.275 0  0.1 0.275 0  0.125 0.275 0  0.15 0.275 0  0.175 0.275 0  0.2 0.275 0  0.225 0.275 0  0.25 0.275 0  0.275 0.275 0  0.3 0.275 0  0.325 0.275 0  0.35 0.275 0  0.375 0.275 0  0.4 0.275 0  0.425 0.275 0  0.45 0.275 0  0.475 0.275 0  0.5 0.275 0  0.525 0.275 0  0.55 0.275 0  0.575 0.275 0  0.6 0.275 0  0.625 0.275 0  0.65 0.275 0  0.675 0.275 0  0.7 0.275 0  0.725 0.275 0  0.75 0.275 0  0.775 0.275 0  0.8 0.275 0  0.825 0.275 0  0.85 0.275 0  0.875 0.275 0  0.9 0.275 0  0.925 0.275 0  0.95 0.275 0  0.975 0.275 0  1 0.275 0  0 0.3 0  0.025 0.3 0  0.05 0.3 0  0.075 0.3 0  0.1 0.3 0  0.125 0.3 0  0.15 0.3 0  0.175 0.3 0  0.2 0.3 0  0.225 0.3 0  0.25 0.3 0  0.275 0.3 0  0.3 0.3 0  0.325 0.3 0  0.35 0.3 0  0.375 0.3 0  0.4 0.3 0  0.425 0.3 0  0.45 0.3 0  0.475 0.3 0  0.5 0.3 0  0.525 0.3 0  0.55 0.3 0  0.575 0.3 0  0.6 0.3 0  0.625 0.3 0  0.65 0.3 0  0.675 0.3 0  0.7 0.3 0  0.725 0.3 0  0.75 0.3 0  0.775 0.3 0  0.8 0.3 0  0.825 0.3 0  0.85 0.3 0  0.875 0.3 0  0.9 0.3 0  0.925 0.3 0  0.95 0.3 0  0.975 0.3 0  1 0.3 0  0 0.325 0  0.025 0.325 0  0.05 0.325 0  0.075 0.325 0  0.1 0.325 0  0.125 0.325 0  0.15 0.325 0  0.175 0.325 0  0.2 0.325 0  0.225 0.325 0  0.25 0.325 0  0.275 0.325 0  0.3 0.325 0  0.325 0.325 0  0.35 0.325 0  0.375 0.325 0  0.4 0.325 0  0.425 0.325 0  0.45 0.325 0  0.475 0.325 0  0.5 0.325 0  0.525 0.325 0  0.55 0.325 0  0.575 0.325 0  0.6 0.325 0  0.625 0.325 0  0.65 0.325 0  0.675 0.325 0  0.7 0.325 0  0.725 0.325 0  0.75 0.325 0  0.775 0.325 0  0.8 0.325 0  0.825 0.325 0  0.85 0.325 0  0.875 0.325 0  0.9 0.325 0  0.925 0.325 0  0.95 0.325 0  0.975 0.325 0  1 0.325 0  0 0.35 0  0.025 0.35 0  0.05 0.35 0  0.075 0.35 0  0.1 0.35 0  0.125 0.35 0  0.15 0.35 0  0.175 0.35 0  0.2 0.35 0  0.225 0.35 0  0.25 0.35 0  0.275 0.35 0  0.3 0.35 0  0.325 0.35 0  0.35 0.35 0  0.375 0.35 0  0.4 0.35 0  0.425 0.35 0  0.45 0.35 0  0.475 0.35 0  0.5 0.35 0  0.525 0.35 0  0.55 0.35 0  0.575 0.35 0  0.6 0.35 0  0.625 0.35 0  0.65 0.35 0  0.675 0.35 0  0.7 0.35 0  0.725 0.35 0  0.75 0.35 0  0.775 0.35 0  0.8 0.35 0  0.825 0.35 0  0.85 0.35 0  0.875 0.35 0  0.9 0.35 0  0.925 0.35 0  0.95 0.35 0  0.975 0.35 0  1 0.35 0  0 0.375 0  0.025 0.375 0  0.05 0.375 0  0.075 0.375 0  0.1 0.375 0  0.125 0.375 0  0.15 0.375 0  0.175 0.375 0  0.2 0.375 0  0.225 0.375 0  0.25 0.375 0  0.275 0.375 0  0.3 0.375 0  0.325 0.375 0  0.35 0.375 0  0.375 0.375 0  0.4 0.375 0  0.425 0.375 0  0.45 0.375 0  0.475 0.375 0  0.5 0.375 0  0.525 0.375 0  0.55 0.375 0  0.575 0.375 0  0.6 0.375 0  0.625 0.375 0  0.65 0.375 0  0.675 0.375 0  0.7 0.375 0  0.725 0.375 0  0.75 0.375 0  0.775 0.375 0  0.8 0.375 0  0.825 0.375 0  0.85 0.375 0  0.875 0.375 0  0.9 0.375 0  0.925 0.375 0  0.95 0.375 0  0.975 0.375 0  1 0.375 0  0 0.4 0  0.025 0.4 0  0.05 0.4 0  0.075 0.4 0  0.1 0.4 0  0.125 0.4 0  0.15 0.4 0  0.175 0.4 0  0.2 0.4 0  0.225 0.4 0  0.25 0.4 0  0.275 0.4 0  0.3 0.4 0  0.325 0.4 0  0.35 0.4 0  0.375 0.4 0  0.4 0.4 0  0.425 0.4 0  0.45 0.4 0  0.475 0.4 0  0.5 0.4 0  0.525 0.4 0  0.55 0.4 0  0.575 0.4 0  0.6 0.4 0  0.625 0.4 0  0.65 0.4 0  0.675 0.4 0  0.7 0.4 0  0.725 0.4 0  0.75 0.4 0  0.775 0.4 0  0.8 0.4 0  0.825 0.4 0  0.85 0.4 0  0.875 0.4 0  0.9 0.4 0  0.925 0.4 0  0.95 0.4 0  0.975 0.4 0  1 0.4 0  0 0.425 0  0.025 0.425 0  0.05 0.425 0  0.075 0.425 0  0.1 0.425 0  0.125 0.425 0  0.15 0.425 0  0.175 0.425 0  0.2 0.425 0  0.225 0.425 0  0.25 0.425 0  0.275 0.425 0  0.3 0.425 0  0.325 0.425 0  0.35 0.425 0  0.375 0.425 0  0.4 0.425 0  0.425 0.425 0  0.45 0.425 0  0.475 0.425 0  0.5 0.425 0  0.525 0.425 0  0.55 0.425 0  0.575 0.425 0  0.6 0.425 0  0.625 0.425 0  0.65 0.425 0  0.675 0.425 0  0.7 0.425 0  0.725 0.425 0  0.75 0.425 0  0.775 0.425 0  0.8 0.425 0  0.825 0.425 0  0.85 0.425 0  0.875 0.425 0  0.9 0.425 0  0.925 0.425 0  0.95 0.425 0  0.975 0.425 0  1 0.425 0  0 0.45 0  0.02
[...]
<PointData  Scalars="ControlVisualisation"> 
<DataArray  type="Float64"  Name="ControlVisualisation"  format="ascii">9.0692663886014421e-02  6.1490507447782027e-02  6.1602593122831867e-02  6.1849323403633041e-02  6.2201771957376153e-02  6.2617535831856419e-02  6.3058091372717978e-02  6.3497169220386701e-02  6.3918942339989168e-02  6.4312375978221745e-02  6.4668015277117907e-02  6.4978163952849499e-02  6.5238471897120745e-02  6.5448909863705204e-02  6.5613388129225694e-02  6.5738330876772832e-02  6.5830878331213746e-02  6.5897261762547149e-02  6.5941627654186041e-02  6.5965389729420260e-02  6.5967105785570371e-02  6.5942856699682445e-02  6.5887080031603845e-02  6.5793749114379602e-02  6.5657702181042041e-02  6.5475851788456274e-02  6.5247983995513792e-02  6.4976921957507400e-02  6.4667986716286777e-02  6.4327926171506261e-02  6.3963738351448085e-02  6.3582047404937142e-02  6.3189792706396936e-02  6.2796545784525343e-02  6.2417778077247313e-02  6.2076803706220478e-02  6.1800528208688837e-02  6.1609556086887091e-02  6.1507839588676311e-02  6.1479443494431345e-02  1.7345872753175315e-01  6.1489197277013206e-02  3.2026468896811502e-02  3.2421198000576155e-02  3.3161468283223201e-02  3.4212020024292529e-02  3.5462298938576262e-02  3.6797315848665989e-02  3.8135232797037281e-02  3.9430041494436831e-02  4.0655677670772487e-02  4.1790576661977365e-02  4.2813032888777657e-02  4.3705397032729167e-02  4.4460070824216789e-02  4.5082094331135268e-02  4.5587078975396697e-02  4.5995951384688760e-02  4.6328661186846629e-02  4.6598487430339286e-02  4.6807897679550847e-02  4.6946561663141331e-02  4.6991994876075298e-02  4.6913075240312317e-02  4.6676131898403139e-02  4.6252519087351736e-02  4.5625870974643795e-02  4.4796992531286314e-02  4.3784865019890616e-02  4.2623475893251536e-02  4.1355677419372537e-02  4.0026349981118273e-02  3.8677492247499397e-02  3.7347171961029553e-02  3.6072708420520627e-02  3.4896275063115094e-02  3.3867681888044142e-02  3.3037998849130071e-02  3.2446097120729100e-02  3.2093698443025648e-02  3.1926846766977171e-02  6.1479323683487734e-02  6.1592139550401409e-02  3.2430887418566277e-02  3.3394127322620634e-02  3.4890524085040890e-02  3.7031918767737683e-02  3.9644865973063506e-02  4.2498387851077922e-02  4.5412825822554306e-02  4.8297830601439211e-02  5.1131909446913162e-02  5.3916353117208729e-02  5.6640077418057322e-02  5.9268904204432357e-02  6.1753265664882130e-02  6.4042172858820884e-02  6.6093876858317357e-02  6.7878790383265150e-02  6.9374769967100000e-02  7.0557818347456377e-02  7.1392720113361757e-02  7.1828216592674105e-02  7.1799954221337572e-02  7.1241752130093955e-02  7.0102593346900319e-02  6.8364399655598401e-02  6.6054966779162005e-02  6.3251548496247589e-02  6.0073188801047041e-02  5.6663497451680742e-02  5.3169060634204610e-02  4.9720263129594475e-02  4.6420255064848974e-02  4.3344218726217312e-02  4.0548382583851406e-02  3.8083449426854613e-02  3.6003697473149188e-02  3.4364935862686442e-02  3.3205325906935090e-02  3.2492371010008264e-02  3.2070827893216178e-02  6.1500999783490232e-02  6.1830098638703819e-02  3.3279070555281842e-02  3.5185791407833962e-02  3.7557320044390462e-02  4.0762832502055070e-02  4.4541194879010232e-02  4.8558046507880974e-02  5.2641155057149683e-02  5.6835029859693589e-02  6.1320806274770670e-02  6.6283235688468944e-02  7.1806458124728384e-02  7.7832061203884070e-02  8.4172866397351609e-02  9.0556417218991034e-02  9.6672750505790703e-02  1.0221261843741902e-01  1.0689135172167094e-01  1.1045836343086825e-01  1.1269825255550572e-01  1.1343526456333877e-01  1.1255193007447972e-01  1.1002216960189920e-01  1.0594429500248440e-01  1.0055141734009670e-01  9.4184889205571609e-02  8.7237264096431844e-02  8.0088493747906123e-02  7.3058742724917372e-02  6.6386696464443992e-02  6.0228311351609783e-02  5.4667162521303006e-02  4.9730618988277589e-02  4.5412482724743422e-02  4.1696496805688647e-02  3.8582342446271005e-02  3.6095432850784870e-02  3.4266314054290051e-02  3.3071506587817011e-02  3.2289798452214045e-02  6.1554602192855655e-02  6.2214744213479230e-02  3.4742956225942256e-02  3.8755811290023846e-02  4.2969042691328188e-02  4.8066430148593367e-02  5.3656201001927056e-02  5.9556897393203204e-02  6.6051422112431257e-02  7.3689377827972358e-02  8.2976865178581105e-02  9.4176013248886803e-02  1.0724767426321499e-01  1.2186567737566766e-01  1.3744272478146485e-01  1.5318947031527094e-01  1.6823580076804112e-01  1.8177178701064345e-01  1.9313718974253213e-01  2.0183090890249611e-01  2.0746383646915084e-01  2.0970213021434880e-01  2.0824632779567173e-01  2.0287677891654435e-01  1.9357040324303876e-01  1.8065371675326491e-01  1.6490693286700442e-01  1.4751130003898624e-01  1.2980005698808417e-01  1.1292633432077667e-01  9.7647206467122188e-02  8.4315546194828311e-02  7.2995595568949911e-02  6.3576987060573381e-02  5.5847559254275689e-02  4.9538235352168870e-02  4.4392638331679418e-02  4.0215174091930185e-02  3.6933392940736547e-02  3.4480327039917547e-02  3.2650360107236182e-02  6.1594898485330681e-02  6.2780273923278479e-02  3.8032796391066409e-02  4.7848420763769092e-02  5.7854823382960767e-02  6.9497428857703172e-02  8.3910348070030796e-02  1.0180454674012726e-01  1.2329370213510711e-01  1.4793359317903571e-01  1.7485520881899866e-01  2.0295695218690335e-01  2.3105556720652601e-01  2.5804623830563239e-01  2.8305590002388237e-01  3.0552636774259428e-01  3.2520773663512587e-01  3.4208635324908382e-01  3.5628063891587308e-01  3.6792665998245949e-01  3.7706481772630496e-01  3.8353762202861186e-01  3.8691350712467570e-01  3.8645849244011055e-01  3.8118333083370443e-01  3.6999578711753806e-01  3.5197980605215951e-01  3.2679183428910408e-01  2.9508558496870185e-01  2.5874454496490706e-01  2.2062921334376395e-01  1.8378382112368061e-01  1.5055570069399504e-01  1.2219843436073018e-01  9.9021724638418754e-02  8.0719055552616714e-02  6.6758932147091762e-02  5.6330234092005202e-02  4.8204869110122728e-02  3.9870433124012394e-02  3.3461141529918831e-02  6.1443207701352531e-02  6.9608716900954826e-02  5.0517221414955855e-02  9.0804717157908665e-02  1.5891860533869931e-01  2.3682362098029047e-01  3.0223530064724219e-01  3.5470410171108019e-01  3.9837543093442207e-01  4.3440991789821481e-01  4.6314283656032329e-01  4.8533804999375407e-01  5.0221813036700369e-01  5.1512682225752016e-01  5.2527287431692937e-01  5.3365474056781570e-01  5.4109863267141900e-01  5.4831987597135246e-01  5.5595425175532798e-01  5.6454337240444841e-01  5.7447898506966621e-01  5.8592014825315220e-01  5.9870082462917229e-01  6.1224643530091605e-01  6.2551809179914641e-01  6.3700400380713895e-01  6.4477886402489004e-01  6.4665412153737667e-01  6.4045002588004807e-01  6.2443874774993424e-01  5.9801453433558349e-01  5.6255630141623492e-01  5.2211678203999856e-01  4.8302742238274660e-01  4.5147593612432069e-01  4.2908633219676534e-01  4.0864146081735470e-01  3.7028191614944522e-01  2.9228868920653206e-01  1.4696669060411272e-01  4.8369927414104640e-02  6.3321103664195258e-02  3.1171486167936885e-01  3.6717503879322622e-01  7.2127597464106907e-01  7.9136158669304923e-01  8.1302538286766324e-01  8.0862893806548852e-01  7.9688981787100566e-01  7.8477930064539669e-01  7.7396398405507272e-01  7.6408544008499646e-01  7.5444385480022824e-01  7.4486736221712213e-01  7.3572354818516739e-01  7.2757604935051312e-01  7.2094877514409483e-01  7.1629803921877711e-01  7.1408103832447156e-01  7.1479621562268936e-01  7.1894214401469203e-01  7.2690403774414125e-01  7.3880748975406552e-01  7.5438631020822200e-01  7.7290459969406755e-01  7.9316122215268281e-01  8.1359625813685399e-01  8.3251189907221690e-01  8.4840261625415292e-01  8.6036147526878248e-01  8.6850867500942763e-01  8.7432752908695599e-01  8.8053165862652660e-01  8.8986239450975524e-01  9.0314813121486703e-01  9.1854382608291574e-01  9.3294423066856980e-01  9.4420750202498882e-01  9.5201247335159278e-01  9.5665716151862179e-01  9.5820008262707934e-01  9.5124979421657541e-01  5.8805811675268171e-01  9.4121774907215972e-01  9.5492238808045704e-01  9.5245005901305613e-01  9.4982156170892051e-01  9.4554937513605453e-01  9.3515977539452289e-01  9.2154138395724483e-01  9.0805763792542382e-01  8.9564114537726836e-01  8.8382859164816274e-01  8.7193487503342948e-01  8.5968287834956703e-01  8.4740224311121637e-01  8.3581543465487607e-01  8.2570897743007121e-01  8.1775799164486451e-01  8.1253320182293931e-01  8.1055688487705579e-01  8.1227777617488484e-01  8.1793799066895234e-01  8.2740454578021294e-01  8.4007292175306503e-01  8.5491236762399070e-01  8.7064929899730059e-01  8.8602748051102331e-01  9.0006468751508029e-01  9.1223531831734106e-01  9.2253285167714960e-01  9.3139450115576494e-01  9.3947142079793100e-01  9.4720714355511670e-01  9.5440279345540657e-01  9.6041410261800175e-01  9.6498092086325349e-01  9.6854757233243127e-01  9.7207590936720134e-01  9.7640143703514348e-01  9.8103050817218129e-01  9.8508399523538392e-01  9.8848943385046639e-01  9.7685752858525299e-01  9.6200003591929484e-01  9.7208244322733428e-01  9.6730607947425151e-01  9.6702725124013833e-01  9.6636206379129586e-01  9.6204413945558398e-01  9.5347367228771740e-01  9.4252099173528125e-01  9.3148027086891294e-01  9.2092644972892246e-01  9.1043652074170056e-01  8.9969638177263833e-01  8.8894231693025161e-01  8.7882587749691821e-01  8.7008154394955417e-01  8.6332234624383353e-01  8.5903076375048038e-01  8.5761825717819451e-01  8.5940333985378226e-01  8.6447577460720393e-01  8.7255844336757660e-01  8.8300210877748009e-01  8.9492747208335310e-01  9.0740894843232722e-01  9.1960687131753149e-01  9.3085329694348173e-01  9.4073639801847242e-01  9.4915763592266389e-01  9.5626292054572892e-01  9.6222182487573615e-01  9.6703522455811686e-01  9.7059047507355301e-01  9.7291334358671633e-01  9.7455952067709328e-01  9.7692061388179197e-01  9.8089462440106912e-01  9.8543787526202609e-01  9.8930504163874988e-01  9.9217057897431082e-01  9.9406509044442093e-01  9.8890327248739129e-01  9.6551162008257119e-01  9.7634396915044064e-01  9.7056420627993567e-01  9.6934151431316040e-01  9.6899820519721491e-01  9.6563830480523005e-01  9.5782192563434398e-01  9.4654402438952279e-01  9.3438934473203328e-01  9.2262252540912493e-01  9.1123699441847295e-01  9.0014252751238444e-01  8.8973370259990114e-01  8.8078108739827665e-01  8.7402721798421779e-01  8.6991084823820586e-01  8.6857803950689561e-01  8.7004273422178902e-01  8.7426900100793425e-01  8.8109880305179233e-01  8.9014815242272916e-01  9.0081169060613497e-01  9.1237946700827632e-01  9.2415759656837160e-01  9.3550675079039458e-01  9.4584927089332094e-01  9.5474070805446909e-01  9.6197752725342445e-01  9.6761001626489296e-01  9.7179542189374923e-01  9.7460307053574124e-01  9.7602398610787666e-01  9.7640661727692113e-01  9.7709420970113636e-01  9.7979068473640840e-01  9.8411111773758164e-01  9.8825164073929872e-01  9.9143771067678477e-01  9.9370673628184780e-01  9.9517338898729746e-01  9.9148020769976652e-01  9.6015681056339974e-01  9.7218686327330661e-01  9.6576531362063611e-01  9.6359018102449623e-01  9.6146430166203334e-01  9.5469596568168058e-01  9.4133620017471464e-01  9.2412151274982313e-01  9.0642622950459595e-01  8.8937250807217139e-01  8.7337102700727343e-01  8.5915790144368742e-01  8.4786224848673997e-01  8.4057213637004569e-01  8.3782623130463030e-01  8.3945434579210676e-01  8.4480339177834696e-01  8.5307487638024782e-01  8.6352808294459393e-01  8.7553623562295513e-01  8.8858563224532949e-01  9.0219643570539576e-01  9.1584343416106651e-01  9.2900696310624797e-01  9.4119916043883967e-01  9.5192047908728927e-01  9.6074012047879132e-01  9.6750895067402898e-01  9.7241663299460368e-01  9.7571472880257293e-01  9.7745065792851871e-01  9.7768031417153145e-01  9.7709957107598877e-01  9.7739683383100984e-01  9.8004258920926701e-01  9.8408593934870026e-01  9.8781442848909173e-01  9.9069959108631811e-01  9.9280364758322071e-01  9.9421999728512556e-01  9.9030290798328180e-01  9.3252798204071963e-01  9.5408256185629148e-01  9.4280525969282458e-01  9.3595648978669677e-01  9.2435349961274504e-01  9.0322812022327081e-01  8.7320765925197730e-01  8.3782257313478703e-01  8.0134406300027405e-01  7.6953572611428800e-01  7.4609529156639853e-01  7.3198174544953520e-01  7.2699090682642564e-01  7.3043360681203018e-01  7.4115441569165452e-01  7.5762669548720740e-01  7.7819759877322980e-01  8.0125520006653606e-01  8.2521274886744445e-01  8.4856741085435705e-01  8.7031431674553339e-01  8.9019901309147553e-01  9.0829040518424309e-01  9.2457447937503257e-01  9.3890841959369176e-01  9.5101677586765077e-01  9.6061223688322483e-01  9.6768525880726475e-01  9.7259068405063420e-01  9.7572120950945085e-01  9.7723437249472012e-01  9.7728619891710566e-01  9.7655113562038243e-01  9.7641557226874964e-01  9.7810125668263670e-01  9.8111302949319656e-01  9.8410771183308954e-01  9.8646365605545827e-01  9.8830388782894341e-01  9.8931163620750018e-01  9.8255024125612078e-01  1.5693850657752198e-01  3.6245456331818321e-01  4.8193941221637759e-01  5.5565606902052378e-01  5.7310790282142332e-01  5.5875607154627327e-01  5.2714637425254374e-01  4.9689270817237707e-01  4.7659389990466661e-01  4.6820280794496949e-01  4.7078525567893420e-01  4.8319795774559759e-01  5.0461652687703940e-01  5.3416502016429968e-01  5.7060703345544839e-01  6.1234773886382143e-01  6.5761027843282382e-01  7.0452798613179468e-01  7.5096723136074606e-01  7.9433931989176187e-01  8.3223570072459296e-01  8.6377207933227995e-01  8.8970975614558723e-01  9.1120766782900509e-01  9.2904532458254241e-01  9.4355367468577989e-01  9.5481571500532159e-01  9.6301055486087872e-01  9.6860880021508400e-01  9.7218879570303929e-01  9.7416221541135795e-01  9.7480716178865234e-01  9.7455098548694352e-01  9.7413656137239457e-01  9.7428668522802853e-01  9.7498804417902729e-01  9.7541933802438163e-01  9.7435620506318388e-01  9.7167828003582257e-01  9.6007641138887478e-01  9.2464654044687244e-01  6.4898120406142332e-02  4.7119957337303016e-02  7.4381480451017057e-02  1.0496198815275104e-01  1.3595868103519931e-01  1.6193772402090559e-01  1.8015457756056100e-01  1.9313496269057370e-01  2.0408467271577493e-01  2.1626415874378965e-01  2.3248708575865334e-01  2.5521198241178317e-01  2.8641419932911427e-01  3.2714879028512972e-01  3.7720549316765228e-01  4.3536091425159162e-01  4.9990988828756799e-01  5.6875631210597810e-01  6.3904717000378231e-01  7.0684049714776243e-01  7.6750745425695099e-01  8.1762287803813316e-01  8.5684664177780379e-01  8.8713726480230515e-01  9.1069438875059228e-01  9.2902386482475741e-01  9.4299466947011301e-01  9.5320630684300212e-01  9.6028874523954688e-01  9.6493499105357983e-01  9.6774407399526607e-01  9.6912111479466456e-01  9.6933139767857091e-01  9.6857027032603271e-01  9.6682433672081158e-01  9.6346053554609401e-01  9.5689406444655090e-01  9.4281926007166139e-01  8.8287994256471647e-01  1.3481049968468631e-01  7.8440580482871503e-02  6.4235148054246016e-02  3.9877748496227952e-02  5.0479451028540616e-02  6.1953666897335405e-02  7.5303469268679729e-02  8.8088896445101761e-02  9.9284377808168608e-02  1.0982427028897519e-01  1.2119645374760629e-01  1.3478169053043143e-01  1.5158717262762172e-01  1.7235831391626372e-01  1.9791618585512039e-01  2.2958787403913022e-01  2.6899385989208924e-01  3.1707033536904861e-01  3.7403511641672654e-01  4.4017447935979132e-01  5.1484528211805058e-01  5.9465377078904369e-01  6.7338583535548846e-01  7.4398232658494468e-01  8.0173461547224889e-01  8.4612781992150943e-01  8.7943656740918830e-01  9.0434771233101463e-01  9.2287770697808891e-01  9.3638451421918090e-01  9.4586912406646451e-01  9.5215304262354916e-01  9.5587254098137986e-01  9.5739321514460540e-01  9.5672567089274885e-01  9.5338144899044408e-01  9.4592141758409765e-01  9.2984573825500083e-01  8.8239198903344063e-01  6.6795920261050279e-01  1.5391043313857661e-01  4.7895870739105603e-02  6.4743620141545472e-02  6.4245863461241295e-02  3.8865212768173237e-02  4.4989572781667167e-02  5.1459338198704435e-02  6.0253772818268381e-02  7.0169452101720459e-02  8.0210222028865810e-02  9.0368152090089152e-02  1.0157892219115280e-01  1.1524148409927162e-01  1.3276116362206852e-01  1.5526835924968993e-01  1.8329542012403938e-01  2.1644033177913558e-01  2.5351419159870120e-01  2.9327012457886831e-01  3.3486018998624145e-01  3.7913238614116779e-01  4.3027386524155942e-01  4.9253447304408948e-01  5.6505080612759540e-01  6.4149850594394808e-01  7.1363554680107177e-01  7.7518577422783563e-01  8.2375477946981468e-01  8.6018611800096045e-01  8.8672114079278697e-01  9.0558455810661453e-01  9.1844777524161580e-01  9.2638183677291341e-01  9.2987514105502633e-01  9.2869187423307031e-01  9.2128122465740692e-01  9.0258157634157121e-01  8.5531824487846297e-01  7.2125126344638901e-01  4.1691723057389801e-01  1.4252956452288090e-01  6.4730129619859245e-02  4.1750990810970792e-02  6.3796480220605967e-02  6.4550594920274054e-02  3.9000174022840992e-02  4.3793243880543307e-02  4.8279602013013526e-02  5.4813648909203851e-02  6.2959816245258426e-02  7.2107667074916573e-02  8.2115234363384568e-02  9.3662998508833167e-02  1.0813553562017618e-01  1.2724572925222463e-01  1.5255295999460516e-01  1.8484374798136116e-01  2.2342859670427867e-01  2.6575083288318657e-01  3.0795541775688140e-01  3.4628208857626819e-01  3.7829143417444860e-01  4.0536170295880342e-01  4.3481875433872708e-01  4.7522026798439831e-01  5.2929261300619246e-01  5.9293122429799883e-01  6.5885822074458045e-01  7.2024840323656791e-01  7.7253656852675900e-01  8.1368201419834851e-01  8.4353343270995107e-01  8.6276584624859609e-01  8.7164305767954509e-01  8.6839680776218386e-01  8.4618771632357959e-01  7.8786708207833067e-01  6.6653248746629334e-01  4.7320319427444452e-01  2.6136396045267396e-01  1.2797977453508325e-01  7.5400011976094972e-02  5.3807893013451111e-02  4.0628334600069912e-02  6.3871832954354751e-02  6.4922082802979161e-02  3.9614296384590013e-02  4.4288669985141096e-02  4.8261784112554391e-02  5.4101710279092524e-02  6.1693978051905102e-02  7.0659870101548158e-02  8.0885585505450552e-02  9.3027475269568519e-02  1.0870372105319413e-01  1.3017951410140291e-01  1.5947934914845310e-01  1.9709807121825837e-01  2.4105299315553042e-01  2.8714919920686571e-01  3.3029987946954675e-01  3.6615328634979316e-01  3.9192044547021532e-01  4.0665281191961977e-01  4.1345242323260234e-01  4.2068290086640153e-01  4.3744223782170127e-01  4.6777851445629876e-01  5.0958440106649583e-01  5.5712784926618919e-01  6.0375723082857713e-01  6.4328013561484099e-01  6.7010016363721780e-01  6.7855484210924277e-01  6.6204623475138413e-01  6.1328365549237718e-01  5.2774366348361001e-01  4.1082036958926571e-01  2.8402350807795773e-01  1.7917723624382467e-01  1.1385117135356704e-01  7.9243149848941985e-02  6.0780705147576150e-02  5.0138293962476682e-02  4.0141701873936973e-02  6.3923557393629926e-02  6.5327116387885811e-02  4.0621801124578395e-02  4.5914447077648482e-02  5.0065594281136230e-02  5.6105670717647771e-02  6.4096671761788682e-02  7.3767627751788981e-02  8.5055331413037671e-02  9.8807629334480701e-02  1.1720964570508438e-01  1.4326212684826911e-01  1.7907231182757105e-01  2.2373986503750470e-01  2.7266808079631577e-01  3.1933686189741861e-01  3.5802039976914113e-01  3.8548886806653582e-01  4.0092704292896697e-01  4.0467088596732698e-01  3.9819491187014855e-01  3.8578953626755269e-01  3.7445333491159971e-01  3.7052579912098610e-01  3.7630821788123137e-01  3.8944165376140172e-01  4.0441208611542073e-01  4.1443317513315292e-01  4.1291304570879944e-01  3.9469079651581690e-01  3.5751282759762237e-01  3.0378199293295449e-01  2.4142311170317360e-01  1.8167118857968467e-01  1.3358295031608491e-01  9.9843193540323019e-02  7.7933425708645018e-02  6.3948108801225201e-02  5.4718649907811320e-02  4.8033655950431332e-02  3.9683213274170140e-02  6.3896160631351770e-02  6.5733959350777096e-02  4.1932625716171970e-02  4.8506454736325255e-02  5.3394934843032288e-02  6.0346132258570599e-02  6.9570138163242770e-02  8.0886161458676664e-02  9.4479326868229158e-02  1.118489822