<?xml version="1.0"?>
<VTKFile type="UnstructuredGrid"  version="0.1"  >
<UnstructuredGrid>
<Piece  NumberOfPoints="1681" NumberOfCells="3200">
<Points>
<DataArray  type="Float64"  NumberOfComponents="3"  format="ascii">0 0 0  0.025 0 0  0.05 0 0  0.075 0 0  0.1 0 0  0.125 0 0  0.15 0 0  0.175 0 0  0.2 0 0  0.225 0 0  0.25 0 0  0.275 0 0  0.3 0 0  0.325 0 0  0.35 0 0  0.375 0 0  0.4 0 0  0.425 0 0  0.45 0 0  0.475 0 0  0.5 0 0  0.525 0 0  0.55 0 0  0.575 0 0  0.6 0 0  0.625 0 0  0.65 0 0  0.675 0 0  0.7 0 0  0.725 0 0  0.75 0 0  0.775 0 0  0.8 0 0  0.825 0 0  0.85 0 0  0.875 0 0  0.9 0 0  0.925 0 0  0.95 0 0  0.975 0 0  1 0 0  0 0.025 0  0.025 0.025 0  0.05 0.025 0  0.075 0.025 0  0.1 0.025 0  0.125 0.025 0  0.15 0.025 0  0.175 0.025 0  0.2 0.025 0  0.225 0.025 0  0.25 0.025 0  0.275 0.025 0  0.3 0.025 0  0.325 0.025 0  0.35 0.025 0  0.375 0.025 0  0.4 0.025 0  0.425 0.025 0  0.45 0.025 0  0.475 0.025 0  0.5 0.025 0  0.525 0.025 0  0.55 0.025 0  0.575 0.025 0  0.6 0.025 0  0.625 0.025 0  0.65 0.025 0  0.675 0.025 0  0.7 0.025 0  0.725 0.025 0  0.75 0.025 0  0.775 0.025 0  0.8 0.025 0  0.825 0.025 0  0.85 0.025 0  0.875 0.025 0  0.9 0.025 0  0.925 0.025 0  0.95 0.025 0  0.975 0.025 0  1 0.025 0  0 0.05 0  0.025 0.05 0  0.05 0.05 0  0.075 0.05 0  0.1 0.05 0  0.125 0.05 0  0.15 0.05 0  0.175 0.05 0  0.2 0.05 0  0.225 0.05 0  0.25 0.05 0  0.275 0.05 0  0.3 0.05 0  0.325 0.05 0  0.35 0.05 0  0.375 0.05 0  0.4 0.05 0  0.425 0.05 0  0.45 0.05 0  0.475 0.05 0  0.5 0.05 0  0.525 0.05 0  0.55 0.05 0  0.575 0.05 0  0.6 0.05 0  0.625 0.05 0  0.65 0.05 0  0.675 0.05 0  0.7 0.05 0  0.725 0.05 0  0.75 0.05 0  0.775 0.05 0  0.8 0.05 0  0.825 0.05 0  0.85 0.05 0  0.875 0.05 0  0.9 0.05 0  0.925 0.05 0  0.95 0.05 0  0.975 0.05 0  1 0.05 0  0 0.075 0  0.025 0.075 0  0.05 0.075 0  0.075 0.075 0  0.1 0.075 0  0.125 0.075 0  0.15 0.075 0  0.175 0.075 0  0.2 0.075 0  0.225 0.075 0  0.25 0.075 0  0.275 0.075 0  0.3 0.075 0  0.325 0.075 0  0.35 0.075 0  0.375 0.075 0  0.4 0.075 0  0.425 0.075 0  0.45 0.075 0  0.475 0.075 0  0.5 0.075 0  0.525 0.075 0  0.55 0.075 0  0.575 0.075 0  0.6 0.075 0  0.625 0.075 0  0.65 0.075 0  0.675 0.075 0  0.7 0.075 0  0.725 0.075 0  0.75 0.075 0  0.775 0.075 0  0.8 0.075 0  0.825 0.075 0  0.85 0.075 0  0.875 0.075 0  0.9 0.075 0  0.925 0.075 0  0.95 0.075 0  0.975 0.075 0  1 0.075 0  0 0.1 0  0.025 0.1 0  0.05 0.1 0  0.075 0.1 0  0.1 0.1 0  0.125 0.1 0  0.15 0.1 0  0.175 0.1 0  0.2 0.1 0  0.225 0.1 0  0.25 0.1 0  0.275 0.1 0  0.3 0.1 0  0.325 0.1 0  0.35 0.1 0  0.375 0.1 0  0.4 0.1 0  0.425 0.1 0  0.45 0.1 0  0.475 0.1 0  0.5 0.1 0  0.525 0.1 0  0.55 0.1 0  0.575 0.1 0  0.6 0.1 0  0.625 0.1 0  0.65 0.1 0  0.675 0.1 0  0.7 0.1 0  0.725 0.1 0  0.75 0.1 0  0.775 0.1 0  0.8 0.1 0  0.825 0.1 0  0.85 0.1 0  0.875 0.1 0  0.9 0.1 0  0.925 0.1 0  0.95 0.1 0  0.975 0.1 0  1 0.1 0  0 0.125 0  0.025 0.125 0  0.05 0.125 0  0.075 0.125 0  0.1 0.125 0  0.125 0.125 0  0.15 0.125 0  0.175 0.125 0  0.2 0.125 0  0.225 0.125 0  0.25 0.125 0  0.275 0.125 0  0.3 0.125 0  0.325 0.125 0  0.35 0.125 0  0.375 0.125 0  0.4 0.125 0  0.425 0.125 0  0.45 0.125 0  0.475 0.125 0  0.5 0.125 0  0.525 0.125 0  0.55 0.125 0  0.575 0.125 0  0.6 0.125 0  0.625 0.125 0  0.65 0.125 0  0.675 0.125 0  0.7 0.125 0  0.725 0.125 0  0.75 0.125 0  0.775 0.125 0  0.8 0.125 0  0.825 0.125 0  0.85 0.125 0  0.875 0.125 0  0.9 0.125 0  0.925 0.125 0  0.95 0.125 0  0.975 0.125 0  1 0.125 0  0 0.15 0  0.025 0.15 0  0.05 0.15 0  0.075 0.15 0  0.1 0.15 0  0.125 0.15 0  0.15 0.15 0  0.175 0.15 0  0.2 0.15 0  0.225 0.15 0  0.25 0.15 0  0.275 0.15 0  0.3 0.15 0  0.325 0.15 0  0.35 0.15 0  0.375 0.15 0  0.4 0.15 0  0.425 0.15 0  0.45 0.15 0  0.475 0.15 0  0.5 0.15 0  0.525 0.15 0  0.55 0.15 0  0.575 0.15 0  0.6 0.15 0  0.625 0.15 0  0.65 0.15 0  0.675 0.15 0  0.7 0.15 0  0.725 0.15 0  0.75 0.15 0  0.775 0.15 0  0.8 0.15 0  0.825 0.15 0  0.85 0.15 0  0.875 0.15 0  0.9 0.15 0  0.925 0.15 0  0.95 0.15 0  0.975 0.15 0  1 0.15 0  0 0.175 0  0.025 0.175 0  0.05 0.175 0  0.075 0.175 0  0.1 0.175 0  0.125 0.175 0  0.15 0.175 0  0.175 0.175 0  0.2 0.175 0  0.225 0.175 0  0.25 0.175 0  0.275 0.175 0  0.3 0.175 0  0.325 0.175 0  0.35 0.175 0  0.375 0.175 0  0.4 0.175 0  0.425 0.175 0  0.45 0.175 0  0.475 0.175 0  0.5 0.175 0  0.525 0.175 0  0.55 0.175 0  0.575 0.175 0  0.6 0.175 0  0.625 0.175 0  0.65 0.175 0  0.675 0.175 0  0.7 0.175 0  0.725 0.175 0  0.75 0.175 0  0.775 0.175 0  0.8 0.175 0  0.825 0.175 0  0.85 0.175 0  0.875 0.175 0  0.9 0.175 0  0.925 0.175 0  0.95 0.175 0  0.975 0.175 0  1 0.175 0  0 0.2 0  0.025 0.2 0  0.05 0.2 0  0.075 0.2 0  0.1 0.2 0  0.125 0.2 0  0.15 0.2 0  0.175 0.2 0  0.2 0.2 0  0.225 0.2 0  0.25 0.2 0  0.275 0.2 0  0.3 0.2 0  0.325 0.2 0  0.35 0.2 0  0.375 0.2 0  0.4 0.2 0  0.425 0.2 0  0.45 0.2 0  0.475 0.2 0  0.5 0.2 0  0.525 0.2 0  0.55 0.2 0  0.575 0.2 0  0.6 0.2 0  0.625 0.2 0  0.65 0.2 0  0.675 0.2 0  0.7 0.2 0  0.725 0.2 0  0.75 0.2 0  0.775 0.2 0  0.8 0.2 0  0.825 0.2 0  0.85 0.2 0  0.875 0.2 0  0.9 0.2 0  0.925 0.2 0  0.95 0.2 0  0.975 0.2 0  1 0.2 0  0 0.225 0  0.025 0.225 0  0.05 0.225 0  0.075 0.225 0  0.1 0.225 0  0.125 0.225 0  0.15 0.225 0  0.175 0.225 0  0.2 0.225 0  0.225 0.225 0  0.25 0.225 0  0.275 0.225 0  0.3 0.225 0  0.325 0.225 0  0.35 0.225 0  0.375 0.225 0  0.4 0.225 0  0.425 0.225 0  0.45 0.225 0  0.475 0.225 0  0.5 0.225 0  0.525 0.225 0  0.55 0.225 0  0.575 0.225 0  0.6 0.225 0  0.625 0.225 0  0.65 0.225 0  0.675 0.225 0  0.7 0.225 0  0.725 0.225 0  0.75 0.225 0  0.775 0.225 0  0.8 0.225 0  0.825 0.225 0  0.85 0.225 0  0.875 0.225 0  0.9 0.225 0  0.925 0.225 0  0.95 0.225 0  0.975 0.225 0  1 0.225 0  0 0.25 0  0.025 0.25 0  0.05 0.25 0  0.075 0.25 0  0.1 0.25 0  0.125 0.25 0  0.15 0.25 0  0.175 0.25 0  0.2 0.25 0  0.225 0.25 0  0.25 0.25 0  0.275 0.25 0  0.3 0.25 0  0.325 0.25 0  0.35 0.25 0  0.375 0.25 0  0.4 0.25 0  0.425 0.25 0  0.45 0.25 0  0.475 0.25 0  0.5 0.25 0  0.525 0.25 0  0.55 0.25 0  0.575 0.25 0  0.6 0.25 0  0.625 0.25 0  0.65 0.25 0  0.675 0.25 0  0.7 0.25 0  0.725 0.25 0  0.75 0.25 0  0.775 0.25 0  0.8 0.25 0  0.825 0.25 0  0.85 0.25 0  0.875 0.25 0  0.9 0.25 0  0.925 0.25 0  0.95 0.25 0  0.975 0.25 0  1 0.25 0  0 0.275 0  0.025 0.275 0  0.05 0.275 0  0.075 0.275 0  0.1 0.275 0  0.125 0.275 0  0.15 0.275 0  0.175 0.275 0  0.2 0.275 0  0.225 0.275 0  0.25 0.275 0  0.275 0.275 0  0.3 0.275 0  0.325 0.275 0  0.35 0.275 0  0.375 0.275 0  0.4 0.275 0  0.425 0.275 0  0.45 0.275 0  0.475 0.275 0  0.5 0.275 0  0.525 0.275 0  0.55 0.275 0  0.575 0.275 0  0.6 0.275 0  0.625 0.275 0  0.65 0.275 0  0.675 0.275 0  0.7 0.275 0  0.725 0.275 0  0.75 0.275 0  0.775 0.275 0  0.8 0.275 0  0.825 0.275 0  0.85 0.275 0  0.875 0.275 0  0.9 0.275 0  0.925 0.275 0  0.95 0.275 0  0.975 0.275 0  1 0.275 0  0 0.3 0  0.025 0.3 0  0.05 0.3 0  0.075 0.3 0  0.1 0.3 0  0.125 0.3 0  0.15 0.3 0  0.175 0.3 0  0.2 0.3 0  0.225 0.3 0  0.25 0.3 0  0.275 0.3 0  0.3 0.3 0  0.325 0.3 0  0.35 0.3 0  0.375 0.3 0  0.4 0.3 0  0.425 0.3 0  0.45 0.3 0  0.475 0.3 0  0.5 0.3 0  0.525 0.3 0  0.55 0.3 0  0.575 0.3 0  0.6 0.3 0  0.625 0.3 0  0.65 0.3 0  0.675 0.3 0  0.7 0.3 0  0.725 0.3 0  0.75 0.3 0  0.775 0.3 0  0.8 0.3 0  0.825 0.3 0  0.85 0.3 0  0.875 0.3 0  0.9 0.3 0  0.925 0.3 0  0.95 0.3 0  0.975 0.3 0  1 0.3 0  0 0.325 0  0.025 0.325 0  0.05 0.325 0  0.075 0.325 0  0.1 0.325 0  0.125 0.325 0  0.15 0.325 0  0.175 0.325 0  0.2 0.325 0  0.225 0.325 0  0.25 0.325 0  0.275 0.325 0  0.3 0.325 0  0.325 0.325 0  0.35 0.325 0  0.375 0.325 0  0.4 0.325 0  0.425 0.325 0  0.45 0.325 0  0.475 0.325 0  0.5 0.325 0  0.525 0.325 0  0.55 0.325 0  0.575 0.325 0  0.6 0.325 0  0.625 0.325 0  0.65 0.325 0  0.675 0.325 0  0.7 0.325 0  0.725 0.325 0  0.75 0.325 0  0.775 0.325 0  0.8 0.325 0  0.825 0.325 0  0.85 0.325 0  0.875 0.325 0  0.9 0.325 0  0.925 0.325 0  0.95 0.325 0  0.975 0.325 0  1 0.325 0  0 0.35 0  0.025 0.35 0  0.05 0.35 0  0.075 0.35 0  0.1 0.35 0  0.125 0.35 0  0.15 0.35 0  0.175 0.35 0  0.2 0.35 0  0.225 0.35 0  0.25 0.35 0  0.275 0.35 0  0.3 0.35 0  0.325 0.35 0  0.35 0.35 0  0.375 0.35 0  0.4 0.35 0  0.425 0.35 0  0.45 0.35 0  0.475 0.35 0  0.5 0.35 0  0.525 0.35 0  0.55 0.35 0  0.575 0.35 0  0.6 0.35 0  0.625 0.35 0  0.65 0.35 0  0.675 0.35 0  0.7 0.35 0  0.725 0.35 0  0.75 0.35 0  0.775 0.35 0  0.8 0.35 0  0.825 0.35 0  0.85 0.35 0  0.875 0.35 0  0.9 0.35 0  0.925 0.35 0  0.95 0.35 0  0.975 0.35 0  1 0.35 0  0 0.375 0  0.025 0.375 0  0.05 0.375 0  0.075 0.375 0  0.1 0.375 0  0.125 0.375 0  0.15 0.375 0  0.175 0.375 0  0.2 0.375 0  0.225 0.375 0  0.25 0.375 0  0.275 0.375 0  0.3 0.375 0  0.325 0.375 0  0.35 0.375 0  0.375 0.375 0  0.4 0.375 0  0.425 0.375 0  0.45 0.375 0  0.475 0.375 0  0.5 0.375 0  0.525 0.375 0  0.55 0.375 0  0.575 0.375 0  0.6 0.375 0  0.625 0.375 0  0.65 0.375 0  0.675 0.375 0  0.7 0.375 0  0.725 0.375 0  0.75 0.375 0  0.775 0.375 0  0.8 0.375 0  0.825 0.375 0  0.85 0.375 0  0.875 0.375 0  0.9 0.375 0  0.925 0.375 0  0.95 0.375 0  0.975 0.375 0  1 0.375 0  0 0.4 0  0.025 0.4 0  0.05 0.4 0  0.075 0.4 0  0.1 0.4 0  0.125 0.4 0  0.15 0.4 0  0.175 0.4 0  0.2 0.4 0  0.225 0.4 0  0.25 0.4 0  0.275 0.4 0  0.3 0.4 0  0.325 0.4 0  0.35 0.4 0  0.375 0.4 0  0.4 0.4 0  0.425 0.4 0  0.45 0.4 0  0.475 0.4 0  0.5 0.4 0  0.525 0.4 0  0.55 0.4 0  0.575 0.4 0  0.6 0.4 0  0.625 0.4 0  0.65 0.4 0  0.675 0.4 0  0.7 0.4 0  0.725 0.4 0  0.75 0.4 0  0.775 0.4 0  0.8 0.4 0  0.825 0.4 0  0.85 0.4 0  0.875 0.4 0  0.9 0.4 0  0.925 0.4 0  0.95 0.4 0  0.975 0.4 0  1 0.4 0  0 0.425 0  0.025 0.425 0  0.05 0.425 0  0.075 0.425 0  0.1 0.425 0  0.125 0.425 0  0.15 0.425 0  0.175 0.425 0  0.2 0.425 0  0.225 0.425 0  0.25 0.425 0  0.275 0.425 0  0.3 0.425 0  0.325 0.425 0  0.35 0.425 0  0.375 0.425 0  0.4 0.425 0  0.425 0.425 0  0.45 0.425 0  0.475 0.425 0  0.5 0.425 0  0.525 0.425 0  0.55 0.425 0  0.575 0.425 0  0.6 0.425 0  0.625 0.425 0  0.65 0.425 0  0.675 0.425 0  0.7 0.425 0  0.725 0.425 0  0.75 0.425 0  0.775 0.425 0  0.8 0.425 0  0.825 0.425 0  0.85 0.425 0  0.875 0.425 0  0.9 0.425 0  0.925 0.425 0  0.95 0.425 0  0.975 0.425 0  1 0.425 0  0 0.45 0  0.02
[...]
<PointData  Scalars="ControlVisualisation"> 
<DataArray  type="Float64"  Name="ControlVisualisation"  format="ascii">1.4172256143574136e-01  1.0114818904342657e-01  1.0115501618127394e-01  1.0116879997814221e-01  1.0118895568503504e-01  1.0121487048503061e-01  1.0124579481782105e-01  1.0128083541668451e-01  1.0131898929401507e-01  1.0135917868953050e-01  1.0140028875358355e-01  1.0144120284763096e-01  1.0148083490025153e-01  1.0151815769917800e-01  1.0155222663376401e-01  1.0158219886785920e-01  1.0160734824662868e-01  1.0162707645699393e-01  1.0164092105154963e-01  1.0164856093514651e-01  1.0164981982743748e-01  1.0164466807782879e-01  1.0163322304283168e-01  1.0161574805363523e-01  1.0159264981846966e-01  1.0156447392798759e-01  1.0153189798045424e-01  1.0149572173349704e-01  1.0145685364966807e-01  1.0141629325510372e-01  1.0137510891618802e-01  1.0133441090063006e-01  1.0129532020492700e-01  1.0125893347015044e-01  1.0122628704943985e-01  1.0119831673358146e-01  1.0117583491699028e-01  1.0115949156026019e-01  1.0114977960680198e-01  1.0114681609046258e-01  2.3250628802464057e-01  1.0114819166463600e-01  5.3736415016649566e-02  5.3758391382127631e-02  5.3798783625297643e-02  5.3858040031743423e-02  5.3934622550124371e-02  5.4026382046813426e-02  5.4130782807251927e-02  5.4244943669856265e-02  5.4365737178129731e-02  5.4489892211053527e-02  5.4614095069353823e-02  5.4735085656232106e-02  5.4849744642582896e-02  5.4955169614140591e-02  5.5048739257554304e-02  5.5128165631320149e-02  5.5191535285201855e-02  5.5237340398101312e-02  5.5264501238023740e-02  5.5272381155393208e-02  5.5260795061783399e-02  5.5230011978380816e-02  5.5180751809886582e-02  5.5114176055662004e-02  5.5031871749976632e-02  5.4935827574437775e-02  5.4828400859785638e-02  5.4712274153991783e-02  5.4590400235401994e-02  5.4465934953287928e-02  5.4342158044297297e-02  5.4222383333570476e-02  5.4109860215995904e-02  5.4007672518419293e-02  5.3918633511311306e-02  5.3845202478329794e-02  5.3789368943412533e-02  5.3752421478547578e-02  5.3732333108792822e-02  1.0114681517892370e-01  1.0115510841862718e-01  5.3758683110089765e-02  5.3802227908268996e-02  5.3865825317129509e-02  5.3958142951520072e-02  5.4077828079773675e-02  5.4221773466084276e-02  5.4386153108829063e-02  5.4566564029158104e-02  5.4758178662971176e-02  5.4955888330503549e-02  5.5154456984450102e-02  5.5348672515742749e-02  5.5533489845938318e-02  5.5704161592542878e-02  5.5856353383868192e-02  5.5986242373614679e-02  5.6090598604260342e-02  5.6166849634181081e-02  5.6213129268659595e-02  5.6228311357348390e-02  5.6212029506381100e-02  5.6164683276359401e-02  5.6087431065752071e-02  5.5982169477465482e-02  5.5851498595271880e-02  5.5698672322105472e-02  5.5527532824546262e-02  5.5342428262211994e-02  5.5148113419376012e-02  5.4949633661420173e-02  5.4752193711785656e-02  5.4561014398952404e-02  5.4381181108163333e-02  5.4217493100897331e-02  5.4074309100395762e-02  5.3955426466864638e-02  5.3863796095509398e-02  5.3800299236827470e-02  5.3752590456129283e-02  1.0114979032651618e-01  1.0116942444185716e-01  5.3800660195934408e-02  5.3868180529394093e-02  5.3937064521598438e-02  5.4033921871275578e-02  5.4159224984039869e-02  5.4310029850092610e-02  5.4482410174623040e-02  5.4671816024263818e-02  5.4873230251820795e-02  5.5081317575674874e-02  5.5290583450411095e-02  5.5495531501076840e-02  5.5690815439781660e-02  5.5871380312269209e-02  5.6032589674010938e-02  5.6170336581740574e-02  5.6281137303569088e-02  5.6362207398760349e-02  5.6411520273702852e-02  5.6427848531350862e-02  5.6410788458819333e-02  5.6360767904546735e-02  5.6279037636322846e-02  5.6167646090745225e-02  5.6029397264384995e-02  5.5867791404105471e-02  5.5686948183961547e-02  5.5491512275157584e-02  5.5286541681139216e-02  5.5077379988277400e-02  5.4869514675150291e-02  5.4668425185668147e-02  5.4479424815001988e-02  5.4307505500641721e-02  5.4157178866461791e-02  5.4032331164629563e-02  5.3935727791122996e-02  5.3866053845746033e-02  5.3790725173539972e-02  1.0115969026970527e-01  1.0119124918536321e-01  5.3864778573856444e-02  5.3967893884247262e-02  5.4041647324001151e-02  5.4140454168711445e-02  5.4267716529463293e-02  5.4420791843489691e-02  5.4595729069525804e-02  5.4787919491894758e-02  5.4992269412027880e-02  5.5203363053224340e-02  5.5415624758273892e-02  5.5623480136889010e-02  5.5821510688483164e-02  5.6004596716991789e-02  5.6168045385157850e-02  5.6307701959807895e-02  5.6420043389606586e-02  5.6502254087422474e-02  5.6552284198255240e-02  5.6568890786585724e-02  5.6551662349309487e-02  5.6501026922144933e-02  5.6418243852832457e-02  5.6305379107219840e-02  5.6165263784249478e-02  5.6001435390010262e-02  5.5818061409755912e-02  5.5619844896881487e-02  5.5411912238315944e-02  5.5199684045114654e-02  5.4988731156180713e-02  5.4784619433387222e-02  5.4592747332074851e-02  5.4418185535857276e-02  5.4265507935241278e-02  5.4138609347944851e-02  5.4039913121813721e-02  5.3964856320161333e-02  5.3850545531366388e-02  1.0117688904197616e-01  1.0122098633084017e-01  5.3952453680091959e-02  5.4104659276955361e-02  5.4184941675821871e-02  5.4286011988338427e-02  5.4415359188292420e-02  5.4570729913194477e-02  5.4748134630839149e-02  5.4942873479204332e-02  5.5149751692502885e-02  5.5363259482165882e-02  5.5577741571616199e-02  5.5787564749185961e-02  5.5987275328441936e-02  5.6171741894177514e-02  5.6336280362540125e-02  5.6476760008155540e-02  5.6589690444971995e-02  5.6672290372639905e-02  5.6722539296577286e-02  5.6739213469062168e-02  5.6721907079964468e-02  5.6671039349076469e-02  5.6587847706240632e-02  5.6474366763259169e-02  5.6333392328239452e-02  5.6168429356548664e-02  5.5983622546753230e-02  5.5783668371854667e-02  5.5573707778920040e-02  5.5359199701058015e-02  5.5145776799577294e-02  5.4939086923023947e-02  5.4744624321486093e-02  5.4567560381434337e-02  5.4412558573852535e-02  5.4283537164870263e-02  5.4182459927077695e-02  5.4100380724943463e-02  5.3933524274887075e-02  1.0120171310152523e-01  1.0125920022780674e-01  5.4065395158389297e-02  5.4281529113276411e-02  5.4370624319119938e-02  5.4474823317427278e-02  5.4606989356869362e-02  5.4765426651654202e-02  5.4946104221711770e-02  5.5144196753517338e-02  5.5354373548604154e-02  5.5570998717824109e-02  5.5788312199421139e-02  5.6000605723751908e-02  5.6202384223256803e-02  5.6388508302044414e-02  5.6554314937139090e-02  5.6695715928802341e-02  5.6809275252212646e-02  5.6892267465311674e-02  5.6942719731787807e-02  5.6959439915800027e-02  5.6942032723708791e-02  5.6890905141061543e-02  5.6807261547201039e-02  5.6693087983417441e-02  5.6551124201154955e-02  5.6384821411719681e-02  5.6198283219933802e-02  5.5996187171414739e-02  5.5783684803858063e-02  5.5566279193705229e-02  5.5349680618157322e-02  5.5139643584373309e-02  5.4941789419135960e-02  5.4761424827217721e-02  5.4603334130022441e-02  5.4471460550581004e-02  5.4367128928219779e-02  5.4275737908078540e-02  5.4041348334907473e-02  1.0123464656060666e-01  1.0130657272966113e-01  5.4205749708359688e-02  5.4502261284788057e-02  5.4603002195562342e-02  5.4711551663674168e-02  5.4847601065841987e-02  5.5010236349351573e-02  5.5195389146055727e-02  5.5398073338197802e-02  5.5612780776840134e-02  5.5833709561821862e-02  5.6054960675226501e-02  5.6270724343880835e-02  5.6475446488564417e-02  5.6663970778023182e-02  5.6831653862554440e-02  5.6974454427987500e-02  5.7088998692897769e-02  5.7172626165630666e-02  5.7223419855142565e-02  5.7240224831760930e-02  5.7222658236136439e-02  5.7171112690050700e-02  5.7086753725232024e-02  5.6971510450857882e-02  5.6828057356026959e-02  5.6659784023326852e-02  5.6470748766121237e-02  5.6265611961938120e-02  5.6049545294711692e-02  5.5828114415723794e-02  5.5607134568555691e-02  5.5392502049044091e-02  5.5190005781085322e-02  5.5005129775406468e-02  5.4842813052377690e-02  5.4707012064234645e-02  5.4598171228201653e-02  5.4494611612579374e-02  5.4176078157346548e-02  1.0127629680076773e-01  1.0136389102232032e-01  5.4376030530707262e-02  5.4771344137012505e-02  5.4887297506320799e-02  5.5001891602781627e-02  5.5143300052275308e-02  5.5311685385242899e-02  5.5502956044789616e-02  5.5711922229169139e-02  5.5932845164630242e-02  5.6159706123818390e-02  5.6386423458636772e-02  5.6607051823703985e-02  5.6815954571631432e-02  5.7007944872261997e-02  5.7178393938323462e-02  5.7323308497640980e-02  5.7439382009667583e-02  5.7524025436025236e-02  5.7575383636094976e-02  5.7592342889494740e-02  5.7574533853956958e-02  5.7522332668208123e-02  5.7436861063922387e-02  5.7319984438686994e-02  5.7174305009509152e-02  5.7003145577607890e-02  5.6810518276168266e-02  5.6601072154562705e-02  5.6380013783662315e-02  5.6152996498146812e-02  5.5925976330994269e-02  5.5705036807666836e-02  5.5496186671256047e-02  5.5305140926887826e-02  5.5137034677254261e-02  5.4995815092524922e-02  5.4880730635170932e-02  5.4761419716775547e-02  5.4340156552327400e-02  1.0132739367857459e-01  1.0143202708351615e-01  5.4579077712178452e-02  5.5093995771746583e-02  5.5229708793872956e-02  5.5352694210144042e-02  5.5501507990415602e-02  5.5677776548907473e-02  5.5877409557668865e-02  5.6094957920684016e-02  5.6324382482111031e-02  5.6559381388443061e-02  5.6793633951315967e-02  5.7021015766492822e-02  5.7235777749792806e-02  5.7432685256781163e-02  5.7607117037566075e-02  5.7755128239503122e-02  5.7873484350705516e-02  5.7959674265073056e-02  5.8011910651582101e-02  5.8029124846476793e-02  5.8010961834600007e-02  5.7957778781449532e-02  5.7870648228072703e-02  5.7751364633436719e-02  5.7602450599754960e-02  5.7427157020624009e-02  5.7229449754226905e-02  5.7013974503765198e-02  5.6785991661575060e-02  5.6551274305121621e-02  5.6315965305352780e-02  5.6086394454891164e-02  5.5868858875740772e-02  5.5669375379319180e-02  5.5493328682828719e-02  5.5344621868343755e-02  5.5220895720212278e-02  5.5081285130923183e-02  5.4536361581514460e-02  1.0138876339712252e-01  1.0151191200764759e-01  5.4817995849612361e-02  5.5476117356307010e-02  5.5637445327603209e-02  5.5772085830748289e-02  5.5931157125303492e-02  5.6118257515556873e-02  5.6329337005072401e-02  5.6558614716569360e-02  5.6799658690768674e-02  5.7045796721290849e-02  5.7290395861113258e-02  5.7527096941110752e-02  5.7750000555508788e-02  5.7953802295572066e-02  5.8133879185749991e-02  5.8286334415174390e-02  5.8408010285196127e-02  5.8496480343535454e-02  5.8550031216754797e-02  5.8567643139512841e-02  5.8548975982484250e-02  5.8494364955424830e-02  5.8404827325530685e-02  5.8282078584408113e-02  5.8128553652994977e-02  5.7947426084259457e-02  5.7742616020308953e-02  5.7518776181028977e-02  5.7281244768179397e-02  5.7035955381517400e-02  5.6789296978001495e-02  5.6547922645502874e-02  5.6318508566347229e-02  5.6107467815428962e-02  5.5920505332937999e-02  5.5761429433365484e-02  5.5625737814261868e-02  5.5459999291351876e-02  5.4767752303013707e-02  1.0146131005373575e-01  1.0160450146099652e-01  5.5096065638090795e-02  5.5924221446755552e-02  5.6118758045880263e-02  5.6269604958478978e-02  5.6442926904597797e-02  5.6644955920452149e-02  5.6871741603139160e-02  5.7117076562931773e-02  5.7374013462989447e-02  5.7635395085333246e-02  5.7894181286486948e-02  5.8143706770764206e-02  5.8377873590939496e-02  5.8591279399204887e-02  5.8779286842614555e-02  5.8938045115140933e-02  5.9064477359425716e-02  5.9156248106776915e-02  5.9211723762209220e-02  5.9229936906936349e-02  5.9210562363235700e-02  5.9153909823405279e-02  5.9060934576370870e-02  5.8933264546334983e-02  5.8773238571626925e-02  5.8583947684582582e-02  5.8369268299852416e-02  5.8133873996989723e-02  5.7883211452656610e-02  5.7623426755420842e-02  5.7361231117516842e-02  5.7103701315725862e-02  5.6858012552012623e-02  5.6631100437853660e-02  5.6429083949121210e-02  5.6255605975178299e-02  5.6103331940828470e-02  5.5903947041684492e-02  5.5037585890101708e-02  1.0154598528736088e-01  1.0171073393344472e-01  5.5416629643173065e-02  5.6445325916688424e-02  5.6682967048598640e-02  5.6856383702596991e-02  5.7049574318453311e-02  5.7272253674069629e-02  5.7520656983165518e-02  5.7788027232869153e-02  5.8066740027760778e-02  5.8349003198809479e-02  5.8627246830891697e-02  5.8894408244941771e-02  5.9144129330759326e-02  5.9370873083847323e-02  5.9569969884237649e-02  5.9737609704140361e-02  5.9870798515996519e-02  5.9967296710169801e-02  6.0025555116329510e-02  6.0044661084076259e-02  6.0024303547326519e-02  5.9964762364318087e-02  5.9866923602074795e-02  5.9732318812238692e-02  5.9563182692352251e-02  5.9362519843683924e-02  5.9134167758097905e-02  5.8882840016915315e-02  5.8614131513685545e-02  5.8334467236228996e-02  5.8050978294435777e-02  5.7771295325397161e-02  5.7503250425346500e-02  5.7254469917541448e-02  5.7031611726528417e-02  5.6838059510462717e-02  5.6662775018619563e-02  5.6419998491013416e-02  5.5349208780951106e-02  1.0164375052478432e-01  1.0183148372648865e-01  5.5782955328701388e-02  5.7046818988373035e-02  5.7340505465547642e-02  5.7545415842511924e-02  5.7766423838569128e-02  5.8017790006630286e-02  5.8296054864214478e-02  5.8593753687992974e-02  5.8902374122786774e-02  5.9213294740598194e-02  5.9518258503008764e-02  5.9809688691751621e-02  6.0080887695473609e-02  6.0326135183798202e-02  6.0540703489889353e-02  6.0720812951315831e-02  6.0863550870452726e-02  6.0966775882408314e-02  6.1029025949442671e-02  6.1049443972666873e-02  6.1027730721318306e-02  6.0964130692237661e-02  6.0859452638916983e-02  6.0715122700956414e-02  6.0533264144839290e-02  6.0316793556194355e-02  6.0069518954754056e-02  5.9796221059936754e-02  5.9502695396280954e-02  5.9195731253788811e-02  5.8883004549311321e-02  5.8572867342476673e-02  5.8274014302266787e-02  5.7994984066634496e-02  5.7743139169421386e-02  5.7521487216950502e-02  5.7314215082047919e-02  5.7015367665691589e-02  5.5705920082495655e-02  1.0175553068161189e-01  1.0196751133258335e-01  5.6198086166526183e-02  5.7736318783097207e-02  5.8103025764021050e-02  5.8351997027512002e-02  5.8612146292037405e-02  5.8903561989935918e-02  5.9223248723357838e-02  5.9562835710058160e-02  5.9912652588025563e-02  6.0262999914980048e-02  6.0604732428617220e-02  6.0929609602410957e-02  6.1230490936257521e-02  6.1501407395916710e-02  6.1737536494979303e-02  6.1935111735933003e-02  6.2091296289343983e-02  6.2204047088116145e-02  6.2271990281236117e-02  6.2294323470618078e-02  6.2270755022416462e-02  6.2201486225820724e-02  6.2087238040825880e-02  6.1929320301163382e-02  6.1729737128133046e-02  6.1491317654656923e-02  6.1217855912845030e-02  6.0914238178758469e-02  6.0586530872085105e-02  6.0241998854120508e-02  5.9889023270340368e-02  5.9536891713470499e-02  5.9195425094905822e-02  5.8874360782123547e-02  5.8581982838727363e-02  5.8320790189472872e-02  5.8068934295762938e-02  5.7697454431077960e-02  5.6110811852631851e-02  1.0188216077707869e-01  1.0211941025398721e-01  5.6664696341993982e-02  5.8521580605139650e-02  5.8983672276198690e-02  5.9294512432710708e-02  5.9610076964282430e-02  5.9957739642892548e-02  6.0335168006078035e-02  6.0732846064698615e-02  6.1139608580055196e-02  6.1544363449129093e-02  6.1936819887728631e-02  6.2307879299392174e-02  6.2649822233739119e-02  6.2956343990068719e-02  6.3222478436676166e-02  6.3444450258242496e-02  6.3619492904398917e-02  6.3745663635802891e-02  6.3821679770453082e-02  6.3846793088414996e-02  6.3820713172776447e-02  6.3743585478321721e-02  6.3616025811991730e-02  6.3439209085226406e-02  6.3215005945672642e-02  6.2946155664300438e-02  6.2636457264288833e-02  6.2290953592684925e-02  6.1916076021007710e-02  6.1519712285438108e-02  6.1111156863640860e-02  6.0700905683975084e-02  6.0300239213149635e-02  5.9920453977039122e-02  5.9571030020591734e-02  5.9253826751046609e-02  5.8939579508626480e-02  5.8473706190508290e-02  5.6566590878649348e-02  1.0202432456200473e-01  1.0228753219949556e-01  5.7184955227748954e-02  5.9410548034185044e-02  5.9997733928313000e-02  6.0395926399903217e-02  6.0790567622098342e-02  6.1217814334616975e-02  6.1676226738418494e-02  6.2154871665771654e-02  6.2640680199522888e-02  6.3120770949638916e-02  6.3583375082497590e-02  6.4018282185818953e-02  6.4417018362320888e-02  6.4772837195167743e-02  6.5080578257162625e-02  6.5336445637199272e-02  6.5537753785205530e-02  6.5682679296553817e-02  6.5770047011197166e-02  6.5799169229558821e-02  6.5769749151971146e-02  6.5681854080429994e-02  6.5535959922474255e-02  6.5333065014173894e-02  6.5074867002883272e-02  6.4763990526334497e-02  6.4404245206840419e-02  6.4000883635753750e-02  6.3560819181026462e-02  6.3092755064922040e-02  6.2607173125181187e-02  6.2116133008068626e-02  6.1632794349601616e-02  6.1170445255360244e-02  6.0740087727863594e-02  6.0342852076221240e-02  5.9940733435566045e-02  5.9351563156117462e-02  5.7075372474698766e-02  1.0218247465597455e-01  1.0247182489811485e-01  5.7760354894840910e-02  6.0411688987166916e-02  6.1164101483591415e-02  6.1686697061271854e-02  6.2195379527251557e-02  6.2736338834057312e-02  6.3309253585058331e-02  6.3901478703521281e-02  6.4497546895740845e-02  6.5082278098485283e-02  6.5641992034074531e-02  6.6165047503724636e-02  6.6642019342838851e-02  6.7065631963243791e-02  6.7430527068109758e-02  6.7732937931411580e-02  6.7970333868588750e-02  6.8141084692899090e-02  6.8244179319804435e-02  6.8279018894760485e-02  6.8245294780172716e-02  6.8142955667391855e-02  6.7972264879759187e-02  6.7733946617876267e-02  6.7429416260182784e-02  6.7061082963002699e-02  6.6632701597786045e-02  6.6149736662606137e-02  6.5619684661047978e-02  6.5052288969343411e-02  6.4459577700773873e-02  6.3855646403466193e-02  6.3256064775066276e-02  6.2676636155525114e-02  6.2130271004469044e-02  6.1617366639344251e-02  6.1090219472022658e-02  6.0338562797519896e-02  5.7638375069047752e-02  1.0235669425089043e-01  1.0267138969655067e-01  5.8391267812798402e-02  6.1534794514110605e-02  6.2508386739271310e-02  6.3210663128876909e-02  6.3886305846834149e-02  6.4592002050452194e-02  6.5328653926691904e-02  6.6081544998931346e-02  6.6832162641054613e-02  6.7562351552551567e-02  6.8255988271326090e-02  6.8899689466103337e-02  6.9482988747887983e-02  6.9998168290728066e-02  7.0439871638046922e-02  7.0804609762481652e-02  7.1090252122638156e-02  7.1295568013401547e-02  7.1419856987100266e-02  7.1462686149243851e-02  7.1423739166635802e-02  7.1302776516492417e-02  7.1099706465292109e-02  7.0814767927671898e-02  7.0448825799945533e-02  7.0003772744903908e-02  6.9483016649633425e-02  6.8892010421753053e-02  6.8238751757417393e-02  6.7534155464726200e-02  6.6792176713228318e-02  6.6029556166854103e-02  6.5265047768390372e-02  6.4517711321831400e-02  6.3802746593584828e-02  6.3119905615895699e-02  6.2411855104896448e-02  6.1442660107804276e-02  5.8255310287472273e-02  1.0254639172120834e-01  1.0288323135964947e-01  5.9075659551182588e-02  6.2792496921151283e-02  6.4069590486985462e-02  6.5037492062073113e-02  6.5963110304503331e-02  6.6912333355471504e-02  6.7886869819150528e-02  6.8869232133175265e-02  6.9836874994067058e-02  7.0767818998457521e-02  7.1643088866004720e-02  7.2447655705785638e-02  7.3170514099051551e-02  7.3804243542838099e-02  7.4344299773474967e-02  7.4788225801500699e-02  7.5134914098240205e-02  7.5383994903887516e-02  7.5535379302292607e-02  7.5588955408817410e-02  7.5544422652321391e-02  7.5401249592935565e-02  7.5158749944802317e-02  7.4816283853357798e-02  7.4373601079230037e-02  7.3831342415573389e-02  7.3191700614064853e-02  7.2459206859565334e-02  7.1641558037235570e-02  7.0750339759841671e-02  6.9801437901490640e-02  6.8814889802010615e-02  6.7813773848107523e-02  6.6821435664723455e-02  6.5856041822107039e-02  6.4917685288630067e-02  6.3941518202992043e-02  6.2673086488129984e-02  5.8922843634521084e-02  1.0274947968219840e-01  1.0309931227919432e-01  5.9805815975742083e-02  6.4203157454686965e-02  6.5915543680431551e-02  6.7291203954299258e-02  6.8603973631905776e-02  6.9923707262534968e-02  7.1250683987187480e-02  7.256293905