<?xml version="1.0"?>
<VTKFile type="UnstructuredGrid"  version="0.1"  >
<UnstructuredGrid>
<Piece  NumberOfPoints="1681" NumberOfCells="3200">
<Points>
<DataArray  type="Float64"  NumberOfComponents="3"  format="ascii">0 0 0  0.025 0 0  0.05 0 0  0.075 0 0  0.1 0 0  0.125 0 0  0.15 0 0  0.175 0 0  0.2 0 0  0.225 0 0  0.25 0 0  0.275 0 0  0.3 0 0  0.325 0 0  0.35 0 0  0.375 0 0  0.4 0 0  0.425 0 0  0.45 0 0  0.475 0 0  0.5 0 0  0.525 0 0  0.55 0 0  0.575 0 0  0.6 0 0  0.625 0 0  0.65 0 0  0.675 0 0  0.7 0 0  0.725 0 0  0.75 0 0  0.775 0 0  0.8 0 0  0.825 0 0  0.85 0 0  0.875 0 0  0.9 0 0  0.925 0 0  0.95 0 0  0.975 0 0  1 0 0  0 0.025 0  0.025 0.025 0  0.05 0.025 0  0.075 0.025 0  0.1 0.025 0  0.125 0.025 0  0.15 0.025 0  0.175 0.025 0  0.2 0.025 0  0.225 0.025 0  0.25 0.025 0  0.275 0.025 0  0.3 0.025 0  0.325 0.025 0  0.35 0.025 0  0.375 0.025 0  0.4 0.025 0  0.425 0.025 0  0.45 0.025 0  0.475 0.025 0  0.5 0.025 0  0.525 0.025 0  0.55 0.025 0  0.575 0.025 0  0.6 0.025 0  0.625 0.025 0  0.65 0.025 0  0.675 0.025 0  0.7 0.025 0  0.725 0.025 0  0.75 0.025 0  0.775 0.025 0  0.8 0.025 0  0.825 0.025 0  0.85 0.025 0  0.875 0.025 0  0.9 0.025 0  0.925 0.025 0  0.95 0.025 0  0.975 0.025 0  1 0.025 0  0 0.05 0  0.025 0.05 0  0.05 0.05 0  0.075 0.05 0  0.1 0.05 0  0.125 0.05 0  0.15 0.05 0  0.175 0.05 0  0.2 0.05 0  0.225 0.05 0  0.25 0.05 0  0.275 0.05 0  0.3 0.05 0  0.325 0.05 0  0.35 0.05 0  0.375 0.05 0  0.4 0.05 0  0.425 0.05 0  0.45 0.05 0  0.475 0.05 0  0.5 0.05 0  0.525 0.05 0  0.55 0.05 0  0.575 0.05 0  0.6 0.05 0  0.625 0.05 0  0.65 0.05 0  0.675 0.05 0  0.7 0.05 0  0.725 0.05 0  0.75 0.05 0  0.775 0.05 0  0.8 0.05 0  0.825 0.05 0  0.85 0.05 0  0.875 0.05 0  0.9 0.05 0  0.925 0.05 0  0.95 0.05 0  0.975 0.05 0  1 0.05 0  0 0.075 0  0.025 0.075 0  0.05 0.075 0  0.075 0.075 0  0.1 0.075 0  0.125 0.075 0  0.15 0.075 0  0.175 0.075 0  0.2 0.075 0  0.225 0.075 0  0.25 0.075 0  0.275 0.075 0  0.3 0.075 0  0.325 0.075 0  0.35 0.075 0  0.375 0.075 0  0.4 0.075 0  0.425 0.075 0  0.45 0.075 0  0.475 0.075 0  0.5 0.075 0  0.525 0.075 0  0.55 0.075 0  0.575 0.075 0  0.6 0.075 0  0.625 0.075 0  0.65 0.075 0  0.675 0.075 0  0.7 0.075 0  0.725 0.075 0  0.75 0.075 0  0.775 0.075 0  0.8 0.075 0  0.825 0.075 0  0.85 0.075 0  0.875 0.075 0  0.9 0.075 0  0.925 0.075 0  0.95 0.075 0  0.975 0.075 0  1 0.075 0  0 0.1 0  0.025 0.1 0  0.05 0.1 0  0.075 0.1 0  0.1 0.1 0  0.125 0.1 0  0.15 0.1 0  0.175 0.1 0  0.2 0.1 0  0.225 0.1 0  0.25 0.1 0  0.275 0.1 0  0.3 0.1 0  0.325 0.1 0  0.35 0.1 0  0.375 0.1 0  0.4 0.1 0  0.425 0.1 0  0.45 0.1 0  0.475 0.1 0  0.5 0.1 0  0.525 0.1 0  0.55 0.1 0  0.575 0.1 0  0.6 0.1 0  0.625 0.1 0  0.65 0.1 0  0.675 0.1 0  0.7 0.1 0  0.725 0.1 0  0.75 0.1 0  0.775 0.1 0  0.8 0.1 0  0.825 0.1 0  0.85 0.1 0  0.875 0.1 0  0.9 0.1 0  0.925 0.1 0  0.95 0.1 0  0.975 0.1 0  1 0.1 0  0 0.125 0  0.025 0.125 0  0.05 0.125 0  0.075 0.125 0  0.1 0.125 0  0.125 0.125 0  0.15 0.125 0  0.175 0.125 0  0.2 0.125 0  0.225 0.125 0  0.25 0.125 0  0.275 0.125 0  0.3 0.125 0  0.325 0.125 0  0.35 0.125 0  0.375 0.125 0  0.4 0.125 0  0.425 0.125 0  0.45 0.125 0  0.475 0.125 0  0.5 0.125 0  0.525 0.125 0  0.55 0.125 0  0.575 0.125 0  0.6 0.125 0  0.625 0.125 0  0.65 0.125 0  0.675 0.125 0  0.7 0.125 0  0.725 0.125 0  0.75 0.125 0  0.775 0.125 0  0.8 0.125 0  0.825 0.125 0  0.85 0.125 0  0.875 0.125 0  0.9 0.125 0  0.925 0.125 0  0.95 0.125 0  0.975 0.125 0  1 0.125 0  0 0.15 0  0.025 0.15 0  0.05 0.15 0  0.075 0.15 0  0.1 0.15 0  0.125 0.15 0  0.15 0.15 0  0.175 0.15 0  0.2 0.15 0  0.225 0.15 0  0.25 0.15 0  0.275 0.15 0  0.3 0.15 0  0.325 0.15 0  0.35 0.15 0  0.375 0.15 0  0.4 0.15 0  0.425 0.15 0  0.45 0.15 0  0.475 0.15 0  0.5 0.15 0  0.525 0.15 0  0.55 0.15 0  0.575 0.15 0  0.6 0.15 0  0.625 0.15 0  0.65 0.15 0  0.675 0.15 0  0.7 0.15 0  0.725 0.15 0  0.75 0.15 0  0.775 0.15 0  0.8 0.15 0  0.825 0.15 0  0.85 0.15 0  0.875 0.15 0  0.9 0.15 0  0.925 0.15 0  0.95 0.15 0  0.975 0.15 0  1 0.15 0  0 0.175 0  0.025 0.175 0  0.05 0.175 0  0.075 0.175 0  0.1 0.175 0  0.125 0.175 0  0.15 0.175 0  0.175 0.175 0  0.2 0.175 0  0.225 0.175 0  0.25 0.175 0  0.275 0.175 0  0.3 0.175 0  0.325 0.175 0  0.35 0.175 0  0.375 0.175 0  0.4 0.175 0  0.425 0.175 0  0.45 0.175 0  0.475 0.175 0  0.5 0.175 0  0.525 0.175 0  0.55 0.175 0  0.575 0.175 0  0.6 0.175 0  0.625 0.175 0  0.65 0.175 0  0.675 0.175 0  0.7 0.175 0  0.725 0.175 0  0.75 0.175 0  0.775 0.175 0  0.8 0.175 0  0.825 0.175 0  0.85 0.175 0  0.875 0.175 0  0.9 0.175 0  0.925 0.175 0  0.95 0.175 0  0.975 0.175 0  1 0.175 0  0 0.2 0  0.025 0.2 0  0.05 0.2 0  0.075 0.2 0  0.1 0.2 0  0.125 0.2 0  0.15 0.2 0  0.175 0.2 0  0.2 0.2 0  0.225 0.2 0  0.25 0.2 0  0.275 0.2 0  0.3 0.2 0  0.325 0.2 0  0.35 0.2 0  0.375 0.2 0  0.4 0.2 0  0.425 0.2 0  0.45 0.2 0  0.475 0.2 0  0.5 0.2 0  0.525 0.2 0  0.55 0.2 0  0.575 0.2 0  0.6 0.2 0  0.625 0.2 0  0.65 0.2 0  0.675 0.2 0  0.7 0.2 0  0.725 0.2 0  0.75 0.2 0  0.775 0.2 0  0.8 0.2 0  0.825 0.2 0  0.85 0.2 0  0.875 0.2 0  0.9 0.2 0  0.925 0.2 0  0.95 0.2 0  0.975 0.2 0  1 0.2 0  0 0.225 0  0.025 0.225 0  0.05 0.225 0  0.075 0.225 0  0.1 0.225 0  0.125 0.225 0  0.15 0.225 0  0.175 0.225 0  0.2 0.225 0  0.225 0.225 0  0.25 0.225 0  0.275 0.225 0  0.3 0.225 0  0.325 0.225 0  0.35 0.225 0  0.375 0.225 0  0.4 0.225 0  0.425 0.225 0  0.45 0.225 0  0.475 0.225 0  0.5 0.225 0  0.525 0.225 0  0.55 0.225 0  0.575 0.225 0  0.6 0.225 0  0.625 0.225 0  0.65 0.225 0  0.675 0.225 0  0.7 0.225 0  0.725 0.225 0  0.75 0.225 0  0.775 0.225 0  0.8 0.225 0  0.825 0.225 0  0.85 0.225 0  0.875 0.225 0  0.9 0.225 0  0.925 0.225 0  0.95 0.225 0  0.975 0.225 0  1 0.225 0  0 0.25 0  0.025 0.25 0  0.05 0.25 0  0.075 0.25 0  0.1 0.25 0  0.125 0.25 0  0.15 0.25 0  0.175 0.25 0  0.2 0.25 0  0.225 0.25 0  0.25 0.25 0  0.275 0.25 0  0.3 0.25 0  0.325 0.25 0  0.35 0.25 0  0.375 0.25 0  0.4 0.25 0  0.425 0.25 0  0.45 0.25 0  0.475 0.25 0  0.5 0.25 0  0.525 0.25 0  0.55 0.25 0  0.575 0.25 0  0.6 0.25 0  0.625 0.25 0  0.65 0.25 0  0.675 0.25 0  0.7 0.25 0  0.725 0.25 0  0.75 0.25 0  0.775 0.25 0  0.8 0.25 0  0.825 0.25 0  0.85 0.25 0  0.875 0.25 0  0.9 0.25 0  0.925 0.25 0  0.95 0.25 0  0.975 0.25 0  1 0.25 0  0 0.275 0  0.025 0.275 0  0.05 0.275 0  0.075 0.275 0  0.1 0.275 0  0.125 0.275 0  0.15 0.275 0  0.175 0.275 0  0.2 0.275 0  0.225 0.275 0  0.25 0.275 0  0.275 0.275 0  0.3 0.275 0  0.325 0.275 0  0.35 0.275 0  0.375 0.275 0  0.4 0.275 0  0.425 0.275 0  0.45 0.275 0  0.475 0.275 0  0.5 0.275 0  0.525 0.275 0  0.55 0.275 0  0.575 0.275 0  0.6 0.275 0  0.625 0.275 0  0.65 0.275 0  0.675 0.275 0  0.7 0.275 0  0.725 0.275 0  0.75 0.275 0  0.775 0.275 0  0.8 0.275 0  0.825 0.275 0  0.85 0.275 0  0.875 0.275 0  0.9 0.275 0  0.925 0.275 0  0.95 0.275 0  0.975 0.275 0  1 0.275 0  0 0.3 0  0.025 0.3 0  0.05 0.3 0  0.075 0.3 0  0.1 0.3 0  0.125 0.3 0  0.15 0.3 0  0.175 0.3 0  0.2 0.3 0  0.225 0.3 0  0.25 0.3 0  0.275 0.3 0  0.3 0.3 0  0.325 0.3 0  0.35 0.3 0  0.375 0.3 0  0.4 0.3 0  0.425 0.3 0  0.45 0.3 0  0.475 0.3 0  0.5 0.3 0  0.525 0.3 0  0.55 0.3 0  0.575 0.3 0  0.6 0.3 0  0.625 0.3 0  0.65 0.3 0  0.675 0.3 0  0.7 0.3 0  0.725 0.3 0  0.75 0.3 0  0.775 0.3 0  0.8 0.3 0  0.825 0.3 0  0.85 0.3 0  0.875 0.3 0  0.9 0.3 0  0.925 0.3 0  0.95 0.3 0  0.975 0.3 0  1 0.3 0  0 0.325 0  0.025 0.325 0  0.05 0.325 0  0.075 0.325 0  0.1 0.325 0  0.125 0.325 0  0.15 0.325 0  0.175 0.325 0  0.2 0.325 0  0.225 0.325 0  0.25 0.325 0  0.275 0.325 0  0.3 0.325 0  0.325 0.325 0  0.35 0.325 0  0.375 0.325 0  0.4 0.325 0  0.425 0.325 0  0.45 0.325 0  0.475 0.325 0  0.5 0.325 0  0.525 0.325 0  0.55 0.325 0  0.575 0.325 0  0.6 0.325 0  0.625 0.325 0  0.65 0.325 0  0.675 0.325 0  0.7 0.325 0  0.725 0.325 0  0.75 0.325 0  0.775 0.325 0  0.8 0.325 0  0.825 0.325 0  0.85 0.325 0  0.875 0.325 0  0.9 0.325 0  0.925 0.325 0  0.95 0.325 0  0.975 0.325 0  1 0.325 0  0 0.35 0  0.025 0.35 0  0.05 0.35 0  0.075 0.35 0  0.1 0.35 0  0.125 0.35 0  0.15 0.35 0  0.175 0.35 0  0.2 0.35 0  0.225 0.35 0  0.25 0.35 0  0.275 0.35 0  0.3 0.35 0  0.325 0.35 0  0.35 0.35 0  0.375 0.35 0  0.4 0.35 0  0.425 0.35 0  0.45 0.35 0  0.475 0.35 0  0.5 0.35 0  0.525 0.35 0  0.55 0.35 0  0.575 0.35 0  0.6 0.35 0  0.625 0.35 0  0.65 0.35 0  0.675 0.35 0  0.7 0.35 0  0.725 0.35 0  0.75 0.35 0  0.775 0.35 0  0.8 0.35 0  0.825 0.35 0  0.85 0.35 0  0.875 0.35 0  0.9 0.35 0  0.925 0.35 0  0.95 0.35 0  0.975 0.35 0  1 0.35 0  0 0.375 0  0.025 0.375 0  0.05 0.375 0  0.075 0.375 0  0.1 0.375 0  0.125 0.375 0  0.15 0.375 0  0.175 0.375 0  0.2 0.375 0  0.225 0.375 0  0.25 0.375 0  0.275 0.375 0  0.3 0.375 0  0.325 0.375 0  0.35 0.375 0  0.375 0.375 0  0.4 0.375 0  0.425 0.375 0  0.45 0.375 0  0.475 0.375 0  0.5 0.375 0  0.525 0.375 0  0.55 0.375 0  0.575 0.375 0  0.6 0.375 0  0.625 0.375 0  0.65 0.375 0  0.675 0.375 0  0.7 0.375 0  0.725 0.375 0  0.75 0.375 0  0.775 0.375 0  0.8 0.375 0  0.825 0.375 0  0.85 0.375 0  0.875 0.375 0  0.9 0.375 0  0.925 0.375 0  0.95 0.375 0  0.975 0.375 0  1 0.375 0  0 0.4 0  0.025 0.4 0  0.05 0.4 0  0.075 0.4 0  0.1 0.4 0  0.125 0.4 0  0.15 0.4 0  0.175 0.4 0  0.2 0.4 0  0.225 0.4 0  0.25 0.4 0  0.275 0.4 0  0.3 0.4 0  0.325 0.4 0  0.35 0.4 0  0.375 0.4 0  0.4 0.4 0  0.425 0.4 0  0.45 0.4 0  0.475 0.4 0  0.5 0.4 0  0.525 0.4 0  0.55 0.4 0  0.575 0.4 0  0.6 0.4 0  0.625 0.4 0  0.65 0.4 0  0.675 0.4 0  0.7 0.4 0  0.725 0.4 0  0.75 0.4 0  0.775 0.4 0  0.8 0.4 0  0.825 0.4 0  0.85 0.4 0  0.875 0.4 0  0.9 0.4 0  0.925 0.4 0  0.95 0.4 0  0.975 0.4 0  1 0.4 0  0 0.425 0  0.025 0.425 0  0.05 0.425 0  0.075 0.425 0  0.1 0.425 0  0.125 0.425 0  0.15 0.425 0  0.175 0.425 0  0.2 0.425 0  0.225 0.425 0  0.25 0.425 0  0.275 0.425 0  0.3 0.425 0  0.325 0.425 0  0.35 0.425 0  0.375 0.425 0  0.4 0.425 0  0.425 0.425 0  0.45 0.425 0  0.475 0.425 0  0.5 0.425 0  0.525 0.425 0  0.55 0.425 0  0.575 0.425 0  0.6 0.425 0  0.625 0.425 0  0.65 0.425 0  0.675 0.425 0  0.7 0.425 0  0.725 0.425 0  0.75 0.425 0  0.775 0.425 0  0.8 0.425 0  0.825 0.425 0  0.85 0.425 0  0.875 0.425 0  0.9 0.425 0  0.925 0.425 0  0.95 0.425 0  0.975 0.425 0  1 0.425 0  0 0.45 0  0.02
[...]
<PointData  Scalars="ControlVisualisation"> 
<DataArray  type="Float64"  Name="ControlVisualisation"  format="ascii">1.9914185232555215e-06  1.3242760643604383e-06  1.3242935884678718e-06  1.3245208591891985e-06  1.3253019633371387e-06  1.3267754796059174e-06  1.3286601190800524e-06  1.3305528369832797e-06  1.3322768385027109e-06  1.3337953666530975e-06  1.3350863184715744e-06  1.3361315433403414e-06  1.3369365294776500e-06  1.3375309401024708e-06  1.3379555011231878e-06  1.3382505419401509e-06  1.3384499792901309e-06  1.3385795671670807e-06  1.3386572915010934e-06  1.3386944585008059e-06  1.3386967087582087e-06  1.3386646307070290e-06  1.3385938683840576e-06  1.3384747249801727e-06  1.3382913625429959e-06  1.3380208909972781e-06  1.3376329260956344e-06  1.3370910745393945e-06  1.3363571465342578e-06  1.3354028656533282e-06  1.3342157812705458e-06  1.3328199590941090e-06  1.3312241603856306e-06  1.3294092031189931e-06  1.3274607129432493e-06  1.3257844990928614e-06  1.3247519069219973e-06  1.3243491819868289e-06  1.3242772547354561e-06  1.3242791329390066e-06  3.9928301271599247e-06  1.3242829211612166e-06  6.5714346046618176e-07  6.5717887415560012e-07  6.5743803309437795e-07  6.5827769080169411e-07  6.5993095215075510e-07  6.6201258157801378e-07  6.6412251629344076e-07  6.6610592602700412e-07  6.6790226687233028e-07  6.6945939379278206e-07  6.7073306759202116e-07  6.7172047087562909e-07  6.7245314895026001e-07  6.7297887582954826e-07  6.7334609788623110e-07  6.7359607267320775e-07  6.7376043553918555e-07  6.7386156523112336e-07  6.7391388884861182e-07  6.7392515903555380e-07  6.7389728811443005e-07  6.7382659946073472e-07  6.7370347890417773e-07  6.7351149478413394e-07  6.7322622413943191e-07  6.7281430269863123e-07  6.7223418101486363e-07  6.7143971204820782e-07  6.7039332127340729e-07  6.6907312472862377e-07  6.6751779601987503e-07  6.6571659009937547e-07  6.6378204445711412e-07  6.6159873568961062e-07  6.5950482683457334e-07  6.5803899207099627e-07  6.5734906824631416e-07  6.5715931188078947e-07  6.5713937081023605e-07  1.3242799218222116e-06  1.3244442944807388e-06  6.5725457866909623e-07  6.5741066966933020e-07  6.5804999511525744e-07  6.5970218708096217e-07  6.6265222477128463e-07  6.6538435121013268e-07  6.6856172802229986e-07  6.7204771650201881e-07  6.7565361443921710e-07  6.7891871529808232e-07  6.8162329857571642e-07  6.8372527193990280e-07  6.8529390589162801e-07  6.8643168996146887e-07  6.8723875034838012e-07  6.8779797563640038e-07  6.8817199230934149e-07  6.8840473171497845e-07  6.8852419379101563e-07  6.8854484393230787e-07  6.8846906481913397e-07  6.8828748484235104e-07  6.8797817662677500e-07  6.8750485279205734e-07  6.8681444448573519e-07  6.8583495787762399e-07  6.8447653632734899e-07  6.8263847863341766e-07  6.8024218884163608e-07  6.7726486189599184e-07  6.7393201698745641e-07  6.7047368952487099e-07  6.6788286654688893e-07  6.6497820558133165e-07  6.6161901200664982e-07  6.5911282715555772e-07  6.5782035081708991e-07  6.5736957790752986e-07  6.5721314166019638e-07  1.3243051816621769e-06  1.3261010566333989e-06  6.5830248570702552e-07  6.5881025971966650e-07  6.6373430558102567e-07  6.8072346228892006e-07  7.1738115823247333e-07  7.4857477012026256e-07  7.7226761697449388e-07  8.0944628799303127e-07  8.4825714722164796e-07  8.8579124037584974e-07  9.1840251033022476e-07  9.4518873646285255e-07  9.6621086814551623e-07  9.8218583963563139e-07  9.9400598201988878e-07  1.0025274832998041e-06  1.0084638334499405e-06  1.0123557614312119e-06  1.0145728627261836e-06  1.0153255167350053e-06  1.0146753858955753e-06  1.0125389861564673e-06  1.0086828674546646e-06  1.0027122280058905e-06  9.9405835170140506e-07  9.8197629585916560e-07  9.6558110275071172e-07  9.4394529710486571e-07  9.1640022254268192e-07  8.8281677178800979e-07  8.4516470719111674e-07  8.0562219528143528e-07  7.7268159543246810e-07  7.2643420997689628e-07  6.8427018560481923e-07  6.6583722904704823e-07  6.5976203525810549e-07  6.5870065896658931e-07  6.5806393397117624e-07  1.3246660224435344e-06  1.3370779117076739e-06  6.6976913646350160e-07  7.0523813888953780e-07  7.8783981669791196e-07  1.0106042184159183e-06  1.8925770096419801e-06  7.6446660172617751e-05  7.8293422108651298e-02  1.3703403291881677e-01  1.9090814883884014e-01  2.3204489143924820e-01  2.6351794389512245e-01  2.8674142998168461e-01  3.0367667559541905e-01  3.1587610593921145e-01  3.2456872854101448e-01  3.3067167234902639e-01  3.3484857845645116e-01  3.3755870700824447e-01  3.3910009576951472e-01  3.3963751930618480e-01  3.3921893119436686e-01  3.3778072836004625e-01  3.3514120776224487e-01  3.3098325688971869e-01  3.2482606471809911e-01  3.1598307480354487e-01  3.0351212454732540e-01  2.8615502493379563e-01  2.6229675718382606e-01  2.2995928743516569e-01  1.8736255412598590e-01  1.3223518153858740e-01  6.8603709792259868e-02  2.8570035906331395e-05  1.8711388468829849e-06  1.0581757855877733e-06  7.7169062796516021e-07  6.6870875197381581e-07  6.6437279526960036e-07  1.3276341714576368e-06  1.5006792471499287e-06  7.2562437374370254e-07  1.3947902610246143e-06  1.8454132402931808e-01  5.0247121657776994e-01  7.5525027612689932e-01  9.8248726077712634e-01  9.9999454943727384e-01  9.9999695453983395e-01  9.9999768141892231e-01  9.9999799736961825e-01  9.9999817245154354e-01  9.9999827762627136e-01  9.9999834475510829e-01  9.9999838890523152e-01  9.9999841845285542e-01  9.9999843830063806e-01  9.9999845144901489e-01  9.9999845974207802e-01  9.9999846426842320e-01  9.9999846557397309e-01  9.9999846376414492e-01  9.9999845852705560e-01  9.9999844908469526e-01  9.9999843405907496e-01  9.9999841121314081e-01  9.9999837697346661e-01  9.9999832552170520e-01  9.9999824693879014e-01  9.9999812292904144e-01  9.9999791555703144e-01  9.9999752909371142e-01  9.9999663362321567e-01  9.9999308699855349e-01  9.6449771791790639e-01  7.5003325225419937e-01  4.8430581486876595e-01  1.3835970448139903e-01  1.6321186203329712e-06  7.3960223637841942e-07  1.4045085373854841e-06  1.9864383882336012e-06  1.2548791388569844e-01  9.9997783132282614e-01  9.9999888636320855e-01  9.9999936360411612e-01  9.9999947953939494e-01  9.9999952872936193e-01  9.9999955928425543e-01  9.9999958390767485e-01  9.9999959810170325e-01  9.9999960643682184e-01  9.9999961172197305e-01  9.9999961519328595e-01  9.9999961754409106e-01  9.9999961915486790e-01  9.9999962026537137e-01  9.9999962102977180e-01  9.9999962154970934e-01  9.9999962189106317e-01  9.9999962209413562e-01  9.9999962217969462e-01  9.9999962215225657e-01  9.9999962200117154e-01  9.9999962169971879e-01  9.9999962120213326e-01  9.9999962043808388e-01  9.9999961930335546e-01  9.9999961764369372e-01  9.9999961522432423e-01  9.9999961166667228e-01  9.9999960630667417e-01  9.9999959786762582e-01  9.9999958369679287e-01  9.9999955812801278e-01  9.9999951180461955e-01  9.9999943686833470e-01  9.9999928099010160e-01  9.9999871468677182e-01  9.8515526619232296e-01  4.0136896737737515e-02  1.5255601736788062e-06  9.9999939998392651e-01  9.9999970157348628e-01  9.9999978561952985e-01  9.9999979900520097e-01  9.9999981204095612e-01  9.9999981635095381e-01  9.9999981729699361e-01  9.9999981668902871e-01  9.9999981526711856e-01  9.9999981354425094e-01  9.9999981189912512e-01  9.9999981050998843e-01  9.9999980941295952e-01  9.9999980858415261e-01  9.9999980797371935e-01  9.9999980753384177e-01  9.9999980722408843e-01  9.9999980701366720e-01  9.9999980688037127e-01  9.9999980680925238e-01  9.9999980679145106e-01  9.9999980682348411e-01  9.9999980690705004e-01  9.9999980704939528e-01  9.9999980726427762e-01  9.9999980757354523e-01  9.9999980800919552e-01  9.9999980861536386e-01  9.9999980944864464e-01  9.9999981057312082e-01  9.9999981204339994e-01  9.9999981386660708e-01  9.9999981594378795e-01  9.9999981802152249e-01  9.9999981969798157e-01  9.9999982031083290e-01  9.9999981811126515e-01  9.9999980819948442e-01  9.9999977645405247e-01  9.9999969717525994e-01  9.9999737450446180e-01  9.9999990122879334e-01  9.9999994110896973e-01  9.9999993287835276e-01  9.9999992215468581e-01  9.9999991132376920e-01  9.9999990142181994e-01  9.9999989305017700e-01  9.9999988630354342e-01  9.9999988098722759e-01  9.9999987684815006e-01  9.9999987367224774e-01  9.9999987127404788e-01  9.9999986949249187e-01  9.9999986818773701e-01  9.9999986724407808e-01  9.9999986657056739e-01  9.9999986609814884e-01  9.9999986577647226e-01  9.9999986557025189e-01  9.9999986545632857e-01  9.9999986542150265e-01  9.9999986546125719e-01  9.9999986557936571e-01  9.9999986578839650e-01  9.9999986611115044e-01  9.9999986658308548e-01  9.9999986725574197e-01  9.9999986820103126e-01  9.9999986951592590e-01  9.9999987132663648e-01  9.9999987379096933e-01  9.9999987709829929e-01  9.9999988146930052e-01  9.9999988715647636e-01  9.9999989442563053e-01  9.9999990344899947e-01  9.9999991406445154e-01  9.9999992554489336e-01  9.9999993646547813e-01  9.9999994474097409e-01  9.9999985192031204e-01  9.9999995035583822e-01  9.9999997462707568e-01  9.9999996589133611e-01  9.9999995433693900e-01  9.9999994201123743e-01  9.9999993039951041e-01  9.9999992041127972e-01  9.9999991232994612e-01  9.9999990604160915e-01  9.9999990125933802e-01  9.9999989767459252e-01  9.9999989501679376e-01  9.9999989306558124e-01  9.9999989164624148e-01  9.9999989062354067e-01  9.9999988989474842e-01  9.9999988938363216e-01  9.9999988903516290e-01  9.9999988881104451e-01  9.9999988868628920e-01  9.9999988864678813e-01  9.9999988868789125e-01  9.9999988881395163e-01  9.9999988903883530e-01  9.9999988938742290e-01  9.9999988989816335e-01  9.9999989062674421e-01  9.9999989165089820e-01  9.9999989307633796e-01  9.9999989504366460e-01  9.9999989773593234e-01  9.9999990138577954e-01  9.9999990627744395e-01  9.9999991272858291e-01  9.9999992102098822e-01  9.9999993123823161e-01  9.9999994303514228e-01  9.9999995544847875e-01  9.9999996687915005e-01  9.9999997525945472e-01  9.9999994202637954e-01  9.9999995744970349e-01  9.9999998080581509e-01  9.9999997296636700e-01  9.9999996206796216e-01  9.9999994992021746e-01  9.9999993816853605e-01  9.9999992788372261e-01  9.9999991948467126e-01  9.9999991293439916e-01  9.9999990796700444e-01  9.9999990426250818e-01  9.9999990152984175e-01  9.9999989953110757e-01  9.9999989808050982e-01  9.9999989703626257e-01  9.9999989629200736e-01  9.9999989576952841e-01  9.9999989541266909e-01  9.9999989518252586e-01  9.9999989505381637e-01  9.9999989501235298e-01  9.9999989505356446e-01  9.9999989518200882e-01  9.9999989541186052e-01  9.9999989576838810e-01  9.9999989629048092e-01  9.9999989703428405e-01  9.9999989807801071e-01  9.9999989952804047e-01  9.9999990152623086e-01  9.9999990425852558e-01  9.9999990796304905e-01  9.9999991293111534e-01  9.9999991948280720e-01  9.9999992788376624e-01  9.9999993817036292e-01  9.9999994992296171e-01  9.9999996207032349e-01  9.9999997296746967e-01  9.9999998080591224e-01  9.9999995744949788e-01  9.9999994202907183e-01  9.9999997526358075e-01  9.9999996688665982e-01  9.9999995545235243e-01  9.9999994302487216e-01  9.9999993120493491e-01  9.9999992096007817e-01  9.9999991263948285e-01  9.9999990616189260e-01  9.9999990124604055e-01  9.9999989757379304e-01  9.9999989486035301e-01  9.9999989287288538e-01  9.9999989142849888e-01  9.9999989038694637e-01  9.9999988964291597e-01  9.9999988911903492e-01  9.9999988875990087e-01  9.9999988852727051e-01  9.9999988839639509e-01  9.9999988835347753e-01  9.9999988839417864e-01  9.9999988852311061e-01  9.9999988875428780e-01  9.9999988911254023e-01  9.9999988963593067e-01  9.9999989037917636e-01  9.9999989141813395e-01  9.9999989285515412e-01  9.9999989482522622e-01  9.9999989750315244e-01  9.9999990110996728e-01  9.9999990591740107e-01  9.9999991223486806e-01  9.9999992034843999e-01  9.9999993036874246e-01  9.9999994200663322e-01  9.9999995434674527e-01  9.9999996590197426e-01  9.9999997463140966e-01  9.9999995035698530e-01  9.9999985194936358e-01  9.9999994477131204e-01  9.9999993651316699e-01  9.9999992557460549e-01  9.9999991404322452e-01  9.9999990335693123e-01  9.9999989425563629e-01  9.9999988691061159e-01  9.9999988115398863e-01  9.9999987671992041e-01  9.9999987335392471e-01  9.9999987083378505e-01  9.9999986896980908e-01  9.9999986760479254e-01  9.9999986661353846e-01  9.9999986590013890e-01  9.9999986539361607e-01  9.9999986504316352e-01  9.9999986481385417e-01  9.9999986468323476e-01  9.9999986463892909e-01  9.9999986467721946e-01  9.9999986480255065e-01  9.9999986502791449e-01  9.9999986537610430e-01  9.9999986588185197e-01  9.9999986659473972e-01  9.9999986758284376e-01  9.9999986893599313e-01  9.9999987076885344e-01  9.9999987322074935e-01  9.9999987645348387e-01  9.9999988065477152e-01  9.9999988604193701e-01  9.9999989286855206e-01  9.9999990132520811e-01  9.9999991130638022e-01  9.9999992219659373e-01  9.9999993293803013e-01  9.9999994114360702e-01  9.9999990123921656e-01  9.9999737860832161e-01  9.9999969765361307e-01  9.9999977693074260e-01  9.9999980846908154e-01  9.9999981809036032e-01  9.9999982003883059e-01  9.9999981920675862e-01  9.9999981733905186e-01  9.9999981509224756e-01  9.9999981285923889e-01  9.9999981088639200e-01  9.9999980927056897e-01  9.9999980800603328e-01  9.9999980704097713e-01  9.9999980631434349e-01  9.9999980577228142e-01  9.9999980537292432e-01  9.9999980508602648e-01  9.9999980489100926e-01  9.9999980477495920e-01  9.9999980473111016e-01  9.9999980475792305e-01  9.9999980485873796e-01  9.9999980504195285e-01  9.9999980532168775e-01  9.9999980571888647e-01  9.9999980626255847e-01  9.9999980699077162e-01  9.9999980794836607e-01  9.9999980918178888e-01  9.9999981071161503e-01  9.9999981249999015e-01  9.9999981437090779e-01  9.9999981595669618e-01  9.9999981675453831e-01  9.9999981603475419e-01  9.9999981198916887e-01  9.9999979928624660e-01  9.9999978605875262e-01  9.9999970232471380e-01  9.9999940049033409e-01  1.5204870541095031e-06  4.5973734902026546e-02  9.9126811193317332e-01  9.9999872061586614e-01  9.9999928166038610e-01  9.9999943585206208e-01  9.9999950956654160e-01  9.9999955494842152e-01  9.9999958000243439e-01  9.9999959364665025e-01  9.9999960154169054e-01  9.9999960635644025e-01  9.9999960938582166e-01  9.9999961130843240e-01  9.9999961251458158e-01  9.9999961324882891e-01  9.9999961367347756e-01  9.9999961389916514e-01  9.9999961400109827e-01  9.9999961402845194e-01  9.9999961400998560e-01  9.9999961395710379e-01  9.9999961386479819e-01  9.9999961371053414e-01  9.9999961345086630e-01  9.9999961301526030e-01  9.9999961229575729e-01  9.9999961113001534e-01  9.9999960926773113e-01  9.9999960631528573e-01  9.9999960156108214e-01  9.9999959374568159e-01  9.9999958002984868e-01  9.9999955621133918e-01  9.9999952642809531e-01  9.9999947777057563e-01  9.9999936238126408e-01  9.9999889314776969e-01  9.9998171901790422e-01  1.3062998110605506e-01  1.9940591952375402e-06  1.3849133692782338e-06  7.3898041983891313e-07  1.7613699254188572e-06  1.4545989181290345e-01  4.8689546915923448e-01  7.4955702843833161e-01  9.6041746538964434e-01  9.9999264525507048e-01  9.9999648155939191e-01  9.9999742400059910e-01  9.9999782400553805e-01  9.9999803544658961e-01  9.9999815979790108e-01  9.9999823694304668e-01  9.9999828612084296e-01  9.9999831778381842e-01  9.9999833809720451e-01  9.9999835087897060e-01  9.9999835853878116e-01  9.9999836257152819e-01  9.9999836382618512e-01  9.9999836264421826e-01  9.9999835890979905e-01  9.9999835202434140e-01  9.9999834079758065e-01  9.9999832322508375e-01  9.9999829607599922e-01  9.9999825411155108e-01  9.9999818842206645e-01  9.9999808306555038e-01  9.9999790418972290e-01  9.9999757627736441e-01  9.9999680631613752e-01  9.9999421268561028e-01  9.7768105825939311e-01  7.5406721901826779e-01  5.0387725606883405e-01  1.9162416512917832e-01  1.4724764450268419e-06  7.2509524594361711e-07  1.4831121801383158e-06  1.3250923239537867e-06  6.6464246921948165e-07  6.8587135872125813e-07  8.0668850303565231e-07  1.1099550450773687e-06  1.9948363384945675e-06  4.8799115228290395e-05  6.8347483999484149e-02  1.2873342601625407e-01  1.8090601206081705e-01  2.2055911722124472e-01  2.5042814046450879e-01  2.7215854097464287e-01  2.8763544458080326e-01  2.9847287588392263e-01  3.0595193314529967e-01  3.1100542164564016e-01  3.1430882317751252e-01  3.1633853558616670e-01  3.1740814870988204e-01  3.1769429712345210e-01  3.1725682581607895e-01  3.1604996219288933e-01  3.1391459460790544e-01  3.1055585923733875e-01  3.0551684712074817e-01  2.9814493111168849e-01  2.8753704519086676e-01  2.7245002895406323e-01  2.5133277046583258e-01  2.2228420799174864e-01  1.8395979535003334e-01  1.3313135782340796e-01  7.7533320613059953e-02  9.4803359432129425e-04  2.0177784157119131e-06  1.0521101643387440e-06  8.1197491589512417e-07  7.2204442211554083e-07  6.7065484811069026e-07  1.3280265585265877e-06  1.3272551527889715e-06  6.6127873073617269e-07  6.6883739523231940e-07  6.7758343245440291e-07  6.8864617712432799e-07  7.0999339280104259e-07  7.4904512623169353e-07  7.8831483003280966e-07  8.1475040434841186e-07  8.4860399915563745e-07  8.8020712884241014e-07  9.0806303355492091e-07  9.3033433665432782e-07  9.4733886427254573e-07  9.5980518294197820e-07  9.6866891438659117e-07  9.7478143455847144e-07  9.7884002785203710e-07  9.8136868653112053e-07  9.8272601850297395e-07  9.8312184911735865e-07  9.8263104978209919e-07  9.8119897626212124e-07  9.7863778509059779e-07  9.7461411647318195e-07  9.6863218860044324e-07  9.6002311347367311e-07  9.4796028133198449e-07  9.3153602224602486e-07  9.0993037805215186e-07  8.8286412025634660e-07  8.5086205945502175e-07  8.1727510679416084e-07  7.8468991024428749e-07  7.6848638136118869e-07  7.4492866034724915e-07  7.0774568533308643e-07  6.8462090846186082e-07  6.7090415383379280e-07  6.6235688787515920e-07  1.3258138250329622e-06  1.3293607251712663e-06  6.6321531712725287e-07  6.6717349078506562e-07  6.7149373443135807e-07  6.7558334809866281e-07  6.7851468805893609e-07  6.7928955238466721e-07  6.7849823192010254e-07  6.7885757460463935e-07  6.8047501078284825e-07  6.8185200859376423e-07  6.8291185534506108e-07  6.8358167389412651e-07  6.8396890118240207e-07  6.8415857529810046e-07  6.8422522669494953e-07  6.8422259975112857e-07  6.8418893300788125e-07  6.8415038763798561e-07  6.8412412818884166e-07  6.8412059052506205e-07  6.8414495034613445e-07  6.8419778597013242e-07  6.8427500435339519e-07  6.8436697037602672e-07  6.8445676987384213e-07  6.8451751215660026e-07  6.8450869502138828e-07  6.8437192677727373e-07  6.8402886385514405e-07  6.8338541795508569e-07  6.8237559840336039e-07  6.8101622455805686e-07  6.7972727969158651e-07  6.7887241675620091e-07  6.7907452706909016e-07  6.7687875658755938e-07  6.7277400823606288e-07  6.6818973495420151e-07  6.6373854648326433e-07  1.3285531437346366e-06  1.3302288271220888e-06  6.6409383073973905e-07  6.6649474764940502e-07  6.6868147962292444e-07  6.7081711466788721e-07  6.7237484334194140e-07  6.7310126709766703e-07  6.7321404741573086e-07  6.7321702880685511e-07  6.7325648324346997e-07  6.7317446097062889e-07  6.7303625400744326e-07  6.7283308387177127e-07  6.7260278658143356e-07  6.7237073506411579e-07  6.7215722892429194e-07  6.7197418204808482e-07  6.7182825365474394e-07  6.7172275113391391e-07  6.7165918593827833e-07  6.7163823083920650e-07  6.7166025865668347e-07  6.7172554701630442e-07  6.7183419193684937e-07  6.7198570030847626e-07  6.7217817501392451e-07  6.7240695050306231e-07  6.7266252059382147e-07  6.7292782844576929e-07  6.7317571408694990e-07  6.7337007833542967e-07  6.7347501818247419e-07  6.7348524855799783e-07  6.7343133501540249e-07  6.7333884792480346e-07  6.7291265211820937e-07  6.7158718765701969e-07  6.6949849500513360e-07  6.6719790507505386e-07  6.6445990097583507e-07  1.3301177359485323e-06  1.3301959820369864e-06  6.6405961846227117e-07  6.6577677438017271e-07  6.6691561424831429e-07  6.6806814683462717e-07  6.6902444346698696e-07  6.6965530649578733e-07  6.6998457273600322e-07  6.701411455