<?xml version="1.0"?>
<VTKFile type="UnstructuredGrid"  version="0.1"  >
<UnstructuredGrid>
<Piece  NumberOfPoints="1681" NumberOfCells="3200">
<Points>
<DataArray  type="Float64"  NumberOfComponents="3"  format="ascii">0 0 0  0.025 0 0  0.05 0 0  0.075 0 0  0.1 0 0  0.125 0 0  0.15 0 0  0.175 0 0  0.2 0 0  0.225 0 0  0.25 0 0  0.275 0 0  0.3 0 0  0.325 0 0  0.35 0 0  0.375 0 0  0.4 0 0  0.425 0 0  0.45 0 0  0.475 0 0  0.5 0 0  0.525 0 0  0.55 0 0  0.575 0 0  0.6 0 0  0.625 0 0  0.65 0 0  0.675 0 0  0.7 0 0  0.725 0 0  0.75 0 0  0.775 0 0  0.8 0 0  0.825 0 0  0.85 0 0  0.875 0 0  0.9 0 0  0.925 0 0  0.95 0 0  0.975 0 0  1 0 0  0 0.025 0  0.025 0.025 0  0.05 0.025 0  0.075 0.025 0  0.1 0.025 0  0.125 0.025 0  0.15 0.025 0  0.175 0.025 0  0.2 0.025 0  0.225 0.025 0  0.25 0.025 0  0.275 0.025 0  0.3 0.025 0  0.325 0.025 0  0.35 0.025 0  0.375 0.025 0  0.4 0.025 0  0.425 0.025 0  0.45 0.025 0  0.475 0.025 0  0.5 0.025 0  0.525 0.025 0  0.55 0.025 0  0.575 0.025 0  0.6 0.025 0  0.625 0.025 0  0.65 0.025 0  0.675 0.025 0  0.7 0.025 0  0.725 0.025 0  0.75 0.025 0  0.775 0.025 0  0.8 0.025 0  0.825 0.025 0  0.85 0.025 0  0.875 0.025 0  0.9 0.025 0  0.925 0.025 0  0.95 0.025 0  0.975 0.025 0  1 0.025 0  0 0.05 0  0.025 0.05 0  0.05 0.05 0  0.075 0.05 0  0.1 0.05 0  0.125 0.05 0  0.15 0.05 0  0.175 0.05 0  0.2 0.05 0  0.225 0.05 0  0.25 0.05 0  0.275 0.05 0  0.3 0.05 0  0.325 0.05 0  0.35 0.05 0  0.375 0.05 0  0.4 0.05 0  0.425 0.05 0  0.45 0.05 0  0.475 0.05 0  0.5 0.05 0  0.525 0.05 0  0.55 0.05 0  0.575 0.05 0  0.6 0.05 0  0.625 0.05 0  0.65 0.05 0  0.675 0.05 0  0.7 0.05 0  0.725 0.05 0  0.75 0.05 0  0.775 0.05 0  0.8 0.05 0  0.825 0.05 0  0.85 0.05 0  0.875 0.05 0  0.9 0.05 0  0.925 0.05 0  0.95 0.05 0  0.975 0.05 0  1 0.05 0  0 0.075 0  0.025 0.075 0  0.05 0.075 0  0.075 0.075 0  0.1 0.075 0  0.125 0.075 0  0.15 0.075 0  0.175 0.075 0  0.2 0.075 0  0.225 0.075 0  0.25 0.075 0  0.275 0.075 0  0.3 0.075 0  0.325 0.075 0  0.35 0.075 0  0.375 0.075 0  0.4 0.075 0  0.425 0.075 0  0.45 0.075 0  0.475 0.075 0  0.5 0.075 0  0.525 0.075 0  0.55 0.075 0  0.575 0.075 0  0.6 0.075 0  0.625 0.075 0  0.65 0.075 0  0.675 0.075 0  0.7 0.075 0  0.725 0.075 0  0.75 0.075 0  0.775 0.075 0  0.8 0.075 0  0.825 0.075 0  0.85 0.075 0  0.875 0.075 0  0.9 0.075 0  0.925 0.075 0  0.95 0.075 0  0.975 0.075 0  1 0.075 0  0 0.1 0  0.025 0.1 0  0.05 0.1 0  0.075 0.1 0  0.1 0.1 0  0.125 0.1 0  0.15 0.1 0  0.175 0.1 0  0.2 0.1 0  0.225 0.1 0  0.25 0.1 0  0.275 0.1 0  0.3 0.1 0  0.325 0.1 0  0.35 0.1 0  0.375 0.1 0  0.4 0.1 0  0.425 0.1 0  0.45 0.1 0  0.475 0.1 0  0.5 0.1 0  0.525 0.1 0  0.55 0.1 0  0.575 0.1 0  0.6 0.1 0  0.625 0.1 0  0.65 0.1 0  0.675 0.1 0  0.7 0.1 0  0.725 0.1 0  0.75 0.1 0  0.775 0.1 0  0.8 0.1 0  0.825 0.1 0  0.85 0.1 0  0.875 0.1 0  0.9 0.1 0  0.925 0.1 0  0.95 0.1 0  0.975 0.1 0  1 0.1 0  0 0.125 0  0.025 0.125 0  0.05 0.125 0  0.075 0.125 0  0.1 0.125 0  0.125 0.125 0  0.15 0.125 0  0.175 0.125 0  0.2 0.125 0  0.225 0.125 0  0.25 0.125 0  0.275 0.125 0  0.3 0.125 0  0.325 0.125 0  0.35 0.125 0  0.375 0.125 0  0.4 0.125 0  0.425 0.125 0  0.45 0.125 0  0.475 0.125 0  0.5 0.125 0  0.525 0.125 0  0.55 0.125 0  0.575 0.125 0  0.6 0.125 0  0.625 0.125 0  0.65 0.125 0  0.675 0.125 0  0.7 0.125 0  0.725 0.125 0  0.75 0.125 0  0.775 0.125 0  0.8 0.125 0  0.825 0.125 0  0.85 0.125 0  0.875 0.125 0  0.9 0.125 0  0.925 0.125 0  0.95 0.125 0  0.975 0.125 0  1 0.125 0  0 0.15 0  0.025 0.15 0  0.05 0.15 0  0.075 0.15 0  0.1 0.15 0  0.125 0.15 0  0.15 0.15 0  0.175 0.15 0  0.2 0.15 0  0.225 0.15 0  0.25 0.15 0  0.275 0.15 0  0.3 0.15 0  0.325 0.15 0  0.35 0.15 0  0.375 0.15 0  0.4 0.15 0  0.425 0.15 0  0.45 0.15 0  0.475 0.15 0  0.5 0.15 0  0.525 0.15 0  0.55 0.15 0  0.575 0.15 0  0.6 0.15 0  0.625 0.15 0  0.65 0.15 0  0.675 0.15 0  0.7 0.15 0  0.725 0.15 0  0.75 0.15 0  0.775 0.15 0  0.8 0.15 0  0.825 0.15 0  0.85 0.15 0  0.875 0.15 0  0.9 0.15 0  0.925 0.15 0  0.95 0.15 0  0.975 0.15 0  1 0.15 0  0 0.175 0  0.025 0.175 0  0.05 0.175 0  0.075 0.175 0  0.1 0.175 0  0.125 0.175 0  0.15 0.175 0  0.175 0.175 0  0.2 0.175 0  0.225 0.175 0  0.25 0.175 0  0.275 0.175 0  0.3 0.175 0  0.325 0.175 0  0.35 0.175 0  0.375 0.175 0  0.4 0.175 0  0.425 0.175 0  0.45 0.175 0  0.475 0.175 0  0.5 0.175 0  0.525 0.175 0  0.55 0.175 0  0.575 0.175 0  0.6 0.175 0  0.625 0.175 0  0.65 0.175 0  0.675 0.175 0  0.7 0.175 0  0.725 0.175 0  0.75 0.175 0  0.775 0.175 0  0.8 0.175 0  0.825 0.175 0  0.85 0.175 0  0.875 0.175 0  0.9 0.175 0  0.925 0.175 0  0.95 0.175 0  0.975 0.175 0  1 0.175 0  0 0.2 0  0.025 0.2 0  0.05 0.2 0  0.075 0.2 0  0.1 0.2 0  0.125 0.2 0  0.15 0.2 0  0.175 0.2 0  0.2 0.2 0  0.225 0.2 0  0.25 0.2 0  0.275 0.2 0  0.3 0.2 0  0.325 0.2 0  0.35 0.2 0  0.375 0.2 0  0.4 0.2 0  0.425 0.2 0  0.45 0.2 0  0.475 0.2 0  0.5 0.2 0  0.525 0.2 0  0.55 0.2 0  0.575 0.2 0  0.6 0.2 0  0.625 0.2 0  0.65 0.2 0  0.675 0.2 0  0.7 0.2 0  0.725 0.2 0  0.75 0.2 0  0.775 0.2 0  0.8 0.2 0  0.825 0.2 0  0.85 0.2 0  0.875 0.2 0  0.9 0.2 0  0.925 0.2 0  0.95 0.2 0  0.975 0.2 0  1 0.2 0  0 0.225 0  0.025 0.225 0  0.05 0.225 0  0.075 0.225 0  0.1 0.225 0  0.125 0.225 0  0.15 0.225 0  0.175 0.225 0  0.2 0.225 0  0.225 0.225 0  0.25 0.225 0  0.275 0.225 0  0.3 0.225 0  0.325 0.225 0  0.35 0.225 0  0.375 0.225 0  0.4 0.225 0  0.425 0.225 0  0.45 0.225 0  0.475 0.225 0  0.5 0.225 0  0.525 0.225 0  0.55 0.225 0  0.575 0.225 0  0.6 0.225 0  0.625 0.225 0  0.65 0.225 0  0.675 0.225 0  0.7 0.225 0  0.725 0.225 0  0.75 0.225 0  0.775 0.225 0  0.8 0.225 0  0.825 0.225 0  0.85 0.225 0  0.875 0.225 0  0.9 0.225 0  0.925 0.225 0  0.95 0.225 0  0.975 0.225 0  1 0.225 0  0 0.25 0  0.025 0.25 0  0.05 0.25 0  0.075 0.25 0  0.1 0.25 0  0.125 0.25 0  0.15 0.25 0  0.175 0.25 0  0.2 0.25 0  0.225 0.25 0  0.25 0.25 0  0.275 0.25 0  0.3 0.25 0  0.325 0.25 0  0.35 0.25 0  0.375 0.25 0  0.4 0.25 0  0.425 0.25 0  0.45 0.25 0  0.475 0.25 0  0.5 0.25 0  0.525 0.25 0  0.55 0.25 0  0.575 0.25 0  0.6 0.25 0  0.625 0.25 0  0.65 0.25 0  0.675 0.25 0  0.7 0.25 0  0.725 0.25 0  0.75 0.25 0  0.775 0.25 0  0.8 0.25 0  0.825 0.25 0  0.85 0.25 0  0.875 0.25 0  0.9 0.25 0  0.925 0.25 0  0.95 0.25 0  0.975 0.25 0  1 0.25 0  0 0.275 0  0.025 0.275 0  0.05 0.275 0  0.075 0.275 0  0.1 0.275 0  0.125 0.275 0  0.15 0.275 0  0.175 0.275 0  0.2 0.275 0  0.225 0.275 0  0.25 0.275 0  0.275 0.275 0  0.3 0.275 0  0.325 0.275 0  0.35 0.275 0  0.375 0.275 0  0.4 0.275 0  0.425 0.275 0  0.45 0.275 0  0.475 0.275 0  0.5 0.275 0  0.525 0.275 0  0.55 0.275 0  0.575 0.275 0  0.6 0.275 0  0.625 0.275 0  0.65 0.275 0  0.675 0.275 0  0.7 0.275 0  0.725 0.275 0  0.75 0.275 0  0.775 0.275 0  0.8 0.275 0  0.825 0.275 0  0.85 0.275 0  0.875 0.275 0  0.9 0.275 0  0.925 0.275 0  0.95 0.275 0  0.975 0.275 0  1 0.275 0  0 0.3 0  0.025 0.3 0  0.05 0.3 0  0.075 0.3 0  0.1 0.3 0  0.125 0.3 0  0.15 0.3 0  0.175 0.3 0  0.2 0.3 0  0.225 0.3 0  0.25 0.3 0  0.275 0.3 0  0.3 0.3 0  0.325 0.3 0  0.35 0.3 0  0.375 0.3 0  0.4 0.3 0  0.425 0.3 0  0.45 0.3 0  0.475 0.3 0  0.5 0.3 0  0.525 0.3 0  0.55 0.3 0  0.575 0.3 0  0.6 0.3 0  0.625 0.3 0  0.65 0.3 0  0.675 0.3 0  0.7 0.3 0  0.725 0.3 0  0.75 0.3 0  0.775 0.3 0  0.8 0.3 0  0.825 0.3 0  0.85 0.3 0  0.875 0.3 0  0.9 0.3 0  0.925 0.3 0  0.95 0.3 0  0.975 0.3 0  1 0.3 0  0 0.325 0  0.025 0.325 0  0.05 0.325 0  0.075 0.325 0  0.1 0.325 0  0.125 0.325 0  0.15 0.325 0  0.175 0.325 0  0.2 0.325 0  0.225 0.325 0  0.25 0.325 0  0.275 0.325 0  0.3 0.325 0  0.325 0.325 0  0.35 0.325 0  0.375 0.325 0  0.4 0.325 0  0.425 0.325 0  0.45 0.325 0  0.475 0.325 0  0.5 0.325 0  0.525 0.325 0  0.55 0.325 0  0.575 0.325 0  0.6 0.325 0  0.625 0.325 0  0.65 0.325 0  0.675 0.325 0  0.7 0.325 0  0.725 0.325 0  0.75 0.325 0  0.775 0.325 0  0.8 0.325 0  0.825 0.325 0  0.85 0.325 0  0.875 0.325 0  0.9 0.325 0  0.925 0.325 0  0.95 0.325 0  0.975 0.325 0  1 0.325 0  0 0.35 0  0.025 0.35 0  0.05 0.35 0  0.075 0.35 0  0.1 0.35 0  0.125 0.35 0  0.15 0.35 0  0.175 0.35 0  0.2 0.35 0  0.225 0.35 0  0.25 0.35 0  0.275 0.35 0  0.3 0.35 0  0.325 0.35 0  0.35 0.35 0  0.375 0.35 0  0.4 0.35 0  0.425 0.35 0  0.45 0.35 0  0.475 0.35 0  0.5 0.35 0  0.525 0.35 0  0.55 0.35 0  0.575 0.35 0  0.6 0.35 0  0.625 0.35 0  0.65 0.35 0  0.675 0.35 0  0.7 0.35 0  0.725 0.35 0  0.75 0.35 0  0.775 0.35 0  0.8 0.35 0  0.825 0.35 0  0.85 0.35 0  0.875 0.35 0  0.9 0.35 0  0.925 0.35 0  0.95 0.35 0  0.975 0.35 0  1 0.35 0  0 0.375 0  0.025 0.375 0  0.05 0.375 0  0.075 0.375 0  0.1 0.375 0  0.125 0.375 0  0.15 0.375 0  0.175 0.375 0  0.2 0.375 0  0.225 0.375 0  0.25 0.375 0  0.275 0.375 0  0.3 0.375 0  0.325 0.375 0  0.35 0.375 0  0.375 0.375 0  0.4 0.375 0  0.425 0.375 0  0.45 0.375 0  0.475 0.375 0  0.5 0.375 0  0.525 0.375 0  0.55 0.375 0  0.575 0.375 0  0.6 0.375 0  0.625 0.375 0  0.65 0.375 0  0.675 0.375 0  0.7 0.375 0  0.725 0.375 0  0.75 0.375 0  0.775 0.375 0  0.8 0.375 0  0.825 0.375 0  0.85 0.375 0  0.875 0.375 0  0.9 0.375 0  0.925 0.375 0  0.95 0.375 0  0.975 0.375 0  1 0.375 0  0 0.4 0  0.025 0.4 0  0.05 0.4 0  0.075 0.4 0  0.1 0.4 0  0.125 0.4 0  0.15 0.4 0  0.175 0.4 0  0.2 0.4 0  0.225 0.4 0  0.25 0.4 0  0.275 0.4 0  0.3 0.4 0  0.325 0.4 0  0.35 0.4 0  0.375 0.4 0  0.4 0.4 0  0.425 0.4 0  0.45 0.4 0  0.475 0.4 0  0.5 0.4 0  0.525 0.4 0  0.55 0.4 0  0.575 0.4 0  0.6 0.4 0  0.625 0.4 0  0.65 0.4 0  0.675 0.4 0  0.7 0.4 0  0.725 0.4 0  0.75 0.4 0  0.775 0.4 0  0.8 0.4 0  0.825 0.4 0  0.85 0.4 0  0.875 0.4 0  0.9 0.4 0  0.925 0.4 0  0.95 0.4 0  0.975 0.4 0  1 0.4 0  0 0.425 0  0.025 0.425 0  0.05 0.425 0  0.075 0.425 0  0.1 0.425 0  0.125 0.425 0  0.15 0.425 0  0.175 0.425 0  0.2 0.425 0  0.225 0.425 0  0.25 0.425 0  0.275 0.425 0  0.3 0.425 0  0.325 0.425 0  0.35 0.425 0  0.375 0.425 0  0.4 0.425 0  0.425 0.425 0  0.45 0.425 0  0.475 0.425 0  0.5 0.425 0  0.525 0.425 0  0.55 0.425 0  0.575 0.425 0  0.6 0.425 0  0.625 0.425 0  0.65 0.425 0  0.675 0.425 0  0.7 0.425 0  0.725 0.425 0  0.75 0.425 0  0.775 0.425 0  0.8 0.425 0  0.825 0.425 0  0.85 0.425 0  0.875 0.425 0  0.9 0.425 0  0.925 0.425 0  0.95 0.425 0  0.975 0.425 0  1 0.425 0  0 0.45 0  0.02
[...]
<PointData  Scalars="ControlVisualisation"> 
<DataArray  type="Float64"  Name="ControlVisualisation"  format="ascii">2.2134295789256310e-06  1.4725203834453314e-06  1.4733433644036636e-06  1.4749899606244931e-06  1.4775087182263972e-06  1.4806239394122316e-06  1.4838522662121874e-06  1.4867893299441044e-06  1.4892596271116646e-06  1.4912735483083568e-06  1.4929091032442356e-06  1.4942433346707420e-06  1.4953178381263108e-06  1.4961766073095047e-06  1.4968521906084443e-06  1.4973652368362296e-06  1.4977422280008110e-06  1.4980107242199074e-06  1.4981855503581512e-06  1.4982753844173249e-06  1.4982863395967453e-06  1.4982259639992403e-06  1.4980849234333248e-06  1.4978537906439375e-06  1.4975146923121056e-06  1.4970564996511255e-06  1.4964437249600043e-06  1.4956522858335797e-06  1.4946563511817269e-06  1.4934166944042922e-06  1.4918909530483683e-06  1.4900211749800132e-06  1.4877408256518422e-06  1.4849989485016684e-06  1.4818757656409052e-06  1.4786924361564275e-06  1.4759220658152487e-06  1.4739314757290615e-06  1.4727985926596344e-06  1.4723329435039690e-06  4.4368226637676839e-06  1.4724857710638977e-06  7.3149404925923932e-07  7.3232364796797684e-07  7.3406271137095748e-07  7.3682115747805594e-07  7.4032483964552479e-07  7.4402672713234356e-07  7.4742957179310802e-07  7.5031681877933136e-07  7.5269040089891363e-07  7.5463728993248597e-07  7.5623743251294272e-07  7.5754371085648404e-07  7.5858874797796706e-07  7.5941724841560294e-07  7.6005056246811483e-07  7.6052126004703362e-07  7.6085895443743785e-07  7.6108362644757073e-07  7.6120741808612517e-07  7.6124039577874262e-07  7.6119003125727065e-07  7.6104854677698864e-07  7.6080566464934815e-07  7.6044553726252121e-07  7.5994748098896665e-07  7.5928191721186520e-07  7.5841602138305340e-07  7.5732242385044052e-07  7.5596415749531633e-07  7.5429676896608560e-07  7.5227610286205551e-07  7.4983018695083421e-07  7.4686989242756015e-07  7.4340275129413492e-07  7.3970022001664975e-07  7.3630524186054725e-07  7.3373141918178333e-07  7.3216374015561840e-07  7.3142453628265273e-07  1.4723283490449947e-06  1.4729147904455950e-06  7.3206104331505240e-07  7.3328368148090245e-07  7.3565836435245873e-07  7.3930370300465153e-07  7.4372740778128294e-07  7.4799194359063859e-07  7.5161546482958556e-07  7.5458291458544260e-07  7.5703855279099822e-07  7.5911919900708304e-07  7.6088439064915050e-07  7.6235141526970444e-07  7.6353247027490340e-07  7.6446182440565896e-07  7.6517470048743804e-07  7.6569952679200440e-07  7.6607446843847411e-07  7.6632489092198546e-07  7.6646224127242869e-07  7.6650076664689655e-07  7.6644807351219551e-07  7.6629410584015608e-07  7.6602581982386851e-07  7.6563086879167297e-07  7.6508203413664699e-07  7.6434386928493736e-07  7.6338347545074737e-07  7.6216418093187331e-07  7.6066375197197739e-07  7.5885049456731994e-07  7.5673253879379520e-07  7.5419021174911560e-07  7.5121585943976165e-07  7.4747171282286405e-07  7.4305768973996774e-07  7.3871242832534577e-07  7.3527421228514435e-07  7.3306151865627761e-07  7.3192939955657006e-07  1.4726650558599463e-06  1.4731719088397217e-06  7.3276728538825228e-07  7.3495121759684601e-07  7.3890102526536191e-07  7.4419249300787284e-07  7.5001827065434683e-07  7.5426909896621636e-07  7.5769691154622866e-07  7.6067831305352854e-07  7.6361013299990026e-07  7.6649747332576446e-07  7.6919685897849682e-07  7.7156139166011255e-07  7.7353232379079592e-07  7.7512251844853269e-07  7.7638156984340695e-07  7.7734131084914819e-07  7.7804266480454903e-07  7.7851230519632011e-07  7.7877161110577334e-07  7.7882718876823136e-07  7.7868734494744700e-07  7.7834237242492191e-07  7.7777714573920532e-07  7.7697997977365876e-07  7.7592036276039441e-07  7.7455410407822860e-07  7.7284927407157794e-07  7.7075188713441879e-07  7.6832573484813810e-07  7.6555989551848975e-07  7.6267279427116702e-07  7.5955605441081049e-07  7.5711848776928957e-07  7.5366674350454337e-07  7.4869523855515959e-07  7.4294627703000102e-07  7.3790873909544865e-07  7.3430810889426073e-07  7.3234974372414370e-07  1.4730746599027366e-06  1.4723153953416483e-06  7.3340216016048441e-07  7.4283268552536243e-07  7.6300940021110628e-07  7.9186707578867522e-07  8.2866191764138428e-07  8.5399472853541539e-07  8.7266669148743655e-07  8.9771507611954584e-07  9.2352936573647920e-07  9.5042842391015047e-07  9.7662647974749696e-07  1.0005839548536919e-06  1.0216832460541494e-06  1.0398087356570776e-06  1.0550416192393740e-06  1.0674518925842284e-06  1.0770948429483385e-06  1.0840057014483739e-06  1.0882138078757381e-06  1.0897433730663233e-06  1.0885602298408472e-06  1.0846637754826821e-06  1.0780425820284914e-06  1.0686551105921165e-06  1.0564425298818070e-06  1.0412979495357919e-06  1.0231553204450846e-06  1.0017873508690566e-06  9.7794235191692586e-07  9.5099583133368481e-07  9.2225758520216763e-07  8.9249804471231620e-07  8.7121196858890667e-07  8.4075358593158149e-07  8.0288488638273341e-07  7.6993250372525045e-07  7.4900040517775255e-07  7.3887264245902748e-07  7.3362283881372708e-07  1.4729979222025307e-06  1.5584930863095119e-06  7.7820454135638401e-07  8.7753547422379627e-07  1.0960854316452030e-06  1.6750406260636366e-06  3.7704362679344394e-06  2.0856587540462549e-03  4.1183919796744635e-02  7.1662516998384593e-02  1.0367643706160497e-01  1.3273461463841418e-01  1.5764879705100829e-01  1.7878089088358787e-01  1.9632960689109993e-01  2.1070682250456602e-01  2.2240241785538067e-01  2.3174922321172864e-01  2.3885417672226300e-01  2.4385075167678708e-01  2.4684688612397360e-01  2.4793670912538093e-01  2.4711982713672095e-01  2.4436414376412005e-01  2.3962788453986991e-01  2.3279650523275780e-01  2.2373190306264407e-01  2.1225529075453875e-01  1.9805587633778254e-01  1.8065877126822752e-01  1.5982450430914683e-01  1.3443814231818368e-01  1.0649082966299674e-01  7.6177295921366753e-02  4.4947445258294916e-02  4.1641379590875906e-03  3.8685750237335265e-06  1.6613075869665104e-06  1.1350436715055582e-06  8.5868656884295831e-07  7.4988776971197747e-07  1.4863053297382778e-06  1.6541917157258203e-06  1.4553013767935561e-06  1.5565462186670634e-01  4.1150360221677057e-01  5.9452940721498404e-01  7.4166055063663550e-01  8.5152357457758443e-01  9.2352276123802657e-01  9.7051525908231406e-01  9.9993787648597388e-01  9.9998305283412858e-01  9.9998984224396659e-01  9.9999237820686382e-01  9.9999369339988931e-01  9.9999448281730630e-01  9.9999499371467415e-01  9.9999533694183040e-01  9.9999556753628005e-01  9.9999571572558144e-01  9.9999579876875266e-01  9.9999582496304695e-01  9.9999579686719942e-01  9.9999571178833557e-01  9.9999556070313023e-01  9.9999532613256570e-01  9.9999497648689184e-01  9.9999445372736195e-01  9.9999364150874148e-01  9.9999227681226799e-01  9.9998959855322922e-01  9.9998215729541517e-01  9.9991953696999236e-01  9.6806755228571606e-01  9.1725785853976194e-01  8.5139173451553440e-01  7.5051826464110605e-01  5.9937933184663583e-01  4.1248772475924050e-01  1.3317021213619673e-01  1.3155194188474714e-06  1.5645007424974181e-06  9.9998822301452694e-01  9.9999008190492111e-01  9.9999852481209739e-01  9.9999897969947760e-01  9.9999908740830679e-01  9.9999914547221480e-01  9.9999917695365947e-01  9.9999919630920520e-01  9.9999921088423793e-01  9.9999922485999893e-01  9.9999924213359559e-01  9.9999926116036419e-01  9.9999927763381380e-01  9.9999929183152281e-01  9.9999930383565649e-01  9.9999931373452156e-01  9.9999932166090000e-01  9.9999932771963140e-01  9.9999933202159996e-01  9.9999933466328594e-01  9.9999933569600341e-01  9.9999933513849015e-01  9.9999933298752341e-01  9.9999932918723555e-01  9.9999932365121691e-01  9.9999931627649619e-01  9.9999930693961381e-01  9.9999929551815503e-01  9.9999928191125831e-01  9.9999926601614919e-01  9.9999924760355885e-01  9.9999922607472613e-01  9.9999920534583020e-01  9.9999918570668100e-01  9.9999915720699450e-01  9.9999911186289836e-01  9.9999904214025670e-01  9.9999890519810752e-01  9.9999852644356668e-01  9.9999691937710489e-01  4.3909318830837690e-01  9.9999961709117180e-01  9.9999975145037745e-01  9.9999972512466506e-01  9.9999969886670714e-01  9.9999967846745685e-01  9.9999966474120006e-01  9.9999965644974653e-01  9.9999965168366689e-01  9.9999964905603766e-01  9.9999964797101093e-01  9.9999964803940178e-01  9.9999964892073523e-01  9.9999965029389870e-01  9.9999965189852846e-01  9.9999965353108955e-01  9.9999965504867716e-01  9.9999965636849963e-01  9.9999965744051511e-01  9.9999965823682868e-01  9.9999965874934327e-01  9.9999965897067644e-01  9.9999965890107734e-01  9.9999965854327355e-01  9.9999965790210377e-01  9.9999965698758142e-01  9.9999965582399408e-01  9.9999965446022632e-01  9.9999965297897142e-01  9.9999965151933901e-01  9.9999965028722426e-01  9.9999964957184351e-01  9.9999964975210576e-01  9.9999965129208623e-01  9.9999965476489716e-01  9.9999966103275850e-01  9.9999967159131309e-01  9.9999968833303765e-01  9.9999971186547620e-01  9.9999973970176803e-01  9.9999976607924124e-01  9.9999943238726996e-01  9.9999981042998520e-01  9.9999989184441052e-01  9.9999986614219116e-01  9.9999983553719485e-01  9.9999980713156489e-01  9.9999978446078508e-01  9.9999976820725300e-01  9.9999975725088774e-01  9.9999975007055564e-01  9.9999974544990777e-01  9.9999974254486701e-01  9.9999974078727849e-01  9.9999973979165668e-01  9.9999973928963737e-01  9.9999973909367279e-01  9.9999973907283868e-01  9.9999973914096330e-01  9.9999973924732644e-01  9.9999973935243169e-01  9.9999973943919895e-01  9.9999973949504639e-01  9.9999973951782861e-01  9.9999973951148202e-01  9.9999973948510557e-01  9.9999973945987852e-01  9.9999973946812382e-01  9.9999973956570753e-01  9.9999973983702972e-01  9.9999974041227446e-01  9.9999974148088266e-01  9.9999974332488739e-01  9.9999974635587219e-01  9.9999975118164308e-01  9.9999975869786772e-01  9.9999977016392450e-01  9.9999978705665171e-01  9.9999981034252960e-01  9.9999983910903856e-01  9.9999986936580310e-01  9.9999989384684496e-01  9.9999977955063035e-01  9.9999983592006392e-01  9.9999991416066325e-01  9.9999989154018332e-01  9.9999986259165152e-01  9.9999983376109125e-01  9.9999980940349076e-01  9.9999979101528502e-01  9.9999977802761331e-01  9.9999976911496558e-01  9.9999976300611138e-01  9.9999975876184977e-01  9.9999975576211630e-01  9.9999975361000337e-01  9.9999975205018365e-01  9.9999975091408910e-01  9.9999975008637987e-01  9.9999974948951909e-01  9.9999974907374933e-01  9.9999974880440390e-01  9.9999974865932406e-01  9.9999974862633445e-01  9.9999974870228681e-01  9.9999974889163146e-01  9.9999974920456558e-01  9.9999974966369376e-01  9.9999975030425614e-01  9.9999975117692486e-01  9.9999975235920668e-01  9.9999975396413776e-01  9.9999975616029824e-01  9.9999975920135431e-01  9.9999976348322017e-01  9.9999976961906312e-01  9.9999977853585331e-01  9.9999979148674190e-01  9.9999980978539516e-01  9.9999983401986092e-01  9.9999986273932917e-01  9.9999989162243397e-01  9.9999991420889600e-01  9.9999983595904796e-01  9.9999977928582107e-01  9.9999989327600691e-01  9.9999986760684711e-01  9.9999983545240001e-01  9.9999980406212163e-01  9.9999977758041869e-01  9.9999975725706092e-01  9.9999974242743495e-01  9.9999973171661349e-01  9.9999972383050562e-01  9.9999971783344432e-01  9.9999971313306779e-01  9.9999970936819871e-01  9.9999970632261392e-01  9.9999970386112302e-01  9.9999970189138143e-01  9.9999970034983809e-01  9.9999969919151999e-01  9.9999969838769920e-01  9.9999969791372434e-01  9.9999969775671871e-01  9.9999969791434662e-01  9.9999969839133707e-01  9.9999969919883569e-01  9.9999970036054686e-01  9.9999970191093235e-01  9.9999970389449522e-01  9.9999970637590774e-01  9.9999970944396988e-01  9.9999971322774750e-01  9.9999971792775633e-01  9.9999972387184644e-01  9.9999973159938493e-01  9.9999974197216468e-01  9.9999975620790460e-01  9.9999977569949450e-01  9.9999980129860933e-01  9.9999983209828858e-01  9.9999986449556089e-01  9.9999989136614442e-01  9.9999981030895713e-01  9.9999943098717214e-01  9.9999976272745983e-01  9.9999973041779766e-01  9.9999969480665774e-01  9.9999966155910369e-01  9.9999963354816723e-01  9.9999961117738601e-01  9.9999959332354416e-01  9.9999957856330057e-01  9.9999956583772986e-01  9.9999955453562817e-01  9.9999954438273608e-01  9.9999953528816188e-01  9.9999952723508123e-01  9.9999952024638938e-01  9.9999951433170609e-01  9.9999950949568150e-01  9.9999950573355367e-01  9.9999950304082008e-01  9.9999950139698524e-01  9.9999950079794320e-01  9.9999950124402481e-01  9.9999950273917726e-01  9.9999950529220738e-01  9.9999950892159295e-01  9.9999951364104234e-01  9.9999951946228594e-01  9.9999952638744571e-01  9.9999953439902733e-01  9.9999954346246311e-01  9.9999955354883963e-01  9.9999956466519402e-01  9.9999957693903430e-01  9.9999959076589784e-01  9.9999960693386525e-01  9.9999962672119802e-01  9.9999965125887469e-01  9.9999968104972214e-01  9.9999971503859930e-01  9.9999974767904376e-01  9.9999961613386790e-01  4.3183108577580082e-01  9.9999649475310426e-01  9.9999831648387583e-01  9.9999872482069507e-01  9.9999884779987191e-01  9.9999888440225004e-01  9.9999888856754737e-01  9.9999887342962213e-01  9.9999884531302830e-01  9.9999880811199193e-01  9.9999876498619844e-01  9.9999871864329604e-01  9.9999867144789711e-01  9.9999862536736961e-01  9.9999858217604132e-01  9.9999854325035797e-01  9.9999850964448489e-01  9.9999848224481358e-01  9.9999846168256634e-01  9.9999844832706719e-01  9.9999844245297742e-01  9.9999844418193962e-01  9.9999845350465844e-01  9.9999847026759237e-01  9.9999849414286435e-01  9.9999852467000772e-01  9.9999856114130048e-01  9.9999860265619323e-01  9.9999864800811800e-01  9.9999869570233169e-01  9.9999874391145627e-01  9.9999879049803986e-01  9.9999883294626934e-01  9.9999886837891061e-01  9.9999889287908994e-01  9.9999890179578521e-01  9.9999887569452772e-01  9.9999878774880502e-01  9.9999823811708455e-01  9.9998108158486454e-01  9.9998744947030371e-01  1.5620074346782541e-06  1.2463659594393487e-06  9.3117072970857570e-02  3.3047663510936842e-01  4.6729560101944700e-01  5.6148900374624178e-01  6.1178374527631629e-01  6.3332625078937343e-01  6.3610182543297988e-01  6.2789720427799323e-01  6.1396925654903245e-01  5.9770403392505211e-01  5.8116297473290868e-01  5.6558929589940166e-01  5.5164403020802411e-01  5.3969202321812060e-01  5.2983997773135894e-01  5.2215560366534741e-01  5.1662151601843020e-01  5.1319085075800541e-01  5.1184095795030160e-01  5.1257443637896838e-01  5.1539380243488220e-01  5.2033524235582596e-01  5.2741060999903677e-01  5.3663803792240627e-01  5.4800571898737849e-01  5.6136252254935226e-01  5.7640852785715702e-01  5.9250021973921396e-01  6.0845527481854078e-01  6.2220954126982242e-01  6.3038483201620188e-01  6.2769103245889124e-01  6.0620406713268771e-01  5.5595736256143435e-01  4.6280167074031536e-01  3.2962847576918503e-01  1.1284497955171957e-01  1.3616581511140110e-06  1.6466241264172212e-06  1.4858808988315799e-06  7.4959419715642074e-07  8.3979298110451946e-07  1.0384604440569422e-06  1.2636961050043254e-06  1.6442902872717670e-06  2.0287756798415047e-06  2.3137820056856605e-06  2.4263637191856463e-06  2.4012023390684073e-06  2.3061123463897422e-06  2.1918493025107166e-06  2.0832791711301957e-06  1.9899819399275581e-06  1.9134769381531571e-06  1.8527227011796368e-06  1.8058923580295572e-06  1.7711498787886285e-06  1.7470993330890608e-06  1.7326279820090618e-06  1.7271433141495510e-06  1.7304149458944317e-06  1.7426016163957755e-06  1.7642659818903978e-06  1.7962637594580587e-06  1.8398960307844115e-06  1.8969336861122050e-06  1.9689188038447443e-06  2.0568138720363664e-06  2.1588722673911540e-06  2.2664602996199120e-06  2.3562490267192163e-06  2.3817373956460666e-06  2.2794819293516579e-06  2.0155170629061303e-06  1.6425846578173159e-06  1.2807944553719732e-06  1.0095374365584089e-06  8.6347829462260151e-07  7.7679562823537779e-07  1.5590403978370864e-06  1.4733933039517725e-06  7.3412407631637049e-07  7.3942607930778182e-07  7.4736768595479610e-07  7.6133745872822806e-07  7.7959816823562343e-07  7.9359840717589841e-07  8.0306546856482431e-07  8.0812829429765360e-07  8.1018828569863442e-07  8.1042931086781598e-07  8.0972119400003120e-07  8.0858514576516116e-07  8.0732781425509104e-07  8.0611872867004580e-07  8.0503015240900587e-07  8.0411026560715864e-07  8.0335748324263517e-07  8.0279190744273823e-07  8.0240156230652385e-07  8.0218667021024867e-07  8.0214473054873332e-07  8.0227024292630928e-07  8.0256918321584651e-07  8.0303281256910619e-07  8.0365528301097154e-07  8.0443363409988510e-07  8.0534612233193110e-07  8.0633708982447623e-07  8.0731620644604385e-07  8.0808543978305555e-07  8.0832406179187743e-07  8.0744972427402982e-07  8.0457920245779869e-07  7.9854227653063226e-07  7.8824465361210117e-07  7.7356135855244929e-07  7.5685404523456032e-07  7.4217682696199074e-07  7.3377768563895996e-07  1.4726626628115323e-06  1.4733737389094722e-06  7.3271106406272797e-07  7.3472170889377170e-07  7.3809099712022926e-07  7.4247961988058007e-07  7.4735258006329567e-07  7.5184532793751061e-07  7.5583967199515608e-07  7.5905397743992857e-07  7.6157409234903208e-07  7.6350131255421543e-07  7.6495932538947658e-07  7.6605624421274381e-07  7.6687464248168587e-07  7.6748867633730373e-07  7.6793984948541903e-07  7.6826808692590747e-07  7.6849506834483541e-07  7.6864536380128613e-07  7.6872661906595045e-07  7.6874896828987840e-07  7.6871430015620075e-07  7.6861741148060235e-07  7.6845349615634122e-07  7.6821008412252105e-07  7.6786804268855636e-07  7.6740102909526027e-07  7.6677141590453089e-07  7.6593770162693388e-07  7.6484077972348946e-07  7.6339869724958345e-07  7.6152615405950591e-07  7.5912562965951899e-07  7.5609710175331205e-07  7.5239668081037221e-07  7.4809595421793832e-07  7.4346927011846727e-07  7.3903653752445338e-07  7.3548035816040061e-07  7.3328180261360156e-07  1.4736385021579633e-06  1.4728484396938519e-06  7.3217414793332144e-07  7.3335607454862922e-07  7.3548310189715696e-07  7.3866104349226987e-07  7.4268369983987240e-07  7.4701343711179071e-07  7.5116524081846614e-07  7.5482779192424823e-07  7.5789434626942859e-07  7.6036256499366589e-07  7.6229510717158572e-07  7.6378450589754376e-07  7.6491530524553708e-07  7.6576985174176777e-07  7.6640375935206116e-07  7.6686406361682548e-07  7.6718831984806878e-07  7.6740359290139135e-07  7.6752702306600106e-07  7.6756377312793527e-07  7.6752071859007115e-07  7.6739512362514985e-07  7.6717668936056527e-07  7.6684227390103854e-07  7.6637552294414445e-07  7.6573906849140212e-07  7.6488111846041152e-07  7.6374507771211164e-07  7.6225763731935763e-07  7.6033773839841321e-07  7.5790442853896606e-07  7.5490170621450708e-07  7.5133144838132900e-07  7.4730385893634595e-07  7.4309078002352691e-07  7.3911646152111356e-07  7.3585932851135270e-07  7.3366626709493629e-07  7.3241980558513631e-07  1.4732526362746253e-06  1.4724053811297947e-06  7.3157748829670588e-07  7.3247396489273617e-07  7.3424406813661580e-07  7.3704326100839453e-07  7.4072298265046931e-07  7.4488699148827255e-07  7.4908250624852711e-07  7.5295959953665828e-07  7.5631022574879322e-07  7.5907571965886688e-07  7.6127705630970289e-07  7.6299085749878416e-07  7.6430315865149195e-07  7.6529196155232897e-07  7.6602783576143849e-07  7.6656184421096136e-07  7.6694009477340745e-07  7.6719011647496766e-07  7.6733315547901739e-07  7.6737887673436982e-07  7.6732929790580181e-07  7.6718518749669937e-07  7.6693661386309349e-07  7.6655428098389405e-07  7.6601358638823935e-07  7.6527742677280985e-07  7.6428831573056147e-07  7.6297640002187048e-07  7.6126457275226631e-07  7.5907159584446140e-07  7.5632706458944280e-07  7.5300817727181144e-07  7.4917599662809772e-07  7.4502572304855372e-07  7.4090060824295050e-07  7.3723591236391272e-07  7.3441299495499876e-07  7.3260405131721613e-07  7.3168819452145240e-07  1.4726813611555165e-06  1.4723278295295285e-06  7.3137835802592826e-07  7.3221160541068352e-07  7.3392194915185223e-07  7.3662265352959780e-07  7.4019073069467667e-07  7.4428245635450098e-07  7.4846820660104069e-07  7.523855062