<?xml version="1.0"?>
<VTKFile type="UnstructuredGrid"  version="0.1"  >
<UnstructuredGrid>
<Piece  NumberOfPoints="1681" NumberOfCells="3200">
<Points>
<DataArray  type="Float64"  NumberOfComponents="3"  format="ascii">0 0 0  0.025 0 0  0.05 0 0  0.075 0 0  0.1 0 0  0.125 0 0  0.15 0 0  0.175 0 0  0.2 0 0  0.225 0 0  0.25 0 0  0.275 0 0  0.3 0 0  0.325 0 0  0.35 0 0  0.375 0 0  0.4 0 0  0.425 0 0  0.45 0 0  0.475 0 0  0.5 0 0  0.525 0 0  0.55 0 0  0.575 0 0  0.6 0 0  0.625 0 0  0.65 0 0  0.675 0 0  0.7 0 0  0.725 0 0  0.75 0 0  0.775 0 0  0.8 0 0  0.825 0 0  0.85 0 0  0.875 0 0  0.9 0 0  0.925 0 0  0.95 0 0  0.975 0 0  1 0 0  0 0.025 0  0.025 0.025 0  0.05 0.025 0  0.075 0.025 0  0.1 0.025 0  0.125 0.025 0  0.15 0.025 0  0.175 0.025 0  0.2 0.025 0  0.225 0.025 0  0.25 0.025 0  0.275 0.025 0  0.3 0.025 0  0.325 0.025 0  0.35 0.025 0  0.375 0.025 0  0.4 0.025 0  0.425 0.025 0  0.45 0.025 0  0.475 0.025 0  0.5 0.025 0  0.525 0.025 0  0.55 0.025 0  0.575 0.025 0  0.6 0.025 0  0.625 0.025 0  0.65 0.025 0  0.675 0.025 0  0.7 0.025 0  0.725 0.025 0  0.75 0.025 0  0.775 0.025 0  0.8 0.025 0  0.825 0.025 0  0.85 0.025 0  0.875 0.025 0  0.9 0.025 0  0.925 0.025 0  0.95 0.025 0  0.975 0.025 0  1 0.025 0  0 0.05 0  0.025 0.05 0  0.05 0.05 0  0.075 0.05 0  0.1 0.05 0  0.125 0.05 0  0.15 0.05 0  0.175 0.05 0  0.2 0.05 0  0.225 0.05 0  0.25 0.05 0  0.275 0.05 0  0.3 0.05 0  0.325 0.05 0  0.35 0.05 0  0.375 0.05 0  0.4 0.05 0  0.425 0.05 0  0.45 0.05 0  0.475 0.05 0  0.5 0.05 0  0.525 0.05 0  0.55 0.05 0  0.575 0.05 0  0.6 0.05 0  0.625 0.05 0  0.65 0.05 0  0.675 0.05 0  0.7 0.05 0  0.725 0.05 0  0.75 0.05 0  0.775 0.05 0  0.8 0.05 0  0.825 0.05 0  0.85 0.05 0  0.875 0.05 0  0.9 0.05 0  0.925 0.05 0  0.95 0.05 0  0.975 0.05 0  1 0.05 0  0 0.075 0  0.025 0.075 0  0.05 0.075 0  0.075 0.075 0  0.1 0.075 0  0.125 0.075 0  0.15 0.075 0  0.175 0.075 0  0.2 0.075 0  0.225 0.075 0  0.25 0.075 0  0.275 0.075 0  0.3 0.075 0  0.325 0.075 0  0.35 0.075 0  0.375 0.075 0  0.4 0.075 0  0.425 0.075 0  0.45 0.075 0  0.475 0.075 0  0.5 0.075 0  0.525 0.075 0  0.55 0.075 0  0.575 0.075 0  0.6 0.075 0  0.625 0.075 0  0.65 0.075 0  0.675 0.075 0  0.7 0.075 0  0.725 0.075 0  0.75 0.075 0  0.775 0.075 0  0.8 0.075 0  0.825 0.075 0  0.85 0.075 0  0.875 0.075 0  0.9 0.075 0  0.925 0.075 0  0.95 0.075 0  0.975 0.075 0  1 0.075 0  0 0.1 0  0.025 0.1 0  0.05 0.1 0  0.075 0.1 0  0.1 0.1 0  0.125 0.1 0  0.15 0.1 0  0.175 0.1 0  0.2 0.1 0  0.225 0.1 0  0.25 0.1 0  0.275 0.1 0  0.3 0.1 0  0.325 0.1 0  0.35 0.1 0  0.375 0.1 0  0.4 0.1 0  0.425 0.1 0  0.45 0.1 0  0.475 0.1 0  0.5 0.1 0  0.525 0.1 0  0.55 0.1 0  0.575 0.1 0  0.6 0.1 0  0.625 0.1 0  0.65 0.1 0  0.675 0.1 0  0.7 0.1 0  0.725 0.1 0  0.75 0.1 0  0.775 0.1 0  0.8 0.1 0  0.825 0.1 0  0.85 0.1 0  0.875 0.1 0  0.9 0.1 0  0.925 0.1 0  0.95 0.1 0  0.975 0.1 0  1 0.1 0  0 0.125 0  0.025 0.125 0  0.05 0.125 0  0.075 0.125 0  0.1 0.125 0  0.125 0.125 0  0.15 0.125 0  0.175 0.125 0  0.2 0.125 0  0.225 0.125 0  0.25 0.125 0  0.275 0.125 0  0.3 0.125 0  0.325 0.125 0  0.35 0.125 0  0.375 0.125 0  0.4 0.125 0  0.425 0.125 0  0.45 0.125 0  0.475 0.125 0  0.5 0.125 0  0.525 0.125 0  0.55 0.125 0  0.575 0.125 0  0.6 0.125 0  0.625 0.125 0  0.65 0.125 0  0.675 0.125 0  0.7 0.125 0  0.725 0.125 0  0.75 0.125 0  0.775 0.125 0  0.8 0.125 0  0.825 0.125 0  0.85 0.125 0  0.875 0.125 0  0.9 0.125 0  0.925 0.125 0  0.95 0.125 0  0.975 0.125 0  1 0.125 0  0 0.15 0  0.025 0.15 0  0.05 0.15 0  0.075 0.15 0  0.1 0.15 0  0.125 0.15 0  0.15 0.15 0  0.175 0.15 0  0.2 0.15 0  0.225 0.15 0  0.25 0.15 0  0.275 0.15 0  0.3 0.15 0  0.325 0.15 0  0.35 0.15 0  0.375 0.15 0  0.4 0.15 0  0.425 0.15 0  0.45 0.15 0  0.475 0.15 0  0.5 0.15 0  0.525 0.15 0  0.55 0.15 0  0.575 0.15 0  0.6 0.15 0  0.625 0.15 0  0.65 0.15 0  0.675 0.15 0  0.7 0.15 0  0.725 0.15 0  0.75 0.15 0  0.775 0.15 0  0.8 0.15 0  0.825 0.15 0  0.85 0.15 0  0.875 0.15 0  0.9 0.15 0  0.925 0.15 0  0.95 0.15 0  0.975 0.15 0  1 0.15 0  0 0.175 0  0.025 0.175 0  0.05 0.175 0  0.075 0.175 0  0.1 0.175 0  0.125 0.175 0  0.15 0.175 0  0.175 0.175 0  0.2 0.175 0  0.225 0.175 0  0.25 0.175 0  0.275 0.175 0  0.3 0.175 0  0.325 0.175 0  0.35 0.175 0  0.375 0.175 0  0.4 0.175 0  0.425 0.175 0  0.45 0.175 0  0.475 0.175 0  0.5 0.175 0  0.525 0.175 0  0.55 0.175 0  0.575 0.175 0  0.6 0.175 0  0.625 0.175 0  0.65 0.175 0  0.675 0.175 0  0.7 0.175 0  0.725 0.175 0  0.75 0.175 0  0.775 0.175 0  0.8 0.175 0  0.825 0.175 0  0.85 0.175 0  0.875 0.175 0  0.9 0.175 0  0.925 0.175 0  0.95 0.175 0  0.975 0.175 0  1 0.175 0  0 0.2 0  0.025 0.2 0  0.05 0.2 0  0.075 0.2 0  0.1 0.2 0  0.125 0.2 0  0.15 0.2 0  0.175 0.2 0  0.2 0.2 0  0.225 0.2 0  0.25 0.2 0  0.275 0.2 0  0.3 0.2 0  0.325 0.2 0  0.35 0.2 0  0.375 0.2 0  0.4 0.2 0  0.425 0.2 0  0.45 0.2 0  0.475 0.2 0  0.5 0.2 0  0.525 0.2 0  0.55 0.2 0  0.575 0.2 0  0.6 0.2 0  0.625 0.2 0  0.65 0.2 0  0.675 0.2 0  0.7 0.2 0  0.725 0.2 0  0.75 0.2 0  0.775 0.2 0  0.8 0.2 0  0.825 0.2 0  0.85 0.2 0  0.875 0.2 0  0.9 0.2 0  0.925 0.2 0  0.95 0.2 0  0.975 0.2 0  1 0.2 0  0 0.225 0  0.025 0.225 0  0.05 0.225 0  0.075 0.225 0  0.1 0.225 0  0.125 0.225 0  0.15 0.225 0  0.175 0.225 0  0.2 0.225 0  0.225 0.225 0  0.25 0.225 0  0.275 0.225 0  0.3 0.225 0  0.325 0.225 0  0.35 0.225 0  0.375 0.225 0  0.4 0.225 0  0.425 0.225 0  0.45 0.225 0  0.475 0.225 0  0.5 0.225 0  0.525 0.225 0  0.55 0.225 0  0.575 0.225 0  0.6 0.225 0  0.625 0.225 0  0.65 0.225 0  0.675 0.225 0  0.7 0.225 0  0.725 0.225 0  0.75 0.225 0  0.775 0.225 0  0.8 0.225 0  0.825 0.225 0  0.85 0.225 0  0.875 0.225 0  0.9 0.225 0  0.925 0.225 0  0.95 0.225 0  0.975 0.225 0  1 0.225 0  0 0.25 0  0.025 0.25 0  0.05 0.25 0  0.075 0.25 0  0.1 0.25 0  0.125 0.25 0  0.15 0.25 0  0.175 0.25 0  0.2 0.25 0  0.225 0.25 0  0.25 0.25 0  0.275 0.25 0  0.3 0.25 0  0.325 0.25 0  0.35 0.25 0  0.375 0.25 0  0.4 0.25 0  0.425 0.25 0  0.45 0.25 0  0.475 0.25 0  0.5 0.25 0  0.525 0.25 0  0.55 0.25 0  0.575 0.25 0  0.6 0.25 0  0.625 0.25 0  0.65 0.25 0  0.675 0.25 0  0.7 0.25 0  0.725 0.25 0  0.75 0.25 0  0.775 0.25 0  0.8 0.25 0  0.825 0.25 0  0.85 0.25 0  0.875 0.25 0  0.9 0.25 0  0.925 0.25 0  0.95 0.25 0  0.975 0.25 0  1 0.25 0  0 0.275 0  0.025 0.275 0  0.05 0.275 0  0.075 0.275 0  0.1 0.275 0  0.125 0.275 0  0.15 0.275 0  0.175 0.275 0  0.2 0.275 0  0.225 0.275 0  0.25 0.275 0  0.275 0.275 0  0.3 0.275 0  0.325 0.275 0  0.35 0.275 0  0.375 0.275 0  0.4 0.275 0  0.425 0.275 0  0.45 0.275 0  0.475 0.275 0  0.5 0.275 0  0.525 0.275 0  0.55 0.275 0  0.575 0.275 0  0.6 0.275 0  0.625 0.275 0  0.65 0.275 0  0.675 0.275 0  0.7 0.275 0  0.725 0.275 0  0.75 0.275 0  0.775 0.275 0  0.8 0.275 0  0.825 0.275 0  0.85 0.275 0  0.875 0.275 0  0.9 0.275 0  0.925 0.275 0  0.95 0.275 0  0.975 0.275 0  1 0.275 0  0 0.3 0  0.025 0.3 0  0.05 0.3 0  0.075 0.3 0  0.1 0.3 0  0.125 0.3 0  0.15 0.3 0  0.175 0.3 0  0.2 0.3 0  0.225 0.3 0  0.25 0.3 0  0.275 0.3 0  0.3 0.3 0  0.325 0.3 0  0.35 0.3 0  0.375 0.3 0  0.4 0.3 0  0.425 0.3 0  0.45 0.3 0  0.475 0.3 0  0.5 0.3 0  0.525 0.3 0  0.55 0.3 0  0.575 0.3 0  0.6 0.3 0  0.625 0.3 0  0.65 0.3 0  0.675 0.3 0  0.7 0.3 0  0.725 0.3 0  0.75 0.3 0  0.775 0.3 0  0.8 0.3 0  0.825 0.3 0  0.85 0.3 0  0.875 0.3 0  0.9 0.3 0  0.925 0.3 0  0.95 0.3 0  0.975 0.3 0  1 0.3 0  0 0.325 0  0.025 0.325 0  0.05 0.325 0  0.075 0.325 0  0.1 0.325 0  0.125 0.325 0  0.15 0.325 0  0.175 0.325 0  0.2 0.325 0  0.225 0.325 0  0.25 0.325 0  0.275 0.325 0  0.3 0.325 0  0.325 0.325 0  0.35 0.325 0  0.375 0.325 0  0.4 0.325 0  0.425 0.325 0  0.45 0.325 0  0.475 0.325 0  0.5 0.325 0  0.525 0.325 0  0.55 0.325 0  0.575 0.325 0  0.6 0.325 0  0.625 0.325 0  0.65 0.325 0  0.675 0.325 0  0.7 0.325 0  0.725 0.325 0  0.75 0.325 0  0.775 0.325 0  0.8 0.325 0  0.825 0.325 0  0.85 0.325 0  0.875 0.325 0  0.9 0.325 0  0.925 0.325 0  0.95 0.325 0  0.975 0.325 0  1 0.325 0  0 0.35 0  0.025 0.35 0  0.05 0.35 0  0.075 0.35 0  0.1 0.35 0  0.125 0.35 0  0.15 0.35 0  0.175 0.35 0  0.2 0.35 0  0.225 0.35 0  0.25 0.35 0  0.275 0.35 0  0.3 0.35 0  0.325 0.35 0  0.35 0.35 0  0.375 0.35 0  0.4 0.35 0  0.425 0.35 0  0.45 0.35 0  0.475 0.35 0  0.5 0.35 0  0.525 0.35 0  0.55 0.35 0  0.575 0.35 0  0.6 0.35 0  0.625 0.35 0  0.65 0.35 0  0.675 0.35 0  0.7 0.35 0  0.725 0.35 0  0.75 0.35 0  0.775 0.35 0  0.8 0.35 0  0.825 0.35 0  0.85 0.35 0  0.875 0.35 0  0.9 0.35 0  0.925 0.35 0  0.95 0.35 0  0.975 0.35 0  1 0.35 0  0 0.375 0  0.025 0.375 0  0.05 0.375 0  0.075 0.375 0  0.1 0.375 0  0.125 0.375 0  0.15 0.375 0  0.175 0.375 0  0.2 0.375 0  0.225 0.375 0  0.25 0.375 0  0.275 0.375 0  0.3 0.375 0  0.325 0.375 0  0.35 0.375 0  0.375 0.375 0  0.4 0.375 0  0.425 0.375 0  0.45 0.375 0  0.475 0.375 0  0.5 0.375 0  0.525 0.375 0  0.55 0.375 0  0.575 0.375 0  0.6 0.375 0  0.625 0.375 0  0.65 0.375 0  0.675 0.375 0  0.7 0.375 0  0.725 0.375 0  0.75 0.375 0  0.775 0.375 0  0.8 0.375 0  0.825 0.375 0  0.85 0.375 0  0.875 0.375 0  0.9 0.375 0  0.925 0.375 0  0.95 0.375 0  0.975 0.375 0  1 0.375 0  0 0.4 0  0.025 0.4 0  0.05 0.4 0  0.075 0.4 0  0.1 0.4 0  0.125 0.4 0  0.15 0.4 0  0.175 0.4 0  0.2 0.4 0  0.225 0.4 0  0.25 0.4 0  0.275 0.4 0  0.3 0.4 0  0.325 0.4 0  0.35 0.4 0  0.375 0.4 0  0.4 0.4 0  0.425 0.4 0  0.45 0.4 0  0.475 0.4 0  0.5 0.4 0  0.525 0.4 0  0.55 0.4 0  0.575 0.4 0  0.6 0.4 0  0.625 0.4 0  0.65 0.4 0  0.675 0.4 0  0.7 0.4 0  0.725 0.4 0  0.75 0.4 0  0.775 0.4 0  0.8 0.4 0  0.825 0.4 0  0.85 0.4 0  0.875 0.4 0  0.9 0.4 0  0.925 0.4 0  0.95 0.4 0  0.975 0.4 0  1 0.4 0  0 0.425 0  0.025 0.425 0  0.05 0.425 0  0.075 0.425 0  0.1 0.425 0  0.125 0.425 0  0.15 0.425 0  0.175 0.425 0  0.2 0.425 0  0.225 0.425 0  0.25 0.425 0  0.275 0.425 0  0.3 0.425 0  0.325 0.425 0  0.35 0.425 0  0.375 0.425 0  0.4 0.425 0  0.425 0.425 0  0.45 0.425 0  0.475 0.425 0  0.5 0.425 0  0.525 0.425 0  0.55 0.425 0  0.575 0.425 0  0.6 0.425 0  0.625 0.425 0  0.65 0.425 0  0.675 0.425 0  0.7 0.425 0  0.725 0.425 0  0.75 0.425 0  0.775 0.425 0  0.8 0.425 0  0.825 0.425 0  0.85 0.425 0  0.875 0.425 0  0.9 0.425 0  0.925 0.425 0  0.95 0.425 0  0.975 0.425 0  1 0.425 0  0 0.45 0  0.02
[...]
<PointData  Scalars="ControlVisualisation"> 
<DataArray  type="Float64"  Name="ControlVisualisation"  format="ascii">2.2134296186168072e-06  1.4725203945031356e-06  1.4733433768397891e-06  1.4749899714097537e-06  1.4775087274622604e-06  1.4806239530074774e-06  1.4838522815147386e-06  1.4867893460647262e-06  1.4892596404861291e-06  1.4912735580148367e-06  1.4929091104300424e-06  1.4942433561534953e-06  1.4953178499330838e-06  1.4961766162695156e-06  1.4968522124574860e-06  1.4973652569020628e-06  1.4977422356498639e-06  1.4980107330728738e-06  1.4981855650893600e-06  1.4982753967825748e-06  1.4982863402320679e-06  1.4982259707491859e-06  1.4980849338507434e-06  1.4978538040058558e-06  1.4975146966635499e-06  1.4970565203402746e-06  1.4964437413991369e-06  1.4956522937558655e-06  1.4946563639395371e-06  1.4934167061829473e-06  1.4918909617904118e-06  1.4900211922897926e-06  1.4877408404901003e-06  1.4849989614685031e-06  1.4818757773572758e-06  1.4786924490841957e-06  1.4759220792786390e-06  1.4739314879822706e-06  1.4727986044427953e-06  1.4723329548526962e-06  4.4368229896146290e-06  1.4724857821888144e-06  7.3149405001382275e-07  7.3232364937257928e-07  7.3406271294105460e-07  7.3682115664404707e-07  7.4032483993122731e-07  7.4402673485710934e-07  7.4742957887763113e-07  7.5031682391043429e-07  7.5269040020806911e-07  7.5463728893223599e-07  7.5623743627245102e-07  7.5754372037697735e-07  7.5858874314958079e-07  7.5941725821252778e-07  7.6005057174415327e-07  7.6052126304891976e-07  7.6085895858417488e-07  7.6108363435199379e-07  7.6120741988851981e-07  7.6124038645817820e-07  7.6119002607454307e-07  7.6104854430464431e-07  7.6080566243090819e-07  7.6044553483955583e-07  7.5994748430350091e-07  7.5928192386810622e-07  7.5841602093752052e-07  7.5732242666148622e-07  7.5596416335023136e-07  7.5429676805268010e-07  7.5227610639357261e-07  7.4983019634662341e-07  7.4686989717300062e-07  7.4340275525393379e-07  7.3970022186905257e-07  7.3630524477254181e-07  7.3373142153715040e-07  7.3216374194392190e-07  7.3142453756649104e-07  1.4723283602171031e-06  1.4729148019236625e-06  7.3206104484585915e-07  7.3328368293812555e-07  7.3565836619062028e-07  7.3930370320779989e-07  7.4372740571902876e-07  7.4799195048444344e-07  7.5161547886863923e-07  7.5458292592374062e-07  7.5703855565727714e-07  7.5911919767473727e-07  7.6088439338474399e-07  7.6235142336425145e-07  7.6353246913776728e-07  7.6446182627329080e-07  7.6517471483278645e-07  7.6569953147399649e-07  7.6607447007973057e-07  7.6632489910357273e-07  7.6646224011551139e-07  7.6650075639915568e-07  7.6644807305535168e-07  7.6629410913760928e-07  7.6602581318084830e-07  7.6563086408591092e-07  7.6508203605818348e-07  7.6434387142292486e-07  7.6338347540347488e-07  7.6216418464702166e-07  7.6066375699615194e-07  7.5885049683685335e-07  7.5673254437870387e-07  7.5419022401633590e-07  7.5121586771545693e-07  7.4747171889789192e-07  7.4305769330094920e-07  7.3871243201072758e-07  7.3527421565866281e-07  7.3306152077528882e-07  7.3192940073536823e-07  1.4726650670581972e-06  1.4731719202938532e-06  7.3276728752471851e-07  7.3495122092230001e-07  7.3890102749444029e-07  7.4419249212157049e-07  7.5001825627349197e-07  7.5426910685466818e-07  7.5769694100476179e-07  7.6067833341472771e-07  7.6361012575497706e-07  7.6649744695926877e-07  7.6919683958484041e-07  7.7156138501688142e-07  7.7353232366075243e-07  7.7512251462242356e-07  7.7638158495470671e-07  7.7734132164057441e-07  7.7804267270526568e-07  7.7851231008902392e-07  7.7877162201666531e-07  7.7882719656367918e-07  7.7868736244859760e-07  7.7834239092093102e-07  7.7777714508560474e-07  7.7697997670642551e-07  7.7592036560316965e-07  7.7455410143106874e-07  7.7284927371213570e-07  7.7075189117171747e-07  7.6832572138797967e-07  7.6555988422334182e-07  7.6267279605599408e-07  7.5955606615490049e-07  7.5711850070359216e-07  7.5366675084161857e-07  7.4869524305370700e-07  7.4294628137628314e-07  7.3790874243181254e-07  7.3430811029013228e-07  7.3234974479122522e-07  1.4730746709656173e-06  1.4723154066017304e-06  7.3340216101294271e-07  7.4283268494708319e-07  7.6300939110257475e-07  7.9186704472004278e-07  8.2866167573358665e-07  8.5399456530603658e-07  8.7266678476076246e-07  8.9771505819750107e-07  9.2352905432652513e-07  9.5042801287951868e-07  9.7662617916675166e-07  1.0005837646654562e-06  1.0216831219966289e-06  1.0398086580939443e-06  1.0550415862338071e-06  1.0674519026518564e-06  1.0770949407114898e-06  1.0840058931051198e-06  1.0882140700159967e-06  1.0897437246627712e-06  1.0885605597580475e-06  1.0846640239900875e-06  1.0780427576305160e-06  1.0686552337443507e-06  1.0564426016347140e-06  1.0412979411936073e-06  1.0231552849569223e-06  1.0017872751874825e-06  9.7794209075456299e-07  9.5099560788981471e-07  9.2225747724587721e-07  8.9249793763070355e-07  8.7121186380846951e-07  8.4075346642256571e-07  8.0288483045622888e-07  7.6993249319336794e-07  7.4900040664821688e-07  7.3887264330706607e-07  7.3362283918370620e-07  1.4729979332633973e-06  1.5584930921814215e-06  7.7820453176744038e-07  8.7753543910569148e-07  1.0960853333763660e-06  1.6750402163723024e-06  3.7704219887848710e-06  2.0846794171038158e-03  4.1183596704099934e-02  7.1662736197906821e-02  1.0367644680007544e-01  1.3273426917284945e-01  1.5764841967498550e-01  1.7878091108235622e-01  1.9632979391535033e-01  2.1070679679797510e-01  2.2240227040422458e-01  2.3174924112752482e-01  2.3885429349157347e-01  2.4385088587168061e-01  2.4684697311790035e-01  2.4793682727360011e-01  2.4711997735604799e-01  2.4436427307180578e-01  2.3962800656874714e-01  2.3279657090567724e-01  2.2373188941794867e-01  2.1225530390207209e-01  1.9805592955763304e-01  1.8065869066230789e-01  1.5982433464004558e-01  1.3443824419166261e-01  1.0649089543385425e-01  7.6177117278577414e-02  4.4947060548459358e-02  4.1634811373888895e-03  3.8685653178533891e-06  1.6613066132457499e-06  1.1350433985957270e-06  8.5868651751691682e-07  7.4988776872360839e-07  1.4863053412081131e-06  1.6541917154655091e-06  1.4553011078368086e-06  1.5565464782181043e-01  4.1150353454655914e-01  5.9452930967178641e-01  7.4166040120802268e-01  8.5152329087169965e-01  9.2352242719477140e-01  9.7051508610716331e-01  9.9993787428969527e-01  9.9998305267543686e-01  9.9998984219038056e-01  9.9999237818684406e-01  9.9999369339204136e-01  9.9999448281471237e-01  9.9999499371457623e-01  9.9999533694458864e-01  9.9999556754066943e-01  9.9999571573071278e-01  9.9999579877527922e-01  9.9999582497012862e-01  9.9999579687398976e-01  9.9999571179463920e-01  9.9999556070843065e-01  9.9999532613651487e-01  9.9999497648931945e-01  9.9999445372843154e-01  9.9999364150646719e-01  9.9999227680396596e-01  9.9998959852601788e-01  9.9998215716451277e-01  9.9991953294068714e-01  9.6806750391374674e-01  9.1725764132006893e-01  8.5139154899783942e-01  7.5051813518801236e-01  5.9937929470102047e-01  4.1248768002476177e-01  1.3317021869126372e-01  1.3155191895188670e-06  1.5645007365640417e-06  9.9998822300872869e-01  9.9999008189462624e-01  9.9999852481155160e-01  9.9999897969914475e-01  9.9999908740804300e-01  9.9999914547197100e-01  9.9999917695338358e-01  9.9999919630890444e-01  9.9999921088389376e-01  9.9999922485963877e-01  9.9999924213328317e-01  9.9999926116009419e-01  9.9999927763360985e-01  9.9999929183139113e-01  9.9999930383559543e-01  9.9999931373450390e-01  9.9999932166097150e-01  9.9999932771976785e-01  9.9999933202177360e-01  9.9999933466350066e-01  9.9999933569623545e-01  9.9999933513870110e-01  9.9999933298772259e-01  9.9999932918741130e-01  9.9999932365134592e-01  9.9999931627658178e-01  9.9999930693965744e-01  9.9999929551814415e-01  9.9999928191118070e-01  9.9999926601601152e-01  9.9999924760337211e-01  9.9999922607452152e-01  9.9999920534553732e-01  9.9999918570640878e-01  9.9999915720679800e-01  9.9999911186268609e-01  9.9999904214012236e-01  9.9999890519791168e-01  9.9999852644313136e-01  9.9999691937615076e-01  4.3909318878899539e-01  9.9999961709116958e-01  9.9999975145037112e-01  9.9999972512464663e-01  9.9999969886667228e-01  9.9999967846740978e-01  9.9999966474113500e-01  9.9999965644967537e-01  9.9999965168360250e-01  9.9999964905597860e-01  9.9999964797095386e-01  9.9999964803934571e-01  9.9999964892068693e-01  9.9999965029386517e-01  9.9999965189851170e-01  9.9999965353109355e-01  9.9999965504868760e-01  9.9999965636852073e-01  9.9999965744054953e-01  9.9999965823686876e-01  9.9999965874939445e-01  9.9999965897072984e-01  9.9999965890112719e-01  9.9999965854331918e-01  9.9999965790214584e-01  9.9999965698761617e-01  9.9999965582401851e-01  9.9999965446024386e-01  9.9999965297897841e-01  9.9999965151933645e-01  9.9999965028720850e-01  9.9999964957181486e-01  9.9999964975207256e-01  9.9999965129205060e-01  9.9999965476485964e-01  9.9999966103271876e-01  9.9999967159127257e-01  9.9999968833300290e-01  9.9999971186544678e-01  9.9999973970174938e-01  9.9999976607923535e-01  9.9999943238726430e-01  9.9999981042998598e-01  9.9999989184440952e-01  9.9999986614218839e-01  9.9999983553718863e-01  9.9999980713155312e-01  9.9999978446076687e-01  9.9999976820723224e-01  9.9999975725087020e-01  9.9999975007053987e-01  9.9999974544989290e-01  9.9999974254485202e-01  9.9999974078726628e-01  9.9999973979165124e-01  9.9999973928964059e-01  9.9999973909368578e-01  9.9999973907285322e-01  9.9999973914097184e-01  9.9999973924734220e-01  9.9999973935244724e-01  9.9999973943921949e-01  9.9999973949506726e-01  9.9999973951784871e-01  9.9999973951150312e-01  9.9999973948512422e-01  9.9999973945989706e-01  9.9999973946813869e-01  9.9999973956572030e-01  9.9999973983703849e-01  9.9999974041228168e-01  9.9999974148088255e-01  9.9999974332488073e-01  9.9999974635586097e-01  9.9999975118163176e-01  9.9999975869785984e-01  9.9999977016391473e-01  9.9999978705664028e-01  9.9999981034252017e-01  9.9999983910903101e-01  9.9999986936579888e-01  9.9999989384684385e-01  9.9999977955063091e-01  9.9999983592006414e-01  9.9999991416066325e-01  9.9999989154018354e-01  9.9999986259165219e-01  9.9999983376109092e-01  9.9999980940348854e-01  9.9999979101528202e-01  9.9999977802761153e-01  9.9999976911496602e-01  9.9999976300611526e-01  9.9999975876185421e-01  9.9999975576212174e-01  9.9999975361001014e-01  9.9999975205019365e-01  9.9999975091410376e-01  9.9999975008639397e-01  9.9999974948952641e-01  9.9999974907375400e-01  9.9999974880440912e-01  9.9999974865933050e-01  9.9999974862634089e-01  9.9999974870229391e-01  9.9999974889164200e-01  9.9999974920457546e-01  9.9999974966370264e-01  9.9999975030426702e-01  9.9999975117693518e-01  9.9999975235921623e-01  9.9999975396414542e-01  9.9999975616030490e-01  9.9999975920135642e-01  9.9999976348322051e-01  9.9999976961906156e-01  9.9999977853585276e-01  9.9999979148674134e-01  9.9999980978539249e-01  9.9999983401985837e-01  9.9999986273932728e-01  9.9999989162243286e-01  9.9999991420889589e-01  9.9999983595904840e-01  9.9999977928582195e-01  9.9999989327600824e-01  9.9999986760685100e-01  9.9999983545240734e-01  9.9999980406213096e-01  9.9999977758043179e-01  9.9999975725707724e-01  9.9999974242745460e-01  9.9999973171663603e-01  9.9999972383053315e-01  9.9999971783346997e-01  9.9999971313309488e-01  9.9999970936822313e-01  9.9999970632263446e-01  9.9999970386114290e-01  9.9999970189139653e-01  9.9999970034984342e-01  9.9999969919151266e-01  9.9999969838769098e-01  9.9999969791371479e-01  9.9999969775670572e-01  9.9999969791433430e-01  9.9999969839133052e-01  9.9999969919883114e-01  9.9999970036054475e-01  9.9999970191093723e-01  9.9999970389450332e-01  9.9999970637591906e-01  9.9999970944398453e-01  9.9999971322776371e-01  9.9999971792777198e-01  9.9999972387186220e-01  9.9999973159939914e-01  9.9999974197217800e-01  9.9999975620791604e-01  9.9999977569950282e-01  9.9999980129861543e-01  9.9999983209829235e-01  9.9999986449556288e-01  9.9999989136614520e-01  9.9999981030895746e-01  9.9999943098716881e-01  9.9999976272747049e-01  9.9999973041782131e-01  9.9999969480669304e-01  9.9999966155915521e-01  9.9999963354823551e-01  9.9999961117746805e-01  9.9999959332364163e-01  9.9999957856341248e-01  9.9999956583785321e-01  9.9999955453574019e-01  9.9999954438283400e-01  9.9999953528825292e-01  9.9999952723514363e-01  9.9999952024643268e-01  9.9999951433172118e-01  9.9999950949566263e-01  9.9999950573349916e-01  9.9999950304075536e-01  9.9999950139689897e-01  9.9999950079784139e-01  9.9999950124392412e-01  9.9999950273909044e-01  9.9999950529213544e-01  9.9999950892154632e-01  9.9999951364101936e-01  9.9999951946228460e-01  9.9999952638747081e-01  9.9999953439907663e-01  9.9999954346252129e-01  9.9999955354890746e-01  9.9999956466527185e-01  9.9999957693911323e-01  9.9999959076597400e-01  9.9999960693393575e-01  9.9999962672125720e-01  9.9999965125891854e-01  9.9999968104975090e-01  9.9999971503861895e-01  9.9999974767905286e-01  9.9999961613387067e-01  4.3183114382759014e-01  9.9999649475474284e-01  9.9999831648446902e-01  9.9999872482108099e-01  9.9999884780028792e-01  9.9999888440268514e-01  9.9999888856801256e-01  9.9999887343013805e-01  9.9999884531364536e-01  9.9999880811264941e-01  9.9999876498685691e-01  9.9999871864391454e-01  9.9999867144849874e-01  9.9999862536775319e-01  9.9999858217631354e-01  9.9999854325054727e-01  9.9999850964440984e-01  9.9999848224452181e-01  9.9999846168217577e-01  9.9999844832649765e-01  9.9999844245225333e-01  9.9999844418112493e-01  9.9999845350387140e-01  9.9999847026695632e-01  9.9999849414236996e-01  9.9999852466972261e-01  9.9999856114116170e-01  9.9999860265621077e-01  9.9999864800826688e-01  9.9999869570260058e-01  9.9999874391179144e-01  9.9999879049842888e-01  9.9999883294667946e-01  9.9999886837934815e-01  9.9999889287953292e-01  9.9999890179620887e-01  9.9999887569491164e-01  9.9999878774915185e-01  9.9999823811771105e-01  9.9998108161517119e-01  9.9998744946839491e-01  1.5620074511197013e-06  1.2463663183165873e-06  9.3117145070678475e-02  3.3047675121081621e-01  4.6729582153200394e-01  5.6148925416288753e-01  6.1178404942829401e-01  6.3332659172655414e-01  6.3610219884284003e-01  6.2789753294079242e-01  6.1396954592773956e-01  5.9770430420559884e-01  5.8116317128562300e-01  5.6558943442809539e-01  5.5164408418735877e-01  5.3969205712533386e-01  5.2983992027100069e-01  5.2215550544640266e-01  5.1662142013991630e-01  5.1319072139149025e-01  5.1184077082444057e-01  5.1257422245166440e-01  5.1539357779519823e-01  5.2033507374755816e-01  5.2741049014405805e-01  5.3663796106398198e-01  5.4800573573694034e-01  5.6136258175875153e-01  5.7640862823581429e-01  5.9250036329037858e-01  6.0845547667591371e-01  6.2220977158282065e-01  6.3038507720233139e-01  6.2769129061853324e-01  6.0620433587306954e-01  5.5595759539126122e-01  4.6280182552496218e-01  3.2962855580743855e-01  1.1284499309815270e-01  1.3616583430058005e-06  1.6466241663479495e-06  1.4858809087190584e-06  7.4959419735682894e-07  8.3979305673106577e-07  1.0384606205481931e-06  1.2636966969061990e-06  1.6442917417730820e-06  2.0287785401133330e-06  2.3137865404228097e-06  2.4263690210730586e-06  2.4012070056270363e-06  2.3061158970461195e-06  2.1918523866421471e-06  2.0832810084394891e-06  1.9899832016772528e-06  1.9134774014144173e-06  1.8527224456142690e-06  1.8058916116086009e-06  1.7711486696818214e-06  1.7470979787351861e-06  1.7326264058834576e-06  1.7271415619678572e-06  1.7304131003597557e-06  1.7425997978401866e-06  1.7642644598843991e-06  1.7962625348705645e-06  1.8398950029599264e-06  1.8969333809142543e-06  1.9689191627338145e-06  2.0568148999869957e-06  2.1588739879566991e-06  2.2664628696242757e-06  2.3562523695884424e-06  2.3817409847409963e-06  2.2794851056839893e-06  2.0155192604331621e-06  1.6425858215915025e-06  1.2807948736032605e-06  1.0095375341148920e-06  8.6347830797006549e-07  7.7679563120877059e-07  1.5590403957652364e-06  1.4733933144433214e-06  7.3412407571114459e-07  7.3942607631706424e-07  7.4736768965901041e-07  7.6133747390652611e-07  7.7959819923998693e-07  7.9359845846730663e-07  8.0306553406293402e-07  8.0812836326603443e-07  8.1018835283586978e-07  8.1042935331330740e-07  8.0972124522292747e-07  8.0858519040592819e-07  8.0732784175065602e-07  8.0611875630302345e-07  8.0503015987954678e-07  8.0411028096715776e-07  8.0335746833958598e-07  8.0279189670013202e-07  8.0240154503161554e-07  8.0218664865369458e-07  8.0214470867253938e-07  8.0227021113276772e-07  8.0256916315514139e-07  8.0303279792302551e-07  8.0365525854131138e-07  8.0443361323494369e-07  8.0534612162656335e-07  8.0633709437776589e-07  8.0731623287835559e-07  8.0808545618633688e-07  8.0832410306184255e-07  8.0744977619891534e-07  8.0457924943629206e-07  7.9854231814363471e-07  7.8824468531078562e-07  7.7356137728288938e-07  7.5685404844277310e-07  7.4217682303236837e-07  7.3377768298996267e-07  1.4726626729391289e-06  1.4733737495050776e-06  7.3271106426784547e-07  7.3472170855730417e-07  7.3809099731204125e-07  7.4247961794146648e-07  7.4735257887342783e-07  7.5184532762492687e-07  7.5583966847415447e-07  7.5905396446942613e-07  7.6157408043041528e-07  7.6350130456316631e-07  7.6495931989892262e-07  7.6605624254188016e-07  7.6687463178406674e-07  7.6748867917735565e-07  7.6793985684749769e-07  7.6826810498128347e-07  7.6849508329774964e-07  7.6864538632259327e-07  7.6872663963569538e-07  7.6874899003846746e-07  7.6871432492855502e-07  7.6861743006194760e-07  7.6845351002807337e-07  7.6821009565243824e-07  7.6786805279940707e-07  7.6740103780663901e-07  7.6677141260766542e-07  7.6593769476457280e-07  7.6484077986663507e-07  7.6339868665390199e-07  7.6152613711724194e-07  7.5912562359307759e-07  7.5609709547744579e-07  7.5239667141218305e-07  7.4809594994440288e-07  7.4346926586877094e-07  7.3903653215963077e-07  7.3548035472767974e-07  7.3328179968925853e-07  1.4736385102458620e-06  1.4728484492369249e-06  7.3217414725246821e-07  7.3335607363302440e-07  7.3548310116977282e-07  7.3866104025912902e-07  7.4268369888382324e-07  7.4701343221486550e-07  7.5116523616191977e-07  7.5482778146958251e-07  7.5789433575848991e-07  7.6036256177464899e-07  7.6229509984277671e-07  7.6378450052300112e-07  7.6491529513783331e-07  7.6576985619706027e-07  7.6640377262795307e-07  7.6686407688532512e-07  7.6718833195408220e-07  7.6740360888279776e-07  7.6752704815304491e-07  7.6756379350312605e-07  7.6752073602936367e-07  7.6739514224514596e-07  7.6717671178355201e-07  7.6684227820965279e-07  7.6637552551417899e-07  7.6573907774652721e-07  7.6488112274056037e-07  7.6374507854171180e-07  7.6225763298339957e-07  7.6033773005280913e-07  7.5790441579271919e-07  7.5490169543615238e-07  7.5133144323971926e-07  7.4730385215704787e-07  7.4309077547752649e-07  7.3911646133081448e-07  7.3585932583412847e-07  7.3366626574320818e-07  7.3241980459246929e-07  1.4732526457508530e-06  1.4724053918281406e-06  7.3157748815933048e-07  7.3247396484750811e-07  7.3424406748821896e-07  7.3704325847534991e-07  7.4072298273744435e-07  7.4488698922671046e-07  7.4908249873831584e-07  7.5295959337354025e-07  7.5631021349161671e-07  7.5907571639045896e-07  7.6127704867646231e-07  7.6299085013595640e-07  7.6430315887488059e-07  7.6529196537220690e-07  7.6602784721420591e-07  7.6656185239772548e-07  7.6694010793221823e-07  7.6719013284808806e-07  7.6733317819010502e-07  7.6737890134348591e-07  7.6732931295535128e-07  7.6718520048077212e-07  7.6693663902689059e-07  7.6655429455540787e-07  7.6601358656835604e-07  7.6527742902656610e-07  7.6428832156027007e-07  7.6297640126252356e-07  7.6126456828116171e-07  7.5907158963341285e-07  7.5632705468078299e-07  7.5300817007576458e-07  7.4917599119780994e-07  7.4502571818652150e-07  7.4090060389482375e-07  7.3723591231171993e-07  7.3441299600654072e-07  7.3260405199274354e-07  7.3168819523437748e-07  1.4726813712807736e-06  1.4723278403692543e-06  7.3137835848588653e-07  7.3221160552977084e-07  7.3392194907157722e-07  7.3662265374882919e-07  7.4019073111589546e-07  7.4428245428161294e-07  7.4846819902983574e-07  7.523854958