<?xml version="1.0"?>
<VTKFile type="UnstructuredGrid"  version="0.1"  >
<UnstructuredGrid>
<Piece  NumberOfPoints="1681" NumberOfCells="3200">
<Points>
<DataArray  type="Float64"  NumberOfComponents="3"  format="ascii">0 0 0  0.025 0 0  0.05 0 0  0.075 0 0  0.1 0 0  0.125 0 0  0.15 0 0  0.175 0 0  0.2 0 0  0.225 0 0  0.25 0 0  0.275 0 0  0.3 0 0  0.325 0 0  0.35 0 0  0.375 0 0  0.4 0 0  0.425 0 0  0.45 0 0  0.475 0 0  0.5 0 0  0.525 0 0  0.55 0 0  0.575 0 0  0.6 0 0  0.625 0 0  0.65 0 0  0.675 0 0  0.7 0 0  0.725 0 0  0.75 0 0  0.775 0 0  0.8 0 0  0.825 0 0  0.85 0 0  0.875 0 0  0.9 0 0  0.925 0 0  0.95 0 0  0.975 0 0  1 0 0  0 0.025 0  0.025 0.025 0  0.05 0.025 0  0.075 0.025 0  0.1 0.025 0  0.125 0.025 0  0.15 0.025 0  0.175 0.025 0  0.2 0.025 0  0.225 0.025 0  0.25 0.025 0  0.275 0.025 0  0.3 0.025 0  0.325 0.025 0  0.35 0.025 0  0.375 0.025 0  0.4 0.025 0  0.425 0.025 0  0.45 0.025 0  0.475 0.025 0  0.5 0.025 0  0.525 0.025 0  0.55 0.025 0  0.575 0.025 0  0.6 0.025 0  0.625 0.025 0  0.65 0.025 0  0.675 0.025 0  0.7 0.025 0  0.725 0.025 0  0.75 0.025 0  0.775 0.025 0  0.8 0.025 0  0.825 0.025 0  0.85 0.025 0  0.875 0.025 0  0.9 0.025 0  0.925 0.025 0  0.95 0.025 0  0.975 0.025 0  1 0.025 0  0 0.05 0  0.025 0.05 0  0.05 0.05 0  0.075 0.05 0  0.1 0.05 0  0.125 0.05 0  0.15 0.05 0  0.175 0.05 0  0.2 0.05 0  0.225 0.05 0  0.25 0.05 0  0.275 0.05 0  0.3 0.05 0  0.325 0.05 0  0.35 0.05 0  0.375 0.05 0  0.4 0.05 0  0.425 0.05 0  0.45 0.05 0  0.475 0.05 0  0.5 0.05 0  0.525 0.05 0  0.55 0.05 0  0.575 0.05 0  0.6 0.05 0  0.625 0.05 0  0.65 0.05 0  0.675 0.05 0  0.7 0.05 0  0.725 0.05 0  0.75 0.05 0  0.775 0.05 0  0.8 0.05 0  0.825 0.05 0  0.85 0.05 0  0.875 0.05 0  0.9 0.05 0  0.925 0.05 0  0.95 0.05 0  0.975 0.05 0  1 0.05 0  0 0.075 0  0.025 0.075 0  0.05 0.075 0  0.075 0.075 0  0.1 0.075 0  0.125 0.075 0  0.15 0.075 0  0.175 0.075 0  0.2 0.075 0  0.225 0.075 0  0.25 0.075 0  0.275 0.075 0  0.3 0.075 0  0.325 0.075 0  0.35 0.075 0  0.375 0.075 0  0.4 0.075 0  0.425 0.075 0  0.45 0.075 0  0.475 0.075 0  0.5 0.075 0  0.525 0.075 0  0.55 0.075 0  0.575 0.075 0  0.6 0.075 0  0.625 0.075 0  0.65 0.075 0  0.675 0.075 0  0.7 0.075 0  0.725 0.075 0  0.75 0.075 0  0.775 0.075 0  0.8 0.075 0  0.825 0.075 0  0.85 0.075 0  0.875 0.075 0  0.9 0.075 0  0.925 0.075 0  0.95 0.075 0  0.975 0.075 0  1 0.075 0  0 0.1 0  0.025 0.1 0  0.05 0.1 0  0.075 0.1 0  0.1 0.1 0  0.125 0.1 0  0.15 0.1 0  0.175 0.1 0  0.2 0.1 0  0.225 0.1 0  0.25 0.1 0  0.275 0.1 0  0.3 0.1 0  0.325 0.1 0  0.35 0.1 0  0.375 0.1 0  0.4 0.1 0  0.425 0.1 0  0.45 0.1 0  0.475 0.1 0  0.5 0.1 0  0.525 0.1 0  0.55 0.1 0  0.575 0.1 0  0.6 0.1 0  0.625 0.1 0  0.65 0.1 0  0.675 0.1 0  0.7 0.1 0  0.725 0.1 0  0.75 0.1 0  0.775 0.1 0  0.8 0.1 0  0.825 0.1 0  0.85 0.1 0  0.875 0.1 0  0.9 0.1 0  0.925 0.1 0  0.95 0.1 0  0.975 0.1 0  1 0.1 0  0 0.125 0  0.025 0.125 0  0.05 0.125 0  0.075 0.125 0  0.1 0.125 0  0.125 0.125 0  0.15 0.125 0  0.175 0.125 0  0.2 0.125 0  0.225 0.125 0  0.25 0.125 0  0.275 0.125 0  0.3 0.125 0  0.325 0.125 0  0.35 0.125 0  0.375 0.125 0  0.4 0.125 0  0.425 0.125 0  0.45 0.125 0  0.475 0.125 0  0.5 0.125 0  0.525 0.125 0  0.55 0.125 0  0.575 0.125 0  0.6 0.125 0  0.625 0.125 0  0.65 0.125 0  0.675 0.125 0  0.7 0.125 0  0.725 0.125 0  0.75 0.125 0  0.775 0.125 0  0.8 0.125 0  0.825 0.125 0  0.85 0.125 0  0.875 0.125 0  0.9 0.125 0  0.925 0.125 0  0.95 0.125 0  0.975 0.125 0  1 0.125 0  0 0.15 0  0.025 0.15 0  0.05 0.15 0  0.075 0.15 0  0.1 0.15 0  0.125 0.15 0  0.15 0.15 0  0.175 0.15 0  0.2 0.15 0  0.225 0.15 0  0.25 0.15 0  0.275 0.15 0  0.3 0.15 0  0.325 0.15 0  0.35 0.15 0  0.375 0.15 0  0.4 0.15 0  0.425 0.15 0  0.45 0.15 0  0.475 0.15 0  0.5 0.15 0  0.525 0.15 0  0.55 0.15 0  0.575 0.15 0  0.6 0.15 0  0.625 0.15 0  0.65 0.15 0  0.675 0.15 0  0.7 0.15 0  0.725 0.15 0  0.75 0.15 0  0.775 0.15 0  0.8 0.15 0  0.825 0.15 0  0.85 0.15 0  0.875 0.15 0  0.9 0.15 0  0.925 0.15 0  0.95 0.15 0  0.975 0.15 0  1 0.15 0  0 0.175 0  0.025 0.175 0  0.05 0.175 0  0.075 0.175 0  0.1 0.175 0  0.125 0.175 0  0.15 0.175 0  0.175 0.175 0  0.2 0.175 0  0.225 0.175 0  0.25 0.175 0  0.275 0.175 0  0.3 0.175 0  0.325 0.175 0  0.35 0.175 0  0.375 0.175 0  0.4 0.175 0  0.425 0.175 0  0.45 0.175 0  0.475 0.175 0  0.5 0.175 0  0.525 0.175 0  0.55 0.175 0  0.575 0.175 0  0.6 0.175 0  0.625 0.175 0  0.65 0.175 0  0.675 0.175 0  0.7 0.175 0  0.725 0.175 0  0.75 0.175 0  0.775 0.175 0  0.8 0.175 0  0.825 0.175 0  0.85 0.175 0  0.875 0.175 0  0.9 0.175 0  0.925 0.175 0  0.95 0.175 0  0.975 0.175 0  1 0.175 0  0 0.2 0  0.025 0.2 0  0.05 0.2 0  0.075 0.2 0  0.1 0.2 0  0.125 0.2 0  0.15 0.2 0  0.175 0.2 0  0.2 0.2 0  0.225 0.2 0  0.25 0.2 0  0.275 0.2 0  0.3 0.2 0  0.325 0.2 0  0.35 0.2 0  0.375 0.2 0  0.4 0.2 0  0.425 0.2 0  0.45 0.2 0  0.475 0.2 0  0.5 0.2 0  0.525 0.2 0  0.55 0.2 0  0.575 0.2 0  0.6 0.2 0  0.625 0.2 0  0.65 0.2 0  0.675 0.2 0  0.7 0.2 0  0.725 0.2 0  0.75 0.2 0  0.775 0.2 0  0.8 0.2 0  0.825 0.2 0  0.85 0.2 0  0.875 0.2 0  0.9 0.2 0  0.925 0.2 0  0.95 0.2 0  0.975 0.2 0  1 0.2 0  0 0.225 0  0.025 0.225 0  0.05 0.225 0  0.075 0.225 0  0.1 0.225 0  0.125 0.225 0  0.15 0.225 0  0.175 0.225 0  0.2 0.225 0  0.225 0.225 0  0.25 0.225 0  0.275 0.225 0  0.3 0.225 0  0.325 0.225 0  0.35 0.225 0  0.375 0.225 0  0.4 0.225 0  0.425 0.225 0  0.45 0.225 0  0.475 0.225 0  0.5 0.225 0  0.525 0.225 0  0.55 0.225 0  0.575 0.225 0  0.6 0.225 0  0.625 0.225 0  0.65 0.225 0  0.675 0.225 0  0.7 0.225 0  0.725 0.225 0  0.75 0.225 0  0.775 0.225 0  0.8 0.225 0  0.825 0.225 0  0.85 0.225 0  0.875 0.225 0  0.9 0.225 0  0.925 0.225 0  0.95 0.225 0  0.975 0.225 0  1 0.225 0  0 0.25 0  0.025 0.25 0  0.05 0.25 0  0.075 0.25 0  0.1 0.25 0  0.125 0.25 0  0.15 0.25 0  0.175 0.25 0  0.2 0.25 0  0.225 0.25 0  0.25 0.25 0  0.275 0.25 0  0.3 0.25 0  0.325 0.25 0  0.35 0.25 0  0.375 0.25 0  0.4 0.25 0  0.425 0.25 0  0.45 0.25 0  0.475 0.25 0  0.5 0.25 0  0.525 0.25 0  0.55 0.25 0  0.575 0.25 0  0.6 0.25 0  0.625 0.25 0  0.65 0.25 0  0.675 0.25 0  0.7 0.25 0  0.725 0.25 0  0.75 0.25 0  0.775 0.25 0  0.8 0.25 0  0.825 0.25 0  0.85 0.25 0  0.875 0.25 0  0.9 0.25 0  0.925 0.25 0  0.95 0.25 0  0.975 0.25 0  1 0.25 0  0 0.275 0  0.025 0.275 0  0.05 0.275 0  0.075 0.275 0  0.1 0.275 0  0.125 0.275 0  0.15 0.275 0  0.175 0.275 0  0.2 0.275 0  0.225 0.275 0  0.25 0.275 0  0.275 0.275 0  0.3 0.275 0  0.325 0.275 0  0.35 0.275 0  0.375 0.275 0  0.4 0.275 0  0.425 0.275 0  0.45 0.275 0  0.475 0.275 0  0.5 0.275 0  0.525 0.275 0  0.55 0.275 0  0.575 0.275 0  0.6 0.275 0  0.625 0.275 0  0.65 0.275 0  0.675 0.275 0  0.7 0.275 0  0.725 0.275 0  0.75 0.275 0  0.775 0.275 0  0.8 0.275 0  0.825 0.275 0  0.85 0.275 0  0.875 0.275 0  0.9 0.275 0  0.925 0.275 0  0.95 0.275 0  0.975 0.275 0  1 0.275 0  0 0.3 0  0.025 0.3 0  0.05 0.3 0  0.075 0.3 0  0.1 0.3 0  0.125 0.3 0  0.15 0.3 0  0.175 0.3 0  0.2 0.3 0  0.225 0.3 0  0.25 0.3 0  0.275 0.3 0  0.3 0.3 0  0.325 0.3 0  0.35 0.3 0  0.375 0.3 0  0.4 0.3 0  0.425 0.3 0  0.45 0.3 0  0.475 0.3 0  0.5 0.3 0  0.525 0.3 0  0.55 0.3 0  0.575 0.3 0  0.6 0.3 0  0.625 0.3 0  0.65 0.3 0  0.675 0.3 0  0.7 0.3 0  0.725 0.3 0  0.75 0.3 0  0.775 0.3 0  0.8 0.3 0  0.825 0.3 0  0.85 0.3 0  0.875 0.3 0  0.9 0.3 0  0.925 0.3 0  0.95 0.3 0  0.975 0.3 0  1 0.3 0  0 0.325 0  0.025 0.325 0  0.05 0.325 0  0.075 0.325 0  0.1 0.325 0  0.125 0.325 0  0.15 0.325 0  0.175 0.325 0  0.2 0.325 0  0.225 0.325 0  0.25 0.325 0  0.275 0.325 0  0.3 0.325 0  0.325 0.325 0  0.35 0.325 0  0.375 0.325 0  0.4 0.325 0  0.425 0.325 0  0.45 0.325 0  0.475 0.325 0  0.5 0.325 0  0.525 0.325 0  0.55 0.325 0  0.575 0.325 0  0.6 0.325 0  0.625 0.325 0  0.65 0.325 0  0.675 0.325 0  0.7 0.325 0  0.725 0.325 0  0.75 0.325 0  0.775 0.325 0  0.8 0.325 0  0.825 0.325 0  0.85 0.325 0  0.875 0.325 0  0.9 0.325 0  0.925 0.325 0  0.95 0.325 0  0.975 0.325 0  1 0.325 0  0 0.35 0  0.025 0.35 0  0.05 0.35 0  0.075 0.35 0  0.1 0.35 0  0.125 0.35 0  0.15 0.35 0  0.175 0.35 0  0.2 0.35 0  0.225 0.35 0  0.25 0.35 0  0.275 0.35 0  0.3 0.35 0  0.325 0.35 0  0.35 0.35 0  0.375 0.35 0  0.4 0.35 0  0.425 0.35 0  0.45 0.35 0  0.475 0.35 0  0.5 0.35 0  0.525 0.35 0  0.55 0.35 0  0.575 0.35 0  0.6 0.35 0  0.625 0.35 0  0.65 0.35 0  0.675 0.35 0  0.7 0.35 0  0.725 0.35 0  0.75 0.35 0  0.775 0.35 0  0.8 0.35 0  0.825 0.35 0  0.85 0.35 0  0.875 0.35 0  0.9 0.35 0  0.925 0.35 0  0.95 0.35 0  0.975 0.35 0  1 0.35 0  0 0.375 0  0.025 0.375 0  0.05 0.375 0  0.075 0.375 0  0.1 0.375 0  0.125 0.375 0  0.15 0.375 0  0.175 0.375 0  0.2 0.375 0  0.225 0.375 0  0.25 0.375 0  0.275 0.375 0  0.3 0.375 0  0.325 0.375 0  0.35 0.375 0  0.375 0.375 0  0.4 0.375 0  0.425 0.375 0  0.45 0.375 0  0.475 0.375 0  0.5 0.375 0  0.525 0.375 0  0.55 0.375 0  0.575 0.375 0  0.6 0.375 0  0.625 0.375 0  0.65 0.375 0  0.675 0.375 0  0.7 0.375 0  0.725 0.375 0  0.75 0.375 0  0.775 0.375 0  0.8 0.375 0  0.825 0.375 0  0.85 0.375 0  0.875 0.375 0  0.9 0.375 0  0.925 0.375 0  0.95 0.375 0  0.975 0.375 0  1 0.375 0  0 0.4 0  0.025 0.4 0  0.05 0.4 0  0.075 0.4 0  0.1 0.4 0  0.125 0.4 0  0.15 0.4 0  0.175 0.4 0  0.2 0.4 0  0.225 0.4 0  0.25 0.4 0  0.275 0.4 0  0.3 0.4 0  0.325 0.4 0  0.35 0.4 0  0.375 0.4 0  0.4 0.4 0  0.425 0.4 0  0.45 0.4 0  0.475 0.4 0  0.5 0.4 0  0.525 0.4 0  0.55 0.4 0  0.575 0.4 0  0.6 0.4 0  0.625 0.4 0  0.65 0.4 0  0.675 0.4 0  0.7 0.4 0  0.725 0.4 0  0.75 0.4 0  0.775 0.4 0  0.8 0.4 0  0.825 0.4 0  0.85 0.4 0  0.875 0.4 0  0.9 0.4 0  0.925 0.4 0  0.95 0.4 0  0.975 0.4 0  1 0.4 0  0 0.425 0  0.025 0.425 0  0.05 0.425 0  0.075 0.425 0  0.1 0.425 0  0.125 0.425 0  0.15 0.425 0  0.175 0.425 0  0.2 0.425 0  0.225 0.425 0  0.25 0.425 0  0.275 0.425 0  0.3 0.425 0  0.325 0.425 0  0.35 0.425 0  0.375 0.425 0  0.4 0.425 0  0.425 0.425 0  0.45 0.425 0  0.475 0.425 0  0.5 0.425 0  0.525 0.425 0  0.55 0.425 0  0.575 0.425 0  0.6 0.425 0  0.625 0.425 0  0.65 0.425 0  0.675 0.425 0  0.7 0.425 0  0.725 0.425 0  0.75 0.425 0  0.775 0.425 0  0.8 0.425 0  0.825 0.425 0  0.85 0.425 0  0.875 0.425 0  0.9 0.425 0  0.925 0.425 0  0.95 0.425 0  0.975 0.425 0  1 0.425 0  0 0.45 0  0.02
[...]
<PointData  Scalars="ControlVisualisation"> 
<DataArray  type="Float64"  Name="ControlVisualisation"  format="ascii">3.7321535021054314e-07  2.4550391883069288e-07  2.4560715467908552e-07  2.4582685126807903e-07  2.4617444944312696e-07  2.4661887777980010e-07  2.4710718980519446e-07  2.4759185338394088e-07  2.4803992907529980e-07  2.4843141788872980e-07  2.4875731411003367e-07  2.4901776075130231e-07  2.4921914182709566e-07  2.4937082661393906e-07  2.4948264050410915e-07  2.4956340386050890e-07  2.4962032272992189e-07  2.4965888745773540e-07  2.4968300537410252e-07  2.4969519688914971e-07  2.4969676549576143e-07  2.4968789957168653e-07  2.4966768985576281e-07  2.4963406184326043e-07  2.4958363530703281e-07  2.4951154553739032e-07  2.4941130101514946e-07  2.4927481906725496e-07  2.4909286502959695e-07  2.4885619772069151e-07  2.4855767283665745e-07  2.4819492221519874e-07  2.4777314659574541e-07  2.4730707625811581e-07  2.4682163875653160e-07  2.4635503957814906e-07  2.4596104689623539e-07  2.4568653264510690e-07  2.4553851310293707e-07  2.4548197039190224e-07  7.5643363914319592e-07  2.4549787630906442e-07  1.1777811544009609e-07  1.1788278165945321e-07  1.1811454608320675e-07  1.1849255707270106e-07  1.1898505404072294e-07  1.1953466025269645e-07  1.2008976130662425e-07  1.2061163465844950e-07  1.2107399551635351e-07  1.2146305100435664e-07  1.2177653827201877e-07  1.2202051955440086e-07  1.2220531353854429e-07  1.2234224770020896e-07  1.2244172455082707e-07  1.2251236912779665e-07  1.2256083604141533e-07  1.2259193400804797e-07  1.2260885078515494e-07  1.2261336174072944e-07  1.2260596685960272e-07  1.2258593271902925e-07  1.2255123563085789e-07  1.2249841414170703e-07  1.2242236088851786e-07  1.2231612230543620e-07  1.2217084462890561e-07  1.2197610331130844e-07  1.2172098367011262e-07  1.2139626764834303e-07  1.2099777134662740e-07  1.2053050832812706e-07  1.2000988088511162e-07  1.1946044612116890e-07  1.1891639716530974e-07  1.1843232753579632e-07  1.1807261588013322e-07  1.1786240502560589e-07  1.1777037495541044e-07  2.4548117669167173e-07  2.4553501798801109e-07  1.1783827234913561e-07  1.1800483909646369e-07  1.1834090523858249e-07  1.1884729549564452e-07  1.1944197341186921e-07  1.2007424864226770e-07  1.2070752973396801e-07  1.2130275474083653e-07  1.2182717414534232e-07  1.2226333318283699e-07  1.2261041385870244e-07  1.2287783885381042e-07  1.2307911202632509e-07  1.2322785381498156e-07  1.2333593608037815e-07  1.2341287111310302e-07  1.2346583423100313e-07  1.2349993693413445e-07  1.2351854359234734e-07  1.2352353183817212e-07  1.2351545680251109e-07  1.2349360167659180e-07  1.2345591234675400e-07  1.2339881939223299e-07  1.2331696450154416e-07  1.2320288195929651e-07  1.2304675273204407e-07  1.2283648101180518e-07  1.2255856268117196e-07  1.2220038526380578e-07  1.2175507938742881e-07  1.2122781160968360e-07  1.2063656689375228e-07  1.2001469874185755e-07  1.1938586000869604e-07  1.1877924979800582e-07  1.1828715309975063e-07  1.1797218224345289e-07  1.1782216976578375e-07  2.4551572070628051e-07  2.4552585289891053e-07  1.1790231458719177e-07  1.1824996209212979e-07  1.1888987047632725e-07  1.1965144743602532e-07  1.2043027222891003e-07  1.2136807157473218e-07  1.2240982882318437e-07  1.2345661505601548e-07  1.2440704474520308e-07  1.2522198834011638e-07  1.2589901257803421e-07  1.2645294644891366e-07  1.2690203397031872e-07  1.2726277992012711e-07  1.2754838424884440e-07  1.2776875315608624e-07  1.2793100146802775e-07  1.2804002022900099e-07  1.2809894445718606e-07  1.2810947607422008e-07  1.2807206549370055e-07  1.2798595667716302e-07  1.2784909637402270e-07  1.2765789751401484e-07  1.2740683930644574e-07  1.2708790705967886e-07  1.2668995651873585e-07  1.2619829693869241e-07  1.2559512166591628e-07  1.2486237928892238e-07  1.2399134138736459e-07  1.2300060136561294e-07  1.2197187742477602e-07  1.2105711359357550e-07  1.2030876337590982e-07  1.1951986490315710e-07  1.1873541604603583e-07  1.1814868913160011e-07  1.1784482837067948e-07  2.4554059351221612e-07  2.4548955421722280e-07  1.1814944465222011e-07  1.2019190661867331e-07  1.2601588288697074e-07  1.3407729391486715e-07  1.4061329114151931e-07  1.4807689476409264e-07  1.5821685280593090e-07  1.6917577947476170e-07  1.8023782253287115e-07  1.9079450904666299e-07  2.0063456469573513e-07  2.0965657902513175e-07  2.1781462046726037e-07  2.2506847859719052e-07  2.3137065586473655e-07  2.3666467548319558e-07  2.4089046567622502e-07  2.4399147085954187e-07  2.4592112223996567e-07  2.4664768412909753e-07  2.4615718383160681e-07  2.4445435896425037e-07  2.4156162221723299e-07  2.3751602862952237e-07  2.3236420348474679e-07  2.2615545362267695e-07  2.1893442925328063e-07  2.1073647907044874e-07  2.0158933125191295e-07  1.9153095856311209e-07  1.8066647575070769e-07  1.6929768308366430e-07  1.5816904496220819e-07  1.4826072074959303e-07  1.3851767654822994e-07  1.2794566700816162e-07  1.2144602117843473e-07  1.1891039292748623e-07  1.1807109921806547e-07  2.4549077321427155e-07  2.6432147825388811e-07  1.2631588123067947e-07  1.4709889998845986e-07  2.2116851754690716e-07  6.4711878672935178e-07  4.0116007671608500e-02  1.1855061515068745e-01  1.8175550515484440e-01  2.3756795498910882e-01  2.8307368250235426e-01  3.2054088150155696e-01  3.5130728747312934e-01  3.7670566769080993e-01  3.9767916143722226e-01  4.1491639002184116e-01  4.2890955104494349e-01  4.4001021744535912e-01  4.4846733605900324e-01  4.5445361126865758e-01  4.5808234926665226e-01  4.5941771375740026e-01  4.5848015783522938e-01  4.5524786343763252e-01  4.4965443576122455e-01  4.4158253561888683e-01  4.3085236146245570e-01  4.1720290851432490e-01  4.0026333234991979e-01  3.7951268055497006e-01  3.5422569166760615e-01  3.2340189690431287e-01  2.8567569969931883e-01  2.3932163973223464e-01  1.8265031136891449e-01  1.1492386038105531e-01  4.1618540143656166e-02  6.7438099030822409e-07  2.3051044442379709e-07  1.4710866549985521e-07  1.2187280765567556e-07  2.4911595327431758e-07  2.8696059620075386e-07  3.1828697557225944e-07  2.6789228619226407e-01  5.7546632178669777e-01  8.0922553296069399e-01  9.9665470562368197e-01  9.9999873397198613e-01  9.9999930116475477e-01  9.9999947600927308e-01  9.9999956004987056e-01  9.9999961073319077e-01  9.9999964448453327e-01  9.9999966843346144e-01  9.9999968603710387e-01  9.9999969922375476e-01  9.9999970915159897e-01  9.9999971655483855e-01  9.9999972191094333e-01  9.9999972553051208e-01  9.9999972760742095e-01  9.9999972824674521e-01  9.9999972747867683e-01  9.9999972526201897e-01  9.9999972147807248e-01  9.9999971591335757e-01  9.9999970822654849e-01  9.9999969788966403e-01  9.9999968408263329e-01  9.9999966549544317e-01  9.9999963992700236e-01  9.9999960337579574e-01  9.9999954765036636e-01  9.9999945264026480e-01  9.9999925128594380e-01  9.9999853586639464e-01  9.8606898548705268e-01  8.1676942025954280e-01  5.8406034628596648e-01  2.4125496242985578e-01  2.5867879844595387e-07  2.6296386550415249e-07  9.9999932867119212e-01  9.9999962803521358e-01  9.9999985775650102e-01  9.9999988894874248e-01  9.9999989745008799e-01  9.9999990098931546e-01  9.9999990451705878e-01  9.9999990889128421e-01  9.9999991200162808e-01  9.9999991448498859e-01  9.9999991659848142e-01  9.9999991841801705e-01  9.9999991997605964e-01  9.9999992129228965e-01  9.9999992238661872e-01  9.9999992327876785e-01  9.9999992398703286e-01  9.9999992452703756e-01  9.9999992491111334e-01  9.9999992514810687e-01  9.9999992524339931e-01  9.9999992519896508e-01  9.9999992501337920e-01  9.9999992468173837e-01  9.9999992419554140e-01  9.9999992354263645e-01  9.9999992270745020e-01  9.9999992167179896e-01  9.9999992041658747e-01  9.9999991892428275e-01  9.9999991718043579e-01  9.9999991516754239e-01  9.9999991283219325e-01  9.9999990998047061e-01  9.9999990603803146e-01  9.9999989992778016e-01  9.9999989237672782e-01  9.9999988069193957e-01  9.9999985105494182e-01  9.9999974500449562e-01  5.8040211255990304e-01  9.9999995680268627e-01  9.9999997547968533e-01  9.9999997197272672e-01  9.9999996824125625e-01  9.9999996520721990e-01  9.9999996298982852e-01  9.9999996145833681e-01  9.9999996045251593e-01  9.9999995985305123e-01  9.9999995956174825e-01  9.9999995948251719e-01  9.9999995953363474e-01  9.9999995965405719e-01  9.9999995980255074e-01  9.9999995995388624e-01  9.9999996009360592e-01  9.9999996021403070e-01  9.9999996031138028e-01  9.9999996038397609e-01  9.9999996043118278e-01  9.9999996045283157e-01  9.9999996044893746e-01  9.9999996041960926e-01  9.9999996036511785e-01  9.9999996028616200e-01  9.9999996018443960e-01  9.9999996006372638e-01  9.9999995993176449e-01  9.9999995980334178e-01  9.9999995970489430e-01  9.9999995968054123e-01  9.9999995979831391e-01  9.9999996015338899e-01  9.9999996086405429e-01  9.9999996206280639e-01  9.9999996389485180e-01  9.9999996650743250e-01  9.9999996993748907e-01  9.9999997384747186e-01  9.9999997737905888e-01  9.9999993184327551e-01  9.9999998234543741e-01  9.9999999364006098e-01  9.9999999001177353e-01  9.9999998560879466e-01  9.9999998143177726e-01  9.9999997800704277e-01  9.9999997546528530e-01  9.9999997368932680e-01  9.9999997249713812e-01  9.9999997172130528e-01  9.9999997122933271e-01  9.9999997092420501e-01  9.9999997073834168e-01  9.9999997062694057e-01  9.9999997056136436e-01  9.9999997052375489e-01  9.9999997050316636e-01  9.9999997049294509e-01  9.9999997048909761e-01  9.9999997048931100e-01  9.9999997049239786e-01  9.9999997049801825e-01  9.9999997050659328e-01  9.9999997051938849e-01  9.9999997053879119e-01  9.9999997056886336e-01  9.9999997061632173e-01  9.9999997069218594e-01  9.9999997081443126e-01  9.9999997101205429e-01  9.9999997133087160e-01  9.9999997184099665e-01  9.9999997264492801e-01  9.9999997388323691e-01  9.9999997573112320e-01  9.9999997836658838e-01  9.9999998187991579e-01  9.9999998610554452e-01  9.9999999045862409e-01  9.9999999392145755e-01  9.9999997819036890e-01  9.9999998580385474e-01  9.9999999665347505e-01  9.9999999341804935e-01  9.9999998921654887e-01  9.9999998495939590e-01  9.9999998129408996e-01  9.9999997846715749e-01  9.9999997642537386e-01  9.9999997499855453e-01  9.9999997401128538e-01  9.9999997332511392e-01  9.9999997284186271e-01  9.9999997249548811e-01  9.9999997224290116e-01  9.9999997205635560e-01  9.9999997191801016e-01  9.9999997181630473e-01  9.9999997174369837e-01  9.9999997169531085e-01  9.9999997166811250e-01  9.9999997166046128e-01  9.9999997167186427e-01  9.9999997170290877e-01  9.9999997175534372e-01  9.9999997183232670e-01  9.9999997193889079e-01  9.9999997208273583e-01  9.9999997227553084e-01  9.9999997253504569e-01  9.9999997288856513e-01  9.9999997337820057e-01  9.9999997406864505e-01  9.9999997505704985e-01  9.9999997648187200e-01  9.9999997851882316e-01  9.9999998133765411e-01  9.9999998499138654e-01  9.9999998923642897e-01  9.9999999342975177e-01  9.9999999666040562e-01  9.9999998580942928e-01  9.9999997815270325e-01  9.9999999383984162e-01  9.9999999020552166e-01  9.9999998558119196e-01  9.9999998100075738e-01  9.9999997709083099e-01  9.9999997405535557e-01  9.9999997181278422e-01  9.9999997017731668e-01  9.9999996897198384e-01  9.9999996806502056e-01  9.9999996736686869e-01  9.9999996681921788e-01  9.9999996638479061e-01  9.9999996603948482e-01  9.9999996576712635e-01  9.9999996555643977e-01  9.9999996539944380e-01  9.9999996529057578e-01  9.9999996522617762e-01  9.9999996520418810e-01  9.9999996522397916e-01  9.9999996528631530e-01  9.9999996539342839e-01  9.9999996554920967e-01  9.9999996575953509e-01  9.9999996603275332e-01  9.9999996638045796e-01  9.9999996681876668e-01  9.9999996737060493e-01  9.9999996806987579e-01  9.9999996896853749e-01  9.9999997014742203e-01  9.9999997172980737e-01  9.9999997388680184e-01  9.9999997680945352e-01  9.9999998060553941e-01  9.9999998511276100e-01  9.9999998977436677e-01  9.9999999357151415e-01  9.9999998232812715e-01  9.9999993166145495e-01  9.9999997693120835e-01  9.9999997260657780e-01  9.9999996766450083e-01  9.9999996302710370e-01  9.9999995916144180e-01  9.9999995610688652e-01  9.9999995368452355e-01  9.9999995170005396e-01  9.9999995002533948e-01  9.9999994858662045e-01  9.9999994733948916e-01  9.9999994625843858e-01  9.9999994532986980e-01  9.9999994454498875e-01  9.9999994389587821e-01  9.9999994337485576e-01  9.9999994297498973e-01  9.9999994269061998e-01  9.9999994251763968e-01  9.9999994245360713e-01  9.9999994249778656e-01  9.9999994265118541e-01  9.9999994291660643e-01  9.9999994329869069e-01  9.9999994380387536e-01  9.9999994444011409e-01  9.9999994521633029e-01  9.9999994614133891e-01  9.9999994722307062e-01  9.9999994846863016e-01  9.9999994988734886e-01  9.9999995149814458e-01  9.9999995334758929e-01  9.9999995553797905e-01  9.9999995824803223e-01  9.9999996167028582e-01  9.9999996587108775e-01  9.9999997062826729e-01  9.9999997497661763e-01  9.9999995667188779e-01  5.7049509154313338e-01  9.9999972471009480e-01  9.9999983529393799e-01  9.9999986429527410e-01  9.9999987346087449e-01  9.9999987615560282e-01  9.9999987621110864e-01  9.9999987461758100e-01  9.9999987188236206e-01  9.9999986847054345e-01  9.9999986480070713e-01  9.9999986109535022e-01  9.9999985749351084e-01  9.9999985413223447e-01  9.9999985110996048e-01  9.9999984848576262e-01  9.9999984629045147e-01  9.9999984454014412e-01  9.9999984324352442e-01  9.9999984240532158e-01  9.9999984202829062e-01  9.9999984211431270e-01  9.9999984266493769e-01  9.9999984368153516e-01  9.9999984516516160e-01  9.9999984711565915e-01  9.9999984952847154e-01  9.9999985239007172e-01  9.9999985566589367e-01  9.9999985930249591e-01  9.9999986319482659e-01  9.9999986718200407e-01  9.9999987104684840e-01  9.9999987447840955e-01  9.9999987707144156e-01  9.9999987837727811e-01  9.9999987716147642e-01  9.9999987111317745e-01  9.9999983700922279e-01  9.9999956610570095e-01  9.9999930991260511e-01  2.6225459115607401e-07  2.3703709172529715e-07  1.8855816282710705e-01  4.7818775145842313e-01  6.5446218570051129e-01  7.7163384185022199e-01  8.3573625750157399e-01  8.6457345124873786e-01  8.7079487628825780e-01  8.6576682650866654e-01  8.5450558815880528e-01  8.3986693977527394e-01  8.2494995857944686e-01  8.1082656039518997e-01  7.9817572450678820e-01  7.8727551843650179e-01  7.7826971329454053e-01  7.7120645004273991e-01  7.6608873607045969e-01  7.6290684726130342e-01  7.6165013044212027e-01  7.6231346832689617e-01  7.6489952547778894e-01  7.6941705936003868e-01  7.7587558067941864e-01  7.8427108043890470e-01  7.9455797353999946e-01  8.0661406249637979e-01  8.2011985155120581e-01  8.3452922253561879e-01  8.4860300666817934e-01  8.6028367784112647e-01  8.6562940431429147e-01  8.5838083746309901e-01  8.2901211108298822e-01  7.6419088294387105e-01  6.4715892039673739e-01  4.7306796480241187e-01  2.1183605447557674e-01  2.8399505100713890e-07  2.8472785578998172e-07  2.4902330863599524e-07  1.2163316467051943e-07  1.4144201789946046e-07  1.9178718175672271e-07  2.8909531548341871e-07  5.5860901256078686e-07  1.3922139416772929e-06  6.6896334795197211e-06  1.7921868430042470e-03  2.0213475360351223e-03  6.6573870693315584e-05  7.2062877540958615e-06  3.2642050898616059e-06  2.1441592958318867e-06  1.6375044099461100e-06  1.3598970859071026e-06  1.1928865385399800e-06  1.0882645426164451e-06  1.0234614200170129e-06  9.8715469395029762e-07  9.7381662430665859e-07  9.8154836541617254e-07  1.0114081420148951e-06  1.0677574687151021e-06  1.1598468435314485e-06  1.3058009057716534e-06  1.5425725277281426e-06  1.9537492120320558e-06  2.7657911371667700e-06  4.8198580237890706e-06  1.3233350623067306e-05  2.3792503652741504e-04  5.3258835282530856e-05  4.4321193977312023e-06  1.2788630225597544e-06  5.4678199268025841e-07  2.9145729392462664e-07  1.8592222056906156e-07  1.4317301657573032e-07  1.2580748469543138e-07  2.6434333836742530e-07  2.4551210289656493e-07  1.1809488405565561e-07  1.1889084906222747e-07  1.2069090334835630e-07  1.2431491696995958e-07  1.2905325190274749e-07  1.3292774790573375e-07  1.3558131898231225e-07  1.3692100477461618e-07  1.3734096208745814e-07  1.3752581001852430e-07  1.3745937089294344e-07  1.3706603356381833e-07  1.3667696307830158e-07  1.3631464578300930e-07  1.3599233044304910e-07  1.3571872431530265e-07  1.3549749448319302e-07  1.3532982260085724e-07  1.3521566714570226e-07  1.3515449323231304e-07  1.3514569248721934e-07  1.3518874378630902e-07  1.3528315422683565e-07  1.3542818003602310e-07  1.3562225739320365e-07  1.3586193594194167e-07  1.3613996528145098e-07  1.3644201822117622e-07  1.3674032989308319e-07  1.3698231172258006e-07  1.3703732352593180e-07  1.3679640400226148e-07  1.3605878044847275e-07  1.3442042228047029e-07  1.3160579306469146e-07  1.2764975951465257e-07  1.2327368538730610e-07  1.1974450290476686e-07  1.1812374954043186e-07  2.4546777914751802e-07  2.4556703396425821e-07  1.1787607689173158e-07  1.1818453217699209e-07  1.1874365537583032e-07  1.1949889997039171e-07  1.2032974428547754e-07  1.2110595139624279e-07  1.2177849312663845e-07  1.2230448488449408e-07  1.2271651614279815e-07  1.2305695782558265e-07  1.2331491062106402e-07  1.2348282436215242e-07  1.2360529992413952e-07  1.2369268189589799e-07  1.2375522780434811e-07  1.2379909809346711e-07  1.2382879377129450e-07  1.2384751751378793e-07  1.2385738625257886e-07  1.2385958983470908e-07  1.2385447750343337e-07  1.2384158336251406e-07  1.2381958888626235e-07  1.2378622116878468e-07  1.2373808432521915e-07  1.2367041783035233e-07  1.2357677645248172e-07  1.2344859355224191e-07  1.2327459997957579e-07  1.2304025780939157e-07  1.2272967348275917e-07  1.2232848962615204e-07  1.2182506103806241e-07  1.2120160874152534e-07  1.2046947057759420e-07  1.1967668580838221e-07  1.1891558678642431e-07  1.1830879624111840e-07  1.1795621265764873e-07  2.4556572158721097e-07  2.4553534501440566e-07  1.1784909414233323e-07  1.1801009777813699e-07  1.1833045922482345e-07  1.1883591412237400e-07  1.1949403358113039e-07  1.2021111625751600e-07  1.2089898995819656e-07  1.2150439404284105e-07  1.2201257782638903e-07  1.2242734435583218e-07  1.2275174440542113e-07  1.2299439603279508e-07  1.2317432902287644e-07  1.2330571420074125e-07  1.2340104176982197e-07  1.2346895392801702e-07  1.2351586861113218e-07  1.2354629284608267e-07  1.2356320541427549e-07  1.2356829025115343e-07  1.2356206686934904e-07  1.2354393147099971e-07  1.2351210958233213e-07  1.2346352178233041e-07  1.2339356762661839e-07  1.2329584554060765e-07  1.2316184832738470e-07  1.2298073700012598e-07  1.2273943346467596e-07  1.2242357395889985e-07  1.2201989822763471e-07  1.2152025297396592e-07  1.2092638221929666e-07  1.2025759625556414e-07  1.1956232958865746e-07  1.1891533498206365e-07  1.1839764071994390e-07  1.1806170488116266e-07  1.1788344788701652e-07  2.4557300783541626e-07  2.4548998511050049e-07  1.1778886055238275e-07  1.1790512067861156e-07  1.1815640746961263e-07  1.1858164681271168e-07  1.1916619289515780e-07  1.1984499614310647e-07  1.2053845893517574e-07  1.2118262585042306e-07  1.2174127054760016e-07  1.2220287022168907e-07  1.2256986530508518e-07  1.2285212576842313e-07  1.2306397526893183e-07  1.2322046680337039e-07  1.2333439914742093e-07  1.2341576533662102e-07  1.2347209719128203e-07  1.2350875228350539e-07  1.2352929255545006e-07  1.2353574125496175e-07  1.2352874122188807e-07  1.2350760663730250e-07  1.2347027053447727e-07  1.2341313053316205e-07  1.2333080508512429e-07  1.2321583909107789e-07  1.2305843288455129e-07  1.2284642888234869e-07  1.2256586710067670e-07  1.2220263446108050e-07  1.2174564788338302e-07  1.2119197184991711e-07  1.2055414853664597e-07  1.1986829631007384e-07  1.1919659997470332e-07  1.1861519946768220e-07  1.1818572392456510e-07  1.1792641371402912e-07  1.1780422441615730e-07  2.4552231267641665e-07  2.4548183281971764e-07  1.1776714471272075e-07  1.1787530442883935e-07  1.1811482214285359e-07  1.1851926293322837e-07  1.1908004232990475e-07  1.1974319373311520e-07  1.2043358930123922e-07  1.210850964