<?xml version="1.0"?>
<VTKFile type="UnstructuredGrid"  version="0.1"  >
<UnstructuredGrid>
<Piece  NumberOfPoints="1681" NumberOfCells="3200">
<Points>
<DataArray  type="Float64"  NumberOfComponents="3"  format="ascii">0 0 0  0.025 0 0  0.05 0 0  0.075 0 0  0.1 0 0  0.125 0 0  0.15 0 0  0.175 0 0  0.2 0 0  0.225 0 0  0.25 0 0  0.275 0 0  0.3 0 0  0.325 0 0  0.35 0 0  0.375 0 0  0.4 0 0  0.425 0 0  0.45 0 0  0.475 0 0  0.5 0 0  0.525 0 0  0.55 0 0  0.575 0 0  0.6 0 0  0.625 0 0  0.65 0 0  0.675 0 0  0.7 0 0  0.725 0 0  0.75 0 0  0.775 0 0  0.8 0 0  0.825 0 0  0.85 0 0  0.875 0 0  0.9 0 0  0.925 0 0  0.95 0 0  0.975 0 0  1 0 0  0 0.025 0  0.025 0.025 0  0.05 0.025 0  0.075 0.025 0  0.1 0.025 0  0.125 0.025 0  0.15 0.025 0  0.175 0.025 0  0.2 0.025 0  0.225 0.025 0  0.25 0.025 0  0.275 0.025 0  0.3 0.025 0  0.325 0.025 0  0.35 0.025 0  0.375 0.025 0  0.4 0.025 0  0.425 0.025 0  0.45 0.025 0  0.475 0.025 0  0.5 0.025 0  0.525 0.025 0  0.55 0.025 0  0.575 0.025 0  0.6 0.025 0  0.625 0.025 0  0.65 0.025 0  0.675 0.025 0  0.7 0.025 0  0.725 0.025 0  0.75 0.025 0  0.775 0.025 0  0.8 0.025 0  0.825 0.025 0  0.85 0.025 0  0.875 0.025 0  0.9 0.025 0  0.925 0.025 0  0.95 0.025 0  0.975 0.025 0  1 0.025 0  0 0.05 0  0.025 0.05 0  0.05 0.05 0  0.075 0.05 0  0.1 0.05 0  0.125 0.05 0  0.15 0.05 0  0.175 0.05 0  0.2 0.05 0  0.225 0.05 0  0.25 0.05 0  0.275 0.05 0  0.3 0.05 0  0.325 0.05 0  0.35 0.05 0  0.375 0.05 0  0.4 0.05 0  0.425 0.05 0  0.45 0.05 0  0.475 0.05 0  0.5 0.05 0  0.525 0.05 0  0.55 0.05 0  0.575 0.05 0  0.6 0.05 0  0.625 0.05 0  0.65 0.05 0  0.675 0.05 0  0.7 0.05 0  0.725 0.05 0  0.75 0.05 0  0.775 0.05 0  0.8 0.05 0  0.825 0.05 0  0.85 0.05 0  0.875 0.05 0  0.9 0.05 0  0.925 0.05 0  0.95 0.05 0  0.975 0.05 0  1 0.05 0  0 0.075 0  0.025 0.075 0  0.05 0.075 0  0.075 0.075 0  0.1 0.075 0  0.125 0.075 0  0.15 0.075 0  0.175 0.075 0  0.2 0.075 0  0.225 0.075 0  0.25 0.075 0  0.275 0.075 0  0.3 0.075 0  0.325 0.075 0  0.35 0.075 0  0.375 0.075 0  0.4 0.075 0  0.425 0.075 0  0.45 0.075 0  0.475 0.075 0  0.5 0.075 0  0.525 0.075 0  0.55 0.075 0  0.575 0.075 0  0.6 0.075 0  0.625 0.075 0  0.65 0.075 0  0.675 0.075 0  0.7 0.075 0  0.725 0.075 0  0.75 0.075 0  0.775 0.075 0  0.8 0.075 0  0.825 0.075 0  0.85 0.075 0  0.875 0.075 0  0.9 0.075 0  0.925 0.075 0  0.95 0.075 0  0.975 0.075 0  1 0.075 0  0 0.1 0  0.025 0.1 0  0.05 0.1 0  0.075 0.1 0  0.1 0.1 0  0.125 0.1 0  0.15 0.1 0  0.175 0.1 0  0.2 0.1 0  0.225 0.1 0  0.25 0.1 0  0.275 0.1 0  0.3 0.1 0  0.325 0.1 0  0.35 0.1 0  0.375 0.1 0  0.4 0.1 0  0.425 0.1 0  0.45 0.1 0  0.475 0.1 0  0.5 0.1 0  0.525 0.1 0  0.55 0.1 0  0.575 0.1 0  0.6 0.1 0  0.625 0.1 0  0.65 0.1 0  0.675 0.1 0  0.7 0.1 0  0.725 0.1 0  0.75 0.1 0  0.775 0.1 0  0.8 0.1 0  0.825 0.1 0  0.85 0.1 0  0.875 0.1 0  0.9 0.1 0  0.925 0.1 0  0.95 0.1 0  0.975 0.1 0  1 0.1 0  0 0.125 0  0.025 0.125 0  0.05 0.125 0  0.075 0.125 0  0.1 0.125 0  0.125 0.125 0  0.15 0.125 0  0.175 0.125 0  0.2 0.125 0  0.225 0.125 0  0.25 0.125 0  0.275 0.125 0  0.3 0.125 0  0.325 0.125 0  0.35 0.125 0  0.375 0.125 0  0.4 0.125 0  0.425 0.125 0  0.45 0.125 0  0.475 0.125 0  0.5 0.125 0  0.525 0.125 0  0.55 0.125 0  0.575 0.125 0  0.6 0.125 0  0.625 0.125 0  0.65 0.125 0  0.675 0.125 0  0.7 0.125 0  0.725 0.125 0  0.75 0.125 0  0.775 0.125 0  0.8 0.125 0  0.825 0.125 0  0.85 0.125 0  0.875 0.125 0  0.9 0.125 0  0.925 0.125 0  0.95 0.125 0  0.975 0.125 0  1 0.125 0  0 0.15 0  0.025 0.15 0  0.05 0.15 0  0.075 0.15 0  0.1 0.15 0  0.125 0.15 0  0.15 0.15 0  0.175 0.15 0  0.2 0.15 0  0.225 0.15 0  0.25 0.15 0  0.275 0.15 0  0.3 0.15 0  0.325 0.15 0  0.35 0.15 0  0.375 0.15 0  0.4 0.15 0  0.425 0.15 0  0.45 0.15 0  0.475 0.15 0  0.5 0.15 0  0.525 0.15 0  0.55 0.15 0  0.575 0.15 0  0.6 0.15 0  0.625 0.15 0  0.65 0.15 0  0.675 0.15 0  0.7 0.15 0  0.725 0.15 0  0.75 0.15 0  0.775 0.15 0  0.8 0.15 0  0.825 0.15 0  0.85 0.15 0  0.875 0.15 0  0.9 0.15 0  0.925 0.15 0  0.95 0.15 0  0.975 0.15 0  1 0.15 0  0 0.175 0  0.025 0.175 0  0.05 0.175 0  0.075 0.175 0  0.1 0.175 0  0.125 0.175 0  0.15 0.175 0  0.175 0.175 0  0.2 0.175 0  0.225 0.175 0  0.25 0.175 0  0.275 0.175 0  0.3 0.175 0  0.325 0.175 0  0.35 0.175 0  0.375 0.175 0  0.4 0.175 0  0.425 0.175 0  0.45 0.175 0  0.475 0.175 0  0.5 0.175 0  0.525 0.175 0  0.55 0.175 0  0.575 0.175 0  0.6 0.175 0  0.625 0.175 0  0.65 0.175 0  0.675 0.175 0  0.7 0.175 0  0.725 0.175 0  0.75 0.175 0  0.775 0.175 0  0.8 0.175 0  0.825 0.175 0  0.85 0.175 0  0.875 0.175 0  0.9 0.175 0  0.925 0.175 0  0.95 0.175 0  0.975 0.175 0  1 0.175 0  0 0.2 0  0.025 0.2 0  0.05 0.2 0  0.075 0.2 0  0.1 0.2 0  0.125 0.2 0  0.15 0.2 0  0.175 0.2 0  0.2 0.2 0  0.225 0.2 0  0.25 0.2 0  0.275 0.2 0  0.3 0.2 0  0.325 0.2 0  0.35 0.2 0  0.375 0.2 0  0.4 0.2 0  0.425 0.2 0  0.45 0.2 0  0.475 0.2 0  0.5 0.2 0  0.525 0.2 0  0.55 0.2 0  0.575 0.2 0  0.6 0.2 0  0.625 0.2 0  0.65 0.2 0  0.675 0.2 0  0.7 0.2 0  0.725 0.2 0  0.75 0.2 0  0.775 0.2 0  0.8 0.2 0  0.825 0.2 0  0.85 0.2 0  0.875 0.2 0  0.9 0.2 0  0.925 0.2 0  0.95 0.2 0  0.975 0.2 0  1 0.2 0  0 0.225 0  0.025 0.225 0  0.05 0.225 0  0.075 0.225 0  0.1 0.225 0  0.125 0.225 0  0.15 0.225 0  0.175 0.225 0  0.2 0.225 0  0.225 0.225 0  0.25 0.225 0  0.275 0.225 0  0.3 0.225 0  0.325 0.225 0  0.35 0.225 0  0.375 0.225 0  0.4 0.225 0  0.425 0.225 0  0.45 0.225 0  0.475 0.225 0  0.5 0.225 0  0.525 0.225 0  0.55 0.225 0  0.575 0.225 0  0.6 0.225 0  0.625 0.225 0  0.65 0.225 0  0.675 0.225 0  0.7 0.225 0  0.725 0.225 0  0.75 0.225 0  0.775 0.225 0  0.8 0.225 0  0.825 0.225 0  0.85 0.225 0  0.875 0.225 0  0.9 0.225 0  0.925 0.225 0  0.95 0.225 0  0.975 0.225 0  1 0.225 0  0 0.25 0  0.025 0.25 0  0.05 0.25 0  0.075 0.25 0  0.1 0.25 0  0.125 0.25 0  0.15 0.25 0  0.175 0.25 0  0.2 0.25 0  0.225 0.25 0  0.25 0.25 0  0.275 0.25 0  0.3 0.25 0  0.325 0.25 0  0.35 0.25 0  0.375 0.25 0  0.4 0.25 0  0.425 0.25 0  0.45 0.25 0  0.475 0.25 0  0.5 0.25 0  0.525 0.25 0  0.55 0.25 0  0.575 0.25 0  0.6 0.25 0  0.625 0.25 0  0.65 0.25 0  0.675 0.25 0  0.7 0.25 0  0.725 0.25 0  0.75 0.25 0  0.775 0.25 0  0.8 0.25 0  0.825 0.25 0  0.85 0.25 0  0.875 0.25 0  0.9 0.25 0  0.925 0.25 0  0.95 0.25 0  0.975 0.25 0  1 0.25 0  0 0.275 0  0.025 0.275 0  0.05 0.275 0  0.075 0.275 0  0.1 0.275 0  0.125 0.275 0  0.15 0.275 0  0.175 0.275 0  0.2 0.275 0  0.225 0.275 0  0.25 0.275 0  0.275 0.275 0  0.3 0.275 0  0.325 0.275 0  0.35 0.275 0  0.375 0.275 0  0.4 0.275 0  0.425 0.275 0  0.45 0.275 0  0.475 0.275 0  0.5 0.275 0  0.525 0.275 0  0.55 0.275 0  0.575 0.275 0  0.6 0.275 0  0.625 0.275 0  0.65 0.275 0  0.675 0.275 0  0.7 0.275 0  0.725 0.275 0  0.75 0.275 0  0.775 0.275 0  0.8 0.275 0  0.825 0.275 0  0.85 0.275 0  0.875 0.275 0  0.9 0.275 0  0.925 0.275 0  0.95 0.275 0  0.975 0.275 0  1 0.275 0  0 0.3 0  0.025 0.3 0  0.05 0.3 0  0.075 0.3 0  0.1 0.3 0  0.125 0.3 0  0.15 0.3 0  0.175 0.3 0  0.2 0.3 0  0.225 0.3 0  0.25 0.3 0  0.275 0.3 0  0.3 0.3 0  0.325 0.3 0  0.35 0.3 0  0.375 0.3 0  0.4 0.3 0  0.425 0.3 0  0.45 0.3 0  0.475 0.3 0  0.5 0.3 0  0.525 0.3 0  0.55 0.3 0  0.575 0.3 0  0.6 0.3 0  0.625 0.3 0  0.65 0.3 0  0.675 0.3 0  0.7 0.3 0  0.725 0.3 0  0.75 0.3 0  0.775 0.3 0  0.8 0.3 0  0.825 0.3 0  0.85 0.3 0  0.875 0.3 0  0.9 0.3 0  0.925 0.3 0  0.95 0.3 0  0.975 0.3 0  1 0.3 0  0 0.325 0  0.025 0.325 0  0.05 0.325 0  0.075 0.325 0  0.1 0.325 0  0.125 0.325 0  0.15 0.325 0  0.175 0.325 0  0.2 0.325 0  0.225 0.325 0  0.25 0.325 0  0.275 0.325 0  0.3 0.325 0  0.325 0.325 0  0.35 0.325 0  0.375 0.325 0  0.4 0.325 0  0.425 0.325 0  0.45 0.325 0  0.475 0.325 0  0.5 0.325 0  0.525 0.325 0  0.55 0.325 0  0.575 0.325 0  0.6 0.325 0  0.625 0.325 0  0.65 0.325 0  0.675 0.325 0  0.7 0.325 0  0.725 0.325 0  0.75 0.325 0  0.775 0.325 0  0.8 0.325 0  0.825 0.325 0  0.85 0.325 0  0.875 0.325 0  0.9 0.325 0  0.925 0.325 0  0.95 0.325 0  0.975 0.325 0  1 0.325 0  0 0.35 0  0.025 0.35 0  0.05 0.35 0  0.075 0.35 0  0.1 0.35 0  0.125 0.35 0  0.15 0.35 0  0.175 0.35 0  0.2 0.35 0  0.225 0.35 0  0.25 0.35 0  0.275 0.35 0  0.3 0.35 0  0.325 0.35 0  0.35 0.35 0  0.375 0.35 0  0.4 0.35 0  0.425 0.35 0  0.45 0.35 0  0.475 0.35 0  0.5 0.35 0  0.525 0.35 0  0.55 0.35 0  0.575 0.35 0  0.6 0.35 0  0.625 0.35 0  0.65 0.35 0  0.675 0.35 0  0.7 0.35 0  0.725 0.35 0  0.75 0.35 0  0.775 0.35 0  0.8 0.35 0  0.825 0.35 0  0.85 0.35 0  0.875 0.35 0  0.9 0.35 0  0.925 0.35 0  0.95 0.35 0  0.975 0.35 0  1 0.35 0  0 0.375 0  0.025 0.375 0  0.05 0.375 0  0.075 0.375 0  0.1 0.375 0  0.125 0.375 0  0.15 0.375 0  0.175 0.375 0  0.2 0.375 0  0.225 0.375 0  0.25 0.375 0  0.275 0.375 0  0.3 0.375 0  0.325 0.375 0  0.35 0.375 0  0.375 0.375 0  0.4 0.375 0  0.425 0.375 0  0.45 0.375 0  0.475 0.375 0  0.5 0.375 0  0.525 0.375 0  0.55 0.375 0  0.575 0.375 0  0.6 0.375 0  0.625 0.375 0  0.65 0.375 0  0.675 0.375 0  0.7 0.375 0  0.725 0.375 0  0.75 0.375 0  0.775 0.375 0  0.8 0.375 0  0.825 0.375 0  0.85 0.375 0  0.875 0.375 0  0.9 0.375 0  0.925 0.375 0  0.95 0.375 0  0.975 0.375 0  1 0.375 0  0 0.4 0  0.025 0.4 0  0.05 0.4 0  0.075 0.4 0  0.1 0.4 0  0.125 0.4 0  0.15 0.4 0  0.175 0.4 0  0.2 0.4 0  0.225 0.4 0  0.25 0.4 0  0.275 0.4 0  0.3 0.4 0  0.325 0.4 0  0.35 0.4 0  0.375 0.4 0  0.4 0.4 0  0.425 0.4 0  0.45 0.4 0  0.475 0.4 0  0.5 0.4 0  0.525 0.4 0  0.55 0.4 0  0.575 0.4 0  0.6 0.4 0  0.625 0.4 0  0.65 0.4 0  0.675 0.4 0  0.7 0.4 0  0.725 0.4 0  0.75 0.4 0  0.775 0.4 0  0.8 0.4 0  0.825 0.4 0  0.85 0.4 0  0.875 0.4 0  0.9 0.4 0  0.925 0.4 0  0.95 0.4 0  0.975 0.4 0  1 0.4 0  0 0.425 0  0.025 0.425 0  0.05 0.425 0  0.075 0.425 0  0.1 0.425 0  0.125 0.425 0  0.15 0.425 0  0.175 0.425 0  0.2 0.425 0  0.225 0.425 0  0.25 0.425 0  0.275 0.425 0  0.3 0.425 0  0.325 0.425 0  0.35 0.425 0  0.375 0.425 0  0.4 0.425 0  0.425 0.425 0  0.45 0.425 0  0.475 0.425 0  0.5 0.425 0  0.525 0.425 0  0.55 0.425 0  0.575 0.425 0  0.6 0.425 0  0.625 0.425 0  0.65 0.425 0  0.675 0.425 0  0.7 0.425 0  0.725 0.425 0  0.75 0.425 0  0.775 0.425 0  0.8 0.425 0  0.825 0.425 0  0.85 0.425 0  0.875 0.425 0  0.9 0.425 0  0.925 0.425 0  0.95 0.425 0  0.975 0.425 0  1 0.425 0  0 0.45 0  0.02
[...]
<PointData  Scalars="ControlVisualisation"> 
<DataArray  type="Float64"  Name="ControlVisualisation"  format="ascii">6.6406694331384714e-02  3.3757231363081328e-02  3.3734969400455922e-02  3.3819969711963493e-02  3.4034386133741074e-02  3.4324479651226397e-02  3.4613706442871969e-02  3.4836064143674197e-02  3.4959422061566339e-02  3.4990112118632274e-02  3.4960492503614687e-02  3.4910499724569749e-02  3.4872964202631543e-02  3.4866499138955287e-02  3.4895099117527778e-02  3.4951697771900256e-02  3.5023014796940907e-02  3.5093952358893024e-02  3.5150801582258098e-02  3.5183222006625270e-02  3.5185291692898052e-02  3.5155975884568813e-02  3.5099244009311747e-02  3.5023869873345159e-02  3.4942740447316531e-02  3.4871332667743865e-02  3.4824979148905741e-02  3.4814753652782207e-02  3.4842387332318370e-02  3.4895592109575949e-02  3.4946271947122173e-02  3.4954688229519401e-02  3.4881582496825950e-02  3.4706539231913719e-02  3.4444631131345035e-02  3.4149586333465598e-02  3.3896553653826572e-02  3.3752528533212103e-02  3.3740563772401061e-02  3.3775905458341277e-02  1.9975424584842083e-01  3.3755171511727217e-02  2.2093166181229335e-02  2.2089567274177199e-02  2.2205182437598128e-02  2.2472010346567206e-02  2.2835066190724035e-02  2.3188356327979262e-02  2.3415179109181852e-02  2.3429576334777151e-02  2.3208619588865734e-02  2.2799049327381492e-02  2.2295789714399807e-02  2.1805556675334743e-02  2.1413303170289333e-02  2.1163417600863224e-02  2.1057918680290305e-02  2.1066696517724248e-02  2.1142619287598835e-02  2.1235876086670380e-02  2.1304782313932680e-02  2.1322602257806994e-02  2.1281086152522125e-02  2.1191514221480898e-02  2.1083513249171335e-02  2.1001203546025277e-02  2.0995773700665500e-02  2.1113830514920051e-02  2.1382264987079368e-02  2.1792976701224202e-02  2.2293741005714893e-02  2.2792693556252436e-02  2.3180747291949334e-02  2.3367940849781485e-02  2.3319608640575355e-02  2.3072926041796317e-02  2.2722471025614428e-02  2.2382301301088772e-02  2.2146753603350694e-02  2.2058671538991728e-02  2.2100816677993192e-02  3.3775524927561654e-02  3.3717783188883660e-02  2.2101290966834011e-02  2.2435056062321532e-02  2.3104513177108717e-02  2.4122585106807981e-02  2.5536851330627955e-02  2.7273597943129092e-02  2.9129038001016204e-02  3.0842293447587696e-02  3.2243540339028431e-02  3.3359029277992072e-02  3.4394662468609380e-02  3.5622291556480709e-02  3.7247323060479287e-02  3.9324723822032448e-02  4.1746338297778990e-02  4.4283236700631584e-02  4.6651273099416135e-02  4.8573247307217571e-02  4.9824529366968406e-02  5.0260574725655094e-02  4.9830511187524823e-02  4.8581402503090954e-02  4.6654989022205912e-02  4.4274864171223671e-02  4.1719240851978145e-02  3.9274930531987523e-02  3.7174088631236890e-02  3.5527187690720691e-02  3.4279608332703812e-02  3.3224590835372506e-02  3.2089376627651878e-02  3.0670790968350292e-02  2.8950732908341041e-02  2.7108167019373908e-02  2.5403743133875681e-02  2.4023928055559869e-02  2.3016914924833591e-02  2.2331748072348695e-02  2.2059483175964553e-02  3.3732676336012846e-02  3.3777271641339743e-02  2.2310755665713132e-02  2.3367096284952649e-02  2.4764704033854612e-02  2.6441176609721916e-02  2.8764080138740884e-02  3.2065473289981522e-02  3.6919086577299060e-02  4.4252916003969675e-02  5.4847969900927107e-02  6.8715257238858407e-02  8.5044521838229942e-02  1.0263543411776074e-01  1.2032127273310500e-01  1.3715570408403902e-01  1.5242312685523801e-01  1.6558997768982547e-01  1.7625935277873203e-01  1.8414221382637444e-01  1.8904024417442414e-01  1.9083479943613610e-01  1.8948001309472312e-01  1.8500032729296848e-01  1.7749284999737269e-01  1.6713425285824271e-01  1.5419211165192392e-01  1.3904294790851460e-01  1.2220318555907181e-01  1.0437906930700058e-01  8.6523611315646676e-02  6.9836654719797470e-02  5.5582814788860888e-02  4.4650283695171641e-02  3.7082765702653966e-02  3.2104782720907638e-02  2.8763594820507943e-02  2.6442466806445755e-02  2.4741715921187665e-02  2.3251040168164559e-02  2.2205442983077799e-02  3.3717089321275318e-02  3.4020348102006936e-02  2.2964877704718042e-02  2.5582322074692569e-02  2.8520718224325517e-02  3.1259125646665178e-02  3.5126711408804329e-02  4.2826294515962857e-02  5.7733163100764456e-02  8.1453834803212805e-02  1.1256284784526457e-01  1.4776730382688244e-01  1.8372404340209758e-01  2.1800737683144814e-01  2.4919920571889065e-01  2.7660349499616660e-01  2.9993564910378717e-01  3.1910763997870079e-01  3.3410967323295127e-01  3.4495506930901843e-01  3.5165793345297131e-01  3.5422496071086318e-01  3.5265256046919385e-01  3.4692613943228734e-01  3.3702087559140170e-01  3.2290461722173702e-01  3.0454573720912748e-01  2.8193375006802968e-01  2.5512938248149053e-01  2.2437217923218650e-01  1.9027990408459683e-01  1.5414983255203582e-01  1.1827353117574210e-01  8.5945104178040133e-02  6.0643367777705875e-02  4.4216220613982532e-02  3.5471577385208189e-02  3.1100600037040696e-02  2.8207910135616354e-02  2.5234650714509581e-02  2.2701301152782495e-02  3.3841191488911793e-02  3.4949544077218800e-02  2.4695154481697880e-02  3.4439617003348612e-02  5.4617904797628972e-02  8.4804889444888537e-02  1.2192057190636107e-01  1.6203218580046425e-01  2.0237322563221821e-01  2.4196475224443531e-01  2.8045622741700488e-01  3.1733533597044894e-01  3.5190076528947295e-01  3.8349002947544403e-01  4.1163479328815650e-01  4.3608661943267563e-01  4.5676618050836804e-01  4.7369344162983529e-01  4.8693041838533563e-01  4.9654485542237270e-01  5.0259116667441239e-01  5.0510206031075455e-01  5.0408579261369080e-01  4.9952653599023811e-01  4.9138750431999018e-01  4.7961822630962020e-01  4.6416894107088169e-01  4.4501588116966834e-01  4.2219881638125972e-01  3.9586282323662852e-01  3.6627778677899958e-01  3.3378727725295032e-01  2.9864447993246074e-01  2.6075872429619579e-01  2.1963214104846135e-01  1.7497172945609221e-01  1.2865306197479298e-01  8.6025675626591247e-02  5.4084418520054231e-02  3.3181138309362909e-02  2.3966254609339981e-02  3.4303034862121121e-02  3.9973283285722944e-02  3.5234560992520009e-02  2.4060113153683380e-01  5.0432193856326446e-01  6.0497427067622866e-01  6.3021580843726244e-01  6.2124985130444688e-01  6.0005542845232351e-01  5.8002644695397920e-01  5.6767191854431365e-01  5.6437150922672707e-01  5.6854930461605491e-01  5.7755618654473517e-01  5.8886171920337504e-01  6.0056793220606486e-01  6.1146900587944053e-01  6.2090094421379161e-01  6.2854848618479831e-01  6.3428751506447067e-01  6.3808126082808536e-01  6.3992160399056730e-01  6.3980131621288605e-01  6.3770741001472508e-01  6.3363319127359508e-01  6.2761451757445830e-01  6.1980261188162977e-01  6.1058743608881216e-01  6.0077235647407468e-01  5.9175810590304390e-01  5.8561348051024287e-01  5.8481576706359106e-01  5.9142108461958121e-01  6.0559127073021068e-01  6.2391358454902679e-01  6.3846229963362533e-01  6.3799977195547874e-01  6.0827137482855642e-01  5.1564388678880935e-01  2.4754328659412472e-01  3.4007958121695395e-02  3.6045822825031520e-02  8.1195422762792357e-01  9.8249546938333365e-01  9.8056452403639360e-01  9.8388191151006454e-01  9.8592753495702246e-01  9.7933540618523640e-01  9.5423658532381772e-01  9.1082495532045316e-01  8.5976993438720783e-01  8.1348974741508695e-01  7.7943042680039865e-01  7.5883077443431990e-01  7.4895866050190885e-01  7.4590128788961363e-01  7.4633176484177310e-01  7.4809042911541557e-01  7.5005715579104804e-01  7.5179250073810788e-01  7.5320849654655997e-01  7.5434782475617390e-01  7.5526132060915241e-01  7.5595118257751137e-01  7.5635511410249601e-01  7.5636432921373609e-01  7.5588817904766759e-01  7.5499605123785263e-01  7.5417229808648112e-01  7.5468449084972344e-01  7.5894495167309195e-01  7.7051961276417225e-01  7.9322214791918699e-01  8.2889526051059714e-01  8.7450334375505867e-01  9.2091986710933182e-01  9.5651560280487335e-01  9.7541488194876702e-01  9.8225549492468800e-01  9.8337180564999194e-01  9.7874291047622530e-01  9.9872526476734724e-01  2.7839969331521991e-01  9.9159663714171964e-01  9.9335210757936632e-01  9.9159592413979736e-01  9.8877575090338676e-01  9.8572894853077531e-01  9.8425559409771335e-01  9.8329618271587060e-01  9.7474739114645204e-01  9.5215957788337580e-01  9.2036634019933417e-01  8.9047954888449377e-01  8.6976558415438865e-01  8.5864777883422616e-01  8.5376971042597860e-01  8.5155196848307846e-01  8.4980702170924105e-01  8.4777903412172373e-01  8.4559429488635462e-01  8.4372499302183412e-01  8.4264790533945910e-01  8.4267486972587602e-01  8.4388469274407096e-01  8.4610480662759291e-01  8.4892720785863729e-01  8.5178268479978070e-01  8.5413573332948012e-01  8.5588043326850305e-01  8.5795246830875205e-01  8.6291184262736542e-01  8.7474515557154509e-01  8.9677729330052891e-01  9.2761658340204356e-01  9.5854668353743144e-01  9.7833149507279027e-01  9.8413010520604871e-01  9.8414541023157420e-01  9.8605936171474806e-01  9.8963106393207134e-01  9.9255269808447644e-01  9.9337292687790135e-01  9.8778104971675329e-01  9.9525838578912973e-01  9.9639960191506194e-01  9.9415899013724152e-01  9.9177908721824981e-01  9.9070937549915805e-01  9.8892914675821419e-01  9.8545768274360701e-01  9.8032733483113965e-01  9.6871702889398648e-01  9.4851169781037603e-01  9.2712261596305878e-01  9.1322543593115890e-01  9.0837441299395993e-01  9.0854340284704882e-01  9.0921379487077203e-01  9.0802895063473110e-01  9.0479361071259179e-01  9.0049684748010850e-01  8.9643270662404861e-01  8.9369555102531939e-01  8.9296669510545978e-01  8.9444906400828805e-01  8.9785436331196788e-01  9.0241349250515279e-01  9.0694759040441020e-01  9.1010620486447014e-01  9.1092709296839747e-01  9.0979333088227388e-01  9.0943812606794983e-01  9.1475620095290511e-01  9.2965575117495081e-01  9.5167406915923303e-01  9.7130232296957142e-01  9.8163158561826525e-01  9.8582951710592026e-01  9.8885274065274131e-01  9.9054197324007653e-01  9.9216510920123457e-01  9.9493526453427561e-01  9.9662317163308012e-01  9.9409752855873867e-01  9.9576425573214999e-01  9.9732506434414325e-01  9.9534681938516212e-01  9.9285086335571604e-01  9.9199724419092894e-01  9.9088645156425403e-01  9.8712185053414481e-01  9.8177854692400768e-01  9.7186090553706828e-01  9.5385702459588273e-01  9.3382259664469314e-01  9.2142464669178348e-01  9.1888629095069174e-01  9.2136949141580848e-01  9.2330165586212876e-01  9.2195642827921209e-01  9.1742829662721459e-01  9.1128302317970999e-01  9.0538557276052312e-01  9.0126260842149264e-01  8.9985842706034835e-01  9.0147705048633164e-01  9.0577817158131624e-01  9.1178510934730483e-01  9.1794856086725896e-01  9.2240004492399463e-01  9.2360202585583384e-01  9.2152915495023124e-01  9.1900333978842419e-01  9.2165222645881761e-01  9.3422921517646651e-01  9.5430984002505292e-01  9.7215922166672286e-01  9.8188887501628752e-01  9.8711468727552043e-01  9.9080079742241645e-01  9.9191799068549613e-01  9.9284477176646868e-01  9.9536164418232054e-01  9.9732340853281920e-01  9.9575219973261597e-01  9.9412173266507942e-01  9.9664626707453385e-01  9.9494499933996061e-01  9.9221669854916728e-01  9.9078699505723000e-01  9.8935634284982676e-01  9.8611217989677580e-01  9.8117037865671530e-01  9.6976720768600877e-01  9.4832247140064485e-01  9.2392968638026729e-01  9.0693234202714645e-01  8.9986590963351709e-01  8.9813015968854115e-01  8.9630905855059018e-01  8.9173701075088863e-01  8.8451623898548870e-01  8.7620629715753440e-01  8.6866864196085802e-01  8.6343284085318917e-01  8.6145313581384464e-01  8.6305253200291010e-01  8.6792301832661001e-01  8.7513853208663694e-01  8.8321903343103680e-01  8.9036691630890408e-01  8.9506218503226587e-01  8.9713963396470420e-01  8.9902855484037492e-01  9.0582654580729172e-01  9.2212734876836644e-01  9.4603479708007809e-01  9.6786946550019382e-01  9.8017840897079789e-01  9.8576224630896747e-01  9.8933722392055667e-01  9.9085887231516045e-01  9.9179979655748474e-01  9.9417841711962673e-01  9.9642087267237167e-01  9.9526654410518045e-01  9.8777125656433495e-01  9.9340383425640966e-01  9.9260991008420951e-01  9.8987490089329067e-01  9.8689168935777449e-01  9.8488174701452846e-01  9.8352941057624332e-01  9.7632537088496407e-01  9.5456040334453229e-01  9.1964595987972408e-01  8.8359482233278841e-01  8.5684181831800510e-01  8.4101049382524595e-01  8.3177648368552681e-01  8.2432296817291206e-01  8.1608676829674742e-01  8.0679094033897247e-01  7.9744584968280874e-01  7.8942157231128840e-01  7.8390127622966821e-01  7.8164481349435200e-01  7.8291796232552047e-01  7.8748640507912160e-01  7.9463923450275864e-01  8.0327016210511504e-01  8.1210381999737613e-01  8.2019054402261937e-01  8.2772991434839316e-01  8.3697076402539672e-01  8.5227775120209892e-01  8.7789877664862270e-01  9.1312339791042274e-01  9.4890951788508282e-01  9.7320180720604910e-01  9.8271488550032471e-01  9.8485894884746727e-01  9.8654501124333183e-01  9.8898369672183173e-01  9.9157927750202468e-01  9.9336833201494845e-01  9.9161732334144859e-01  2.8852415516261121e-01  9.9597050252407737e-01  9.7450661358532664e-01  9.8121540675206720e-01  9.8220896678866187e-01  9.7901027643348149e-01  9.6310173185109971e-01  9.2666088429035753e-01  8.7376889995346074e-01  8.1796142907740976e-01  7.7203275390814952e-01  7.4115943894992409e-01  7.2321060562776895e-01  7.1293176267992375e-01  7.0563648360802378e-01  6.9871220707718862e-01  6.9146108419410313e-01  6.8432653899770202e-01  6.7817165667341328e-01  6.7381881594379256e-01  6.7182072456535635e-01  6.7237233560094023e-01  6.7529399889531527e-01  6.8006010527924132e-01  6.8589324514295691e-01  6.9198394156952703e-01  6.9791333422477997e-01  7.0430515880632494e-01  7.1353957561110859e-01  7.2999065274758768e-01  7.5889887314265947e-01  8.0327470046783223e-01  8.5983339481448262e-01  9.1732704260508324e-01  9.6096818079693003e-01  9.8208949245346810e-01  9.8503687974144971e-01  9.8164968240489137e-01  9.7680192374370622e-01  9.9505631085840895e-01  8.2031121786208616e-01  3.6921232411187901e-02  3.9152339931421240e-02  3.8601223458958300e-01  6.8321522670833212e-01  7.4286301951102773e-01  7.3988038677174139e-01  7.1011222510067307e-01  6.6631260534658132e-01  6.2090669723594327e-01  5.8428003031073494e-01  5.6125859491390562e-01  5.5104261601486237e-01  5.4950685107843467e-01  5.5195128530458037e-01  5.5487216817948681e-01  5.5647687294335568e-01  5.5637537810989701e-01  5.5499644836988482e-01  5.5306877142300825e-01  5.5127911646258543e-01  5.5009037839111441e-01  5.4966376548788054e-01  5.4983945367332465e-01  5.5015791433085404e-01  5.4993528171950856e-01  5.4843301417018231e-01  5.4517286510288965e-01  5.4041849970767863e-01  5.3574181807106558e-01  5.3440508358308636e-01  5.4109899660607286e-01  5.6059738374111312e-01  5.9535323986698518e-01  6.4287299055849478e-01  6.9422543439139661e-01  7.3439092885210744e-01  7.4201375861084728e-01  6.7199669493187297e-01  3.7461405926451546e-01  4.1122802332995770e-02  4.1380007114252257e-02  3.4881983550415788e-02  2.4999313575500344e-02  4.1165033680826538e-02  8.3940668501900378e-02  1.3930598433880986e-01  1.9045952786165909e-01  2.2816862906907781e-01  2.5401479117006603e-01  2.7420077338794457e-01  2.9440721570888995e-01  3.1699991643829217e-01  3.4133249943293020e-01  3.6525404095288744e-01  3.8658966233918268e-01  4.0396733041010691e-01  4.1698492564506318e-01  4.2597704991611923e-01  4.3166034087526367e-01  4.3482697174051588e-01  4.3614300566729847e-01  4.3604092311738679e-01  4.3467347734844519e-01  4.3190101821139909e-01  4.2730100782876557e-01  4.2020795734363120e-01  4.0980916672181616e-01  3.9532917849862470e-01  3.7632074926421200e-01  3.5302604910280860e-01  3.2667358896635817e-01  2.9946679171047619e-01  2.7398848463655756e-01  2.5191181575427835e-01  2.3234692492540948e-01  2.1082172641139355e-01  1.8052365123150571e-01  1.3699796633285488e-01  8.4778408781505721e-02  4.2734263856272617e-02  2.5862074442674160e-02  3.5605584350327332e-02  3.4267591105771836e-02  2.3362854140055109e-02  2.7239695787599223e-02  3.1127536500641366e-02  3.3196810153043807e-02  3.5333192523073237e-02  4.1712900538852182e-02  5.6469554033144520e-02  8.0968771184531829e-02  1.1354647513810329e-01  1.5081260695667134e-01  1.8904733540139718e-01  2.2511000648492924e-01  2.5688904656734901e-01  2.8334909455122193e-01  3.0431447829674280e-01  3.2014781839783246e-01  3.3144963229406332e-01  3.3883922507764164e-01  3.4282333776109897e-01  3.4373099620916103e-01  3.4168738167129875e-01  3.3660661551222371e-01  3.2819565170707909e-01  3.1597526872143006e-01  2.9933752545751435e-01  2.7766888156342812e-01  2.5056756939949687e-01  2.1816176341408955e-01  1.8148164133083830e-01  1.4275632756196607e-01  1.0542390430305304e-01  7.3609114730299796e-02  5.0898622253427867e-02  3.8570439160166448e-02  3.4322357009013094e-02  3.3361226137084282e-02  3.1662827371576656e-02  2.7789827028500386e-02  2.3694350183631932e-02  3.4526830345794887e-02  3.3987031015399960e-02  2.2626233415549056e-02  2.4286745067624856e-02  2.5797131678328859e-02  2.6597745953698973e-02  2.7026396594666699e-02  2.7843031689329070e-02  3.1231194454038005e-02  4.0522819193463844e-02  5.8032954049810653e-02  8.3344968116600221e-02  1.1373023746100541e-01  1.4573938711408785e-01  1.7647088922462789e-01  2.0403138304712182e-01  2.2744294787284777e-01  2.4635071440739550e-01  2.6074081070577948e-01  2.7074089003958379e-01  2.7650332575502357e-01  2.7814684026639147e-01  2.7573196607229911e-01  2.6925397544338020e-01  2.5864715905217134e-01  2.4380494763411317e-01  2.2463141006282744e-01  2.0114976379811786e-01  1.7369603117140534e-01  1.4320409221700495e-01  1.1151378696673500e-01  8.1485771709973537e-02  5.6549180645349917e-02  3.9418138436711603e-02  3.0481638374491929e-02  2.7394701883742628e-02  2.6800674667184082e-02  2.6509675589789963e-02  2.5811202439976803e-02  2.4434804358436611e-02  2.2776850816513025e-02  3.4138221487433992e-02  3.3849887727014277e-02  2.2283619723636107e-02  2.2972681779429009e-02  2.3898979488261252e-02  2.5007276121213853e-02  2.6629495898378923e-02  2.9081319233606989e-02  3.2879628215025811e-02  3.9139983741798376e-02  4.9457483996003179e-02  6.4967912720152593e-02  8.5456591034277163e-02  1.0939770875483068e-01  1.3469421495933240e-01  1.5938065260677872e-01  1.8194316710514924e-01  2.0133680127289222e-01  2.1688224418846302e-01  2.2815491432333376e-01  2.3490472681880289e-01  2.3700807456579334e-01  2.3444354974086515e-01  2.2728402602097594e-01  2.1570187785991560e-01  1.9998881747590477e-01  1.8059643593693447e-01  1.5820587042597375e-01  1.3382751467694043e-01  1.0889892048743918e-01  8.5278676139460108e-02  6.4964834622088602e-02  4.9451188387280756e-02  3.9022539070221116e-02  3.2664973433100347e-02  2.8849673798289635e-02  2.6439029364465030e-02  2.4877611895402038e-02  2.3851383889035786e-02  2.3035738672811876e-02  2.2350600863827175e-02  3.3922705330770936e-02  3.3794844803315738e-02  2.2161018892770057e-02  2.2410546524233375e-02  2.3073090882524148e-02  2.4300414027618553e-02  2.6359145486039813e-02  2.9548489875935675e-02  3.4146429224164561e-02  4.0482023557331728e-02  4.9133216146352937e-02  6.0884519155457575e-02  7.6250587323623498e-02  9.4981995865471736e-02  1.1602710199887936e-01  1.3788489880543048e-01  1.5899999848955085e-01  1.7800358808740208e-01  1.9380385924591687e-01  2.0559367995174982e-01  2.1282815199666755e-01  2.1519871481560746e-01  2.1261480784981143e-01  2.0519695592362738e-01  1.9328183319349321e-01  1.7743756924705381e-01  1.5848449872267920e-01  1.3751023101033530e-01  1.1585428181992249e-01  9.5015326465566263e-02  7.6422986902600881e-02  6.1077443445688218e-02  4.9237502193678492e-02  4.0461381506092367e-02  3.4042499831372537e-02  2.9424347081000307e-02  2.6252600628480255e-02  2.4226037491425774e-02  2.3042296118983875e-02  2.2434458309241276e-02  2.2182389456483896e-02  3.3820936107400307e-02  3.3786611867540187e-02  2.2137488766308389e-02  2.2261363152296237e-02  2.2826318837940861e-02  2.4068617982750055e-02  2.6223101914862539e-02  2.9580498465051494e-02  3.4402124204673576e-02  4.088507905