<?xml version="1.0"?>
<VTKFile type="UnstructuredGrid"  version="0.1"  >
<UnstructuredGrid>
<Piece  NumberOfPoints="1681" NumberOfCells="3200">
<Points>
<DataArray  type="Float64"  NumberOfComponents="3"  format="ascii">0 0 0  0.025 0 0  0.05 0 0  0.075 0 0  0.1 0 0  0.125 0 0  0.15 0 0  0.175 0 0  0.2 0 0  0.225 0 0  0.25 0 0  0.275 0 0  0.3 0 0  0.325 0 0  0.35 0 0  0.375 0 0  0.4 0 0  0.425 0 0  0.45 0 0  0.475 0 0  0.5 0 0  0.525 0 0  0.55 0 0  0.575 0 0  0.6 0 0  0.625 0 0  0.65 0 0  0.675 0 0  0.7 0 0  0.725 0 0  0.75 0 0  0.775 0 0  0.8 0 0  0.825 0 0  0.85 0 0  0.875 0 0  0.9 0 0  0.925 0 0  0.95 0 0  0.975 0 0  1 0 0  0 0.025 0  0.025 0.025 0  0.05 0.025 0  0.075 0.025 0  0.1 0.025 0  0.125 0.025 0  0.15 0.025 0  0.175 0.025 0  0.2 0.025 0  0.225 0.025 0  0.25 0.025 0  0.275 0.025 0  0.3 0.025 0  0.325 0.025 0  0.35 0.025 0  0.375 0.025 0  0.4 0.025 0  0.425 0.025 0  0.45 0.025 0  0.475 0.025 0  0.5 0.025 0  0.525 0.025 0  0.55 0.025 0  0.575 0.025 0  0.6 0.025 0  0.625 0.025 0  0.65 0.025 0  0.675 0.025 0  0.7 0.025 0  0.725 0.025 0  0.75 0.025 0  0.775 0.025 0  0.8 0.025 0  0.825 0.025 0  0.85 0.025 0  0.875 0.025 0  0.9 0.025 0  0.925 0.025 0  0.95 0.025 0  0.975 0.025 0  1 0.025 0  0 0.05 0  0.025 0.05 0  0.05 0.05 0  0.075 0.05 0  0.1 0.05 0  0.125 0.05 0  0.15 0.05 0  0.175 0.05 0  0.2 0.05 0  0.225 0.05 0  0.25 0.05 0  0.275 0.05 0  0.3 0.05 0  0.325 0.05 0  0.35 0.05 0  0.375 0.05 0  0.4 0.05 0  0.425 0.05 0  0.45 0.05 0  0.475 0.05 0  0.5 0.05 0  0.525 0.05 0  0.55 0.05 0  0.575 0.05 0  0.6 0.05 0  0.625 0.05 0  0.65 0.05 0  0.675 0.05 0  0.7 0.05 0  0.725 0.05 0  0.75 0.05 0  0.775 0.05 0  0.8 0.05 0  0.825 0.05 0  0.85 0.05 0  0.875 0.05 0  0.9 0.05 0  0.925 0.05 0  0.95 0.05 0  0.975 0.05 0  1 0.05 0  0 0.075 0  0.025 0.075 0  0.05 0.075 0  0.075 0.075 0  0.1 0.075 0  0.125 0.075 0  0.15 0.075 0  0.175 0.075 0  0.2 0.075 0  0.225 0.075 0  0.25 0.075 0  0.275 0.075 0  0.3 0.075 0  0.325 0.075 0  0.35 0.075 0  0.375 0.075 0  0.4 0.075 0  0.425 0.075 0  0.45 0.075 0  0.475 0.075 0  0.5 0.075 0  0.525 0.075 0  0.55 0.075 0  0.575 0.075 0  0.6 0.075 0  0.625 0.075 0  0.65 0.075 0  0.675 0.075 0  0.7 0.075 0  0.725 0.075 0  0.75 0.075 0  0.775 0.075 0  0.8 0.075 0  0.825 0.075 0  0.85 0.075 0  0.875 0.075 0  0.9 0.075 0  0.925 0.075 0  0.95 0.075 0  0.975 0.075 0  1 0.075 0  0 0.1 0  0.025 0.1 0  0.05 0.1 0  0.075 0.1 0  0.1 0.1 0  0.125 0.1 0  0.15 0.1 0  0.175 0.1 0  0.2 0.1 0  0.225 0.1 0  0.25 0.1 0  0.275 0.1 0  0.3 0.1 0  0.325 0.1 0  0.35 0.1 0  0.375 0.1 0  0.4 0.1 0  0.425 0.1 0  0.45 0.1 0  0.475 0.1 0  0.5 0.1 0  0.525 0.1 0  0.55 0.1 0  0.575 0.1 0  0.6 0.1 0  0.625 0.1 0  0.65 0.1 0  0.675 0.1 0  0.7 0.1 0  0.725 0.1 0  0.75 0.1 0  0.775 0.1 0  0.8 0.1 0  0.825 0.1 0  0.85 0.1 0  0.875 0.1 0  0.9 0.1 0  0.925 0.1 0  0.95 0.1 0  0.975 0.1 0  1 0.1 0  0 0.125 0  0.025 0.125 0  0.05 0.125 0  0.075 0.125 0  0.1 0.125 0  0.125 0.125 0  0.15 0.125 0  0.175 0.125 0  0.2 0.125 0  0.225 0.125 0  0.25 0.125 0  0.275 0.125 0  0.3 0.125 0  0.325 0.125 0  0.35 0.125 0  0.375 0.125 0  0.4 0.125 0  0.425 0.125 0  0.45 0.125 0  0.475 0.125 0  0.5 0.125 0  0.525 0.125 0  0.55 0.125 0  0.575 0.125 0  0.6 0.125 0  0.625 0.125 0  0.65 0.125 0  0.675 0.125 0  0.7 0.125 0  0.725 0.125 0  0.75 0.125 0  0.775 0.125 0  0.8 0.125 0  0.825 0.125 0  0.85 0.125 0  0.875 0.125 0  0.9 0.125 0  0.925 0.125 0  0.95 0.125 0  0.975 0.125 0  1 0.125 0  0 0.15 0  0.025 0.15 0  0.05 0.15 0  0.075 0.15 0  0.1 0.15 0  0.125 0.15 0  0.15 0.15 0  0.175 0.15 0  0.2 0.15 0  0.225 0.15 0  0.25 0.15 0  0.275 0.15 0  0.3 0.15 0  0.325 0.15 0  0.35 0.15 0  0.375 0.15 0  0.4 0.15 0  0.425 0.15 0  0.45 0.15 0  0.475 0.15 0  0.5 0.15 0  0.525 0.15 0  0.55 0.15 0  0.575 0.15 0  0.6 0.15 0  0.625 0.15 0  0.65 0.15 0  0.675 0.15 0  0.7 0.15 0  0.725 0.15 0  0.75 0.15 0  0.775 0.15 0  0.8 0.15 0  0.825 0.15 0  0.85 0.15 0  0.875 0.15 0  0.9 0.15 0  0.925 0.15 0  0.95 0.15 0  0.975 0.15 0  1 0.15 0  0 0.175 0  0.025 0.175 0  0.05 0.175 0  0.075 0.175 0  0.1 0.175 0  0.125 0.175 0  0.15 0.175 0  0.175 0.175 0  0.2 0.175 0  0.225 0.175 0  0.25 0.175 0  0.275 0.175 0  0.3 0.175 0  0.325 0.175 0  0.35 0.175 0  0.375 0.175 0  0.4 0.175 0  0.425 0.175 0  0.45 0.175 0  0.475 0.175 0  0.5 0.175 0  0.525 0.175 0  0.55 0.175 0  0.575 0.175 0  0.6 0.175 0  0.625 0.175 0  0.65 0.175 0  0.675 0.175 0  0.7 0.175 0  0.725 0.175 0  0.75 0.175 0  0.775 0.175 0  0.8 0.175 0  0.825 0.175 0  0.85 0.175 0  0.875 0.175 0  0.9 0.175 0  0.925 0.175 0  0.95 0.175 0  0.975 0.175 0  1 0.175 0  0 0.2 0  0.025 0.2 0  0.05 0.2 0  0.075 0.2 0  0.1 0.2 0  0.125 0.2 0  0.15 0.2 0  0.175 0.2 0  0.2 0.2 0  0.225 0.2 0  0.25 0.2 0  0.275 0.2 0  0.3 0.2 0  0.325 0.2 0  0.35 0.2 0  0.375 0.2 0  0.4 0.2 0  0.425 0.2 0  0.45 0.2 0  0.475 0.2 0  0.5 0.2 0  0.525 0.2 0  0.55 0.2 0  0.575 0.2 0  0.6 0.2 0  0.625 0.2 0  0.65 0.2 0  0.675 0.2 0  0.7 0.2 0  0.725 0.2 0  0.75 0.2 0  0.775 0.2 0  0.8 0.2 0  0.825 0.2 0  0.85 0.2 0  0.875 0.2 0  0.9 0.2 0  0.925 0.2 0  0.95 0.2 0  0.975 0.2 0  1 0.2 0  0 0.225 0  0.025 0.225 0  0.05 0.225 0  0.075 0.225 0  0.1 0.225 0  0.125 0.225 0  0.15 0.225 0  0.175 0.225 0  0.2 0.225 0  0.225 0.225 0  0.25 0.225 0  0.275 0.225 0  0.3 0.225 0  0.325 0.225 0  0.35 0.225 0  0.375 0.225 0  0.4 0.225 0  0.425 0.225 0  0.45 0.225 0  0.475 0.225 0  0.5 0.225 0  0.525 0.225 0  0.55 0.225 0  0.575 0.225 0  0.6 0.225 0  0.625 0.225 0  0.65 0.225 0  0.675 0.225 0  0.7 0.225 0  0.725 0.225 0  0.75 0.225 0  0.775 0.225 0  0.8 0.225 0  0.825 0.225 0  0.85 0.225 0  0.875 0.225 0  0.9 0.225 0  0.925 0.225 0  0.95 0.225 0  0.975 0.225 0  1 0.225 0  0 0.25 0  0.025 0.25 0  0.05 0.25 0  0.075 0.25 0  0.1 0.25 0  0.125 0.25 0  0.15 0.25 0  0.175 0.25 0  0.2 0.25 0  0.225 0.25 0  0.25 0.25 0  0.275 0.25 0  0.3 0.25 0  0.325 0.25 0  0.35 0.25 0  0.375 0.25 0  0.4 0.25 0  0.425 0.25 0  0.45 0.25 0  0.475 0.25 0  0.5 0.25 0  0.525 0.25 0  0.55 0.25 0  0.575 0.25 0  0.6 0.25 0  0.625 0.25 0  0.65 0.25 0  0.675 0.25 0  0.7 0.25 0  0.725 0.25 0  0.75 0.25 0  0.775 0.25 0  0.8 0.25 0  0.825 0.25 0  0.85 0.25 0  0.875 0.25 0  0.9 0.25 0  0.925 0.25 0  0.95 0.25 0  0.975 0.25 0  1 0.25 0  0 0.275 0  0.025 0.275 0  0.05 0.275 0  0.075 0.275 0  0.1 0.275 0  0.125 0.275 0  0.15 0.275 0  0.175 0.275 0  0.2 0.275 0  0.225 0.275 0  0.25 0.275 0  0.275 0.275 0  0.3 0.275 0  0.325 0.275 0  0.35 0.275 0  0.375 0.275 0  0.4 0.275 0  0.425 0.275 0  0.45 0.275 0  0.475 0.275 0  0.5 0.275 0  0.525 0.275 0  0.55 0.275 0  0.575 0.275 0  0.6 0.275 0  0.625 0.275 0  0.65 0.275 0  0.675 0.275 0  0.7 0.275 0  0.725 0.275 0  0.75 0.275 0  0.775 0.275 0  0.8 0.275 0  0.825 0.275 0  0.85 0.275 0  0.875 0.275 0  0.9 0.275 0  0.925 0.275 0  0.95 0.275 0  0.975 0.275 0  1 0.275 0  0 0.3 0  0.025 0.3 0  0.05 0.3 0  0.075 0.3 0  0.1 0.3 0  0.125 0.3 0  0.15 0.3 0  0.175 0.3 0  0.2 0.3 0  0.225 0.3 0  0.25 0.3 0  0.275 0.3 0  0.3 0.3 0  0.325 0.3 0  0.35 0.3 0  0.375 0.3 0  0.4 0.3 0  0.425 0.3 0  0.45 0.3 0  0.475 0.3 0  0.5 0.3 0  0.525 0.3 0  0.55 0.3 0  0.575 0.3 0  0.6 0.3 0  0.625 0.3 0  0.65 0.3 0  0.675 0.3 0  0.7 0.3 0  0.725 0.3 0  0.75 0.3 0  0.775 0.3 0  0.8 0.3 0  0.825 0.3 0  0.85 0.3 0  0.875 0.3 0  0.9 0.3 0  0.925 0.3 0  0.95 0.3 0  0.975 0.3 0  1 0.3 0  0 0.325 0  0.025 0.325 0  0.05 0.325 0  0.075 0.325 0  0.1 0.325 0  0.125 0.325 0  0.15 0.325 0  0.175 0.325 0  0.2 0.325 0  0.225 0.325 0  0.25 0.325 0  0.275 0.325 0  0.3 0.325 0  0.325 0.325 0  0.35 0.325 0  0.375 0.325 0  0.4 0.325 0  0.425 0.325 0  0.45 0.325 0  0.475 0.325 0  0.5 0.325 0  0.525 0.325 0  0.55 0.325 0  0.575 0.325 0  0.6 0.325 0  0.625 0.325 0  0.65 0.325 0  0.675 0.325 0  0.7 0.325 0  0.725 0.325 0  0.75 0.325 0  0.775 0.325 0  0.8 0.325 0  0.825 0.325 0  0.85 0.325 0  0.875 0.325 0  0.9 0.325 0  0.925 0.325 0  0.95 0.325 0  0.975 0.325 0  1 0.325 0  0 0.35 0  0.025 0.35 0  0.05 0.35 0  0.075 0.35 0  0.1 0.35 0  0.125 0.35 0  0.15 0.35 0  0.175 0.35 0  0.2 0.35 0  0.225 0.35 0  0.25 0.35 0  0.275 0.35 0  0.3 0.35 0  0.325 0.35 0  0.35 0.35 0  0.375 0.35 0  0.4 0.35 0  0.425 0.35 0  0.45 0.35 0  0.475 0.35 0  0.5 0.35 0  0.525 0.35 0  0.55 0.35 0  0.575 0.35 0  0.6 0.35 0  0.625 0.35 0  0.65 0.35 0  0.675 0.35 0  0.7 0.35 0  0.725 0.35 0  0.75 0.35 0  0.775 0.35 0  0.8 0.35 0  0.825 0.35 0  0.85 0.35 0  0.875 0.35 0  0.9 0.35 0  0.925 0.35 0  0.95 0.35 0  0.975 0.35 0  1 0.35 0  0 0.375 0  0.025 0.375 0  0.05 0.375 0  0.075 0.375 0  0.1 0.375 0  0.125 0.375 0  0.15 0.375 0  0.175 0.375 0  0.2 0.375 0  0.225 0.375 0  0.25 0.375 0  0.275 0.375 0  0.3 0.375 0  0.325 0.375 0  0.35 0.375 0  0.375 0.375 0  0.4 0.375 0  0.425 0.375 0  0.45 0.375 0  0.475 0.375 0  0.5 0.375 0  0.525 0.375 0  0.55 0.375 0  0.575 0.375 0  0.6 0.375 0  0.625 0.375 0  0.65 0.375 0  0.675 0.375 0  0.7 0.375 0  0.725 0.375 0  0.75 0.375 0  0.775 0.375 0  0.8 0.375 0  0.825 0.375 0  0.85 0.375 0  0.875 0.375 0  0.9 0.375 0  0.925 0.375 0  0.95 0.375 0  0.975 0.375 0  1 0.375 0  0 0.4 0  0.025 0.4 0  0.05 0.4 0  0.075 0.4 0  0.1 0.4 0  0.125 0.4 0  0.15 0.4 0  0.175 0.4 0  0.2 0.4 0  0.225 0.4 0  0.25 0.4 0  0.275 0.4 0  0.3 0.4 0  0.325 0.4 0  0.35 0.4 0  0.375 0.4 0  0.4 0.4 0  0.425 0.4 0  0.45 0.4 0  0.475 0.4 0  0.5 0.4 0  0.525 0.4 0  0.55 0.4 0  0.575 0.4 0  0.6 0.4 0  0.625 0.4 0  0.65 0.4 0  0.675 0.4 0  0.7 0.4 0  0.725 0.4 0  0.75 0.4 0  0.775 0.4 0  0.8 0.4 0  0.825 0.4 0  0.85 0.4 0  0.875 0.4 0  0.9 0.4 0  0.925 0.4 0  0.95 0.4 0  0.975 0.4 0  1 0.4 0  0 0.425 0  0.025 0.425 0  0.05 0.425 0  0.075 0.425 0  0.1 0.425 0  0.125 0.425 0  0.15 0.425 0  0.175 0.425 0  0.2 0.425 0  0.225 0.425 0  0.25 0.425 0  0.275 0.425 0  0.3 0.425 0  0.325 0.425 0  0.35 0.425 0  0.375 0.425 0  0.4 0.425 0  0.425 0.425 0  0.45 0.425 0  0.475 0.425 0  0.5 0.425 0  0.525 0.425 0  0.55 0.425 0  0.575 0.425 0  0.6 0.425 0  0.625 0.425 0  0.65 0.425 0  0.675 0.425 0  0.7 0.425 0  0.725 0.425 0  0.75 0.425 0  0.775 0.425 0  0.8 0.425 0  0.825 0.425 0  0.85 0.425 0  0.875 0.425 0  0.9 0.425 0  0.925 0.425 0  0.95 0.425 0  0.975 0.425 0  1 0.425 0  0 0.45 0  0.02
[...]
<PointData  Scalars="ControlVisualisation"> 
<DataArray  type="Float64"  Name="ControlVisualisation"  format="ascii">2.2134297230420550e-06  1.4725203246772866e-06  1.4733433267799898e-06  1.4749899074022436e-06  1.4775086582222018e-06  1.4806239498744747e-06  1.4838522852038873e-06  1.4867893140579024e-06  1.4892595251602115e-06  1.4912733789430594e-06  1.4929089167682062e-06  1.4942433746094593e-06  1.4953177738395620e-06  1.4961765165466021e-06  1.4968522750238806e-06  1.4973653005862509e-06  1.4977421265899396e-06  1.4980106378419963e-06  1.4981855391333292e-06  1.4982753346672032e-06  1.4982861275741402e-06  1.4982258377108831e-06  1.4980848514849481e-06  1.4978537622036780e-06  1.4975145418538556e-06  1.4970565713357483e-06  1.4964437374949374e-06  1.4956521755077418e-06  1.4946562909094192e-06  1.4934165993798745e-06  1.4918907998687941e-06  1.4900211427978806e-06  1.4877407881432507e-06  1.4849989151093206e-06  1.4818757292214353e-06  1.4786924139320814e-06  1.4759220441987313e-06  1.4739314337039504e-06  1.4727985432564473e-06  1.4723328882692334e-06  4.4368254311559990e-06  1.4724857129122305e-06  7.3149397135023399e-07  7.3232358094259208e-07  7.3406265396585032e-07  7.3682108553651048e-07  7.4032480209593453e-07  7.4402677924921026e-07  7.4742955857680667e-07  7.5031671157619066e-07  7.5269018541603768e-07  7.5463709095713793e-07  7.5623734220499510e-07  7.5754373583030404e-07  7.5858859323119621e-07  7.5941728990296213e-07  7.6005059705131694e-07  7.6052121654458295e-07  7.6085892712647597e-07  7.6108364393105964e-07  7.6120734312847221e-07  7.6124016411911149e-07  7.6118985957867721e-07  7.6104842007267838e-07  7.6080554683631595e-07  7.6044541597317823e-07  7.5994743731691160e-07  7.5928191970389987e-07  7.5841592413155403e-07  7.5732235504098573e-07  7.5596410101227833e-07  7.5429659308725694e-07  7.5227598374398154e-07  7.4983018006044809e-07  7.4686986526348077e-07  7.4340273514294297e-07  7.3970017418384213e-07  7.3630520084168262e-07  7.3373136447420305e-07  7.3216367577832016e-07  7.3142446507959973e-07  1.4723282913883948e-06  1.4729147366523778e-06  7.3206097553133143e-07  7.3328361505592768e-07  7.3565831513271120e-07  7.3930366458041229e-07  7.4372739929347727e-07  7.4799204873984128e-07  7.5161552746740710e-07  7.5458278916783712e-07  7.5703829626540022e-07  7.5911895662191214e-07  7.6088429402785381e-07  7.6235145957167121e-07  7.6353239228451218e-07  7.6446175408223474e-07  7.6517479048629541e-07  7.6569950846118609e-07  7.6607441932829718e-07  7.6632491472365893e-07  7.6646211373622652e-07  7.6650050586059291e-07  7.6644795420680392e-07  7.6629405922013700e-07  7.6602565099030225e-07  7.6563071819394986e-07  7.6508196119935840e-07  7.6434381435290086e-07  7.6338340783704169e-07  7.6216413633010082e-07  7.6066369235055166e-07  7.5885032664288177e-07  7.5673237203134244e-07  7.5419020092456477e-07  7.5121589551400486e-07  7.4747175854599625e-07  7.4305768761658362e-07  7.3871240440282908e-07  7.3527417165157605e-07  7.3306145775060404e-07  7.3192932606330196e-07  1.4726649980513600e-06  1.4731718530041435e-06  7.3276722292074313e-07  7.3495117178809837e-07  7.3890098292331154e-07  7.4419247114293015e-07  7.5001832252643224e-07  7.5426941222400424e-07  7.5769708899313394e-07  7.6067804441203691e-07  7.6360965290015488e-07  7.6649692833850768e-07  7.6919657987478583e-07  7.7156140475916982e-07  7.7353233958781766e-07  7.7512232419508977e-07  7.7638161891604889e-07  7.7734137407845855e-07  7.7804271621751748e-07  7.7851225898321979e-07  7.7877157527217622e-07  7.7882708837740132e-07  7.7868740227078436e-07  7.7834250858336034e-07  7.7777706591420543e-07  7.7697982466341675e-07  7.7592023950875159e-07  7.7455400031186468e-07  7.7284929279248393e-07  7.7075190027643301e-07  7.6832556844593046e-07  7.6555952302124999e-07  7.6267238077711852e-07  7.5955595863332527e-07  7.5711868684328911e-07  7.5366692346533159e-07  7.4869530663938445e-07  7.4294627405268678e-07  7.3790869474074455e-07  7.3430803464072783e-07  7.3234966682274822e-07  1.4730745988719703e-06  1.4723153367997247e-06  7.3340207044662844e-07  7.4283254565098782e-07  7.6300912277542880e-07  7.9186622507670812e-07  8.2866048463538950e-07  8.5399564052145144e-07  8.7266702977210692e-07  8.9771164241245378e-07  9.2352496987876902e-07  9.5042436877505656e-07  9.7662390424175040e-07  1.0005838580867727e-06  1.0216826437455693e-06  1.0398065938424029e-06  1.0550403850042211e-06  1.0674522187479932e-06  1.0770962044867013e-06  1.0840073999298257e-06  1.0882157243095540e-06  1.0897464871865909e-06  1.0885633849043093e-06  1.0846664646003688e-06  1.0780447322715312e-06  1.0686558878724615e-06  1.0564421226524744e-06  1.0412979751857165e-06  1.0231560106204862e-06  1.0017866078778293e-06  9.7794049439988629e-07  9.5099270364187519e-07  9.2225400782935364e-07  8.9249709554633559e-07  8.7121236253702722e-07  8.4075263949094929e-07  8.0288420280945999e-07  7.6993227788115971e-07  7.4900029538396740e-07  7.3887254102767718e-07  7.3362274858194402e-07  1.4729978599154017e-06  1.5584929428000938e-06  7.7820443499301040e-07  8.7753469660524351e-07  1.0960823396061816e-06  1.6750249170190294e-06  3.7702755488864415e-06  2.0874230404446647e-03  4.1189350168242010e-02  7.1660248161055262e-02  1.0367026263210476e-01  1.3273193691460108e-01  1.5764605609472876e-01  1.7878386925975689e-01  1.9633463058390757e-01  2.1070664336588030e-01  2.2239987714178350e-01  2.3174956693700050e-01  2.3885560151307939e-01  2.4385144913135581e-01  2.4684584213001168e-01  2.4793555552189278e-01  2.4711931291991091e-01  2.4436413936309234e-01  2.3962874685123664e-01  2.3279691339681174e-01  2.2373069616684088e-01  2.1225513066224416e-01  1.9805844298693265e-01  1.8065940493218804e-01  1.5982316826440535e-01  1.3444025611378582e-01  1.0648593146036174e-01  7.6174051725498251e-02  4.4950203203200471e-02  4.1625706076840767e-03  3.8684547271971597e-06  1.6612908959824263e-06  1.1350397568582626e-06  8.5868593932675276e-07  7.4988765589192592e-07  1.4863052721697773e-06  1.6541914833395873e-06  1.4552992941457774e-06  1.5565619708305461e-01  4.1150249129092248e-01  5.9452844426209006e-01  7.4166071442035020e-01  8.5152455696723961e-01  9.2352420932936397e-01  9.7051565999376144e-01  9.9993784361296723e-01  9.9998305081116790e-01  9.9998984168003391e-01  9.9999237801928542e-01  9.9999369336712085e-01  9.9999448279913561e-01  9.9999499368892797e-01  9.9999533696081511e-01  9.9999556758816543e-01  9.9999571578270818e-01  9.9999579883352263e-01  9.9999582502764961e-01  9.9999579692886176e-01  9.9999571184906411e-01  9.9999556075889529e-01  9.9999532617542231e-01  9.9999497650266933e-01  9.9999445372471052e-01  9.9999364150271097e-01  9.9999227677817903e-01  9.9998959827774658e-01  9.9998215591493422e-01  9.9991948831841471e-01  9.6806759887317217e-01  9.1725935156477556e-01  8.5139330226755616e-01  7.5051909147476559e-01  5.9937930302237752e-01  4.1248630543262588e-01  1.3317134576864229e-01  1.3155173012114460e-06  1.5645004767448908e-06  9.9998822294058443e-01  9.9999008177364868e-01  9.9999852480617157e-01  9.9999897969520857e-01  9.9999908740428445e-01  9.9999914546927315e-01  9.9999917695156415e-01  9.9999919630713341e-01  9.9999921088073362e-01  9.9999922485554538e-01  9.9999924212977087e-01  9.9999926115739102e-01  9.9999927763178931e-01  9.9999929183029856e-01  9.9999930383502122e-01  9.9999931373416284e-01  9.9999932166158179e-01  9.9999932772105782e-01  9.9999933202335523e-01  9.9999933466542490e-01  9.9999933569828414e-01  9.9999933514050587e-01  9.9999933298947818e-01  9.9999932918899548e-01  9.9999932365245781e-01  9.9999931627729277e-01  9.9999930694007189e-01  9.9999929551813849e-01  9.9999928191049603e-01  9.9999926601459088e-01  9.9999924760126147e-01  9.9999922607219849e-01  9.9999920534282094e-01  9.9999918570468838e-01  9.9999915720597321e-01  9.9999911186105928e-01  9.9999904213832680e-01  9.9999890519471246e-01  9.9999852643785947e-01  9.9999691936701152e-01  4.3909323275438572e-01  9.9999961709112983e-01  9.9999975145029618e-01  9.9999972512445012e-01  9.9999969886630991e-01  9.9999967846696913e-01  9.9999966474060542e-01  9.9999965644917610e-01  9.9999965168313665e-01  9.9999964905539007e-01  9.9999964797023999e-01  9.9999964803862573e-01  9.9999964892011772e-01  9.9999965029352400e-01  9.9999965189837581e-01  9.9999965353117037e-01  9.9999965504878674e-01  9.9999965636870869e-01  9.9999965744086794e-01  9.9999965823721659e-01  9.9999965874983909e-01  9.9999965897117682e-01  9.9999965890153120e-01  9.9999965854369277e-01  9.9999965790250611e-01  9.9999965698791804e-01  9.9999965582422634e-01  9.9999965446040917e-01  9.9999965297905147e-01  9.9999965151930514e-01  9.9999965028699889e-01  9.9999964957142906e-01  9.9999964975165867e-01  9.9999965129170454e-01  9.9999965476460384e-01  9.9999966103246551e-01  9.9999967159094494e-01  9.9999968833266906e-01  9.9999971186513548e-01  9.9999973970155032e-01  9.9999976607916952e-01  9.9999943238718725e-01  9.9999981042999231e-01  9.9999989184439841e-01  9.9999986614216230e-01  9.9999983553713767e-01  9.9999980713146597e-01  9.9999978446064597e-01  9.9999976820711201e-01  9.9999975725076795e-01  9.9999975007038844e-01  9.9999974544968429e-01  9.9999974254461554e-01  9.9999974078707432e-01  9.9999973979156431e-01  9.9999973928967223e-01  9.9999973909383433e-01  9.9999973907300599e-01  9.9999973914103324e-01  9.9999973924747931e-01  9.9999973935256481e-01  9.9999973943938214e-01  9.9999973949522269e-01  9.9999973951799392e-01  9.9999973951166787e-01  9.9999973948527154e-01  9.9999973946005760e-01  9.9999973946826670e-01  9.9999973956583499e-01  9.9999973983711132e-01  9.9999974041233330e-01  9.9999974148083426e-01  9.9999974332474995e-01  9.9999974635569400e-01  9.9999975118150619e-01  9.9999975869782276e-01  9.9999977016387143e-01  9.9999978705655923e-01  9.9999981034243679e-01  9.9999983910895318e-01  9.9999986936575291e-01  9.9999989384683152e-01  9.9999977955063446e-01  9.9999983592006458e-01  9.9999991416066258e-01  9.9999989154018798e-01  9.9999986259167117e-01  9.9999983376111501e-01  9.9999980940350974e-01  9.9999979101530312e-01  9.9999977802762963e-01  9.9999976911496713e-01  9.9999976300611482e-01  9.9999975876183700e-01  9.9999975576211608e-01  9.9999975361003390e-01  9.9999975205027114e-01  9.9999975091424931e-01  9.9999975008653508e-01  9.9999974948958181e-01  9.9999974907377343e-01  9.9999974880442977e-01  9.9999974865935926e-01  9.9999974862636376e-01  9.9999974870232267e-01  9.9999974889171739e-01  9.9999974920464663e-01  9.9999974966376537e-01  9.9999975030435750e-01  9.9999975117701900e-01  9.9999975235928518e-01  9.9999975396418350e-01  9.9999975616032244e-01  9.9999975920131856e-01  9.9999976348317610e-01  9.9999976961902204e-01  9.9999977853585420e-01  9.9999979148675799e-01  9.9999980978538106e-01  9.9999983401983883e-01  9.9999986273930797e-01  9.9999989162241953e-01  9.9999991420889411e-01  9.9999983595905095e-01  9.9999977928582695e-01  9.9999989327602101e-01  9.9999986760689330e-01  9.9999983545249282e-01  9.9999980406224565e-01  9.9999977758059699e-01  9.9999975725727508e-01  9.9999974242766743e-01  9.9999973171684120e-01  9.9999972383075886e-01  9.9999971783364772e-01  9.9999971313328961e-01  9.9999970936840143e-01  9.9999970632279123e-01  9.9999970386131820e-01  9.9999970189153797e-01  9.9999970034988273e-01  9.9999969919140963e-01  9.9999969838758795e-01  9.9999969791359899e-01  9.9999969775654451e-01  9.9999969791417842e-01  9.9999969839124203e-01  9.9999969919876197e-01  9.9999970036049768e-01  9.9999970191096543e-01  9.9999970389455295e-01  9.9999970637598723e-01  9.9999970944407202e-01  9.9999971322785564e-01  9.9999971792785258e-01  9.9999972387195712e-01  9.9999973159950073e-01  9.9999974197229768e-01  9.9999975620803339e-01  9.9999977569959098e-01  9.9999980129867794e-01  9.9999983209832732e-01  9.9999986449557909e-01  9.9999989136615075e-01  9.9999981030895724e-01  9.9999943098713795e-01  9.9999976272757207e-01  9.9999973041805568e-01  9.9999969480704443e-01  9.9999966155967934e-01  9.9999963354893262e-01  9.9999961117828540e-01  9.9999959332458188e-01  9.9999957856445265e-01  9.9999956583896721e-01  9.9999955453667821e-01  9.9999954438361038e-01  9.9999953528900254e-01  9.9999952723562702e-01  9.9999952024678285e-01  9.9999951433183409e-01  9.9999950949545979e-01  9.9999950573294372e-01  9.9999950304014973e-01  9.9999950139607130e-01  9.9999950079683497e-01  9.9999950124292292e-01  9.9999950273823313e-01  9.9999950529141468e-01  9.9999950892107725e-01  9.9999951364076378e-01  9.9999951946220489e-01  9.9999952638762313e-01  9.9999953439944100e-01  9.9999954346293185e-01  9.9999955354940828e-01  9.9999956466590401e-01  9.9999957693979458e-01  9.9999959076667277e-01  9.9999960693461631e-01  9.9999962672183917e-01  9.9999965125934198e-01  9.9999968105001524e-01  9.9999971503879648e-01  9.9999974767912803e-01  9.9999961613388288e-01  4.3183148296385515e-01  9.9999649477122710e-01  9.9999831648984117e-01  9.9999872482468222e-01  9.9999884780434045e-01  9.9999888440693230e-01  9.9999888857259334e-01  9.9999887343519123e-01  9.9999884531953831e-01  9.9999880811848452e-01  9.9999876499242979e-01  9.9999871864892675e-01  9.9999867145343879e-01  9.9999862537029571e-01  9.9999858217816462e-01  9.9999854325212012e-01  9.9999850964328829e-01  9.9999848224165278e-01  9.9999846167893613e-01  9.9999844832131257e-01  9.9999844244512981e-01  9.9999844417274797e-01  9.9999845349580518e-01  9.9999847026069766e-01  9.9999849413738917e-01  9.9999852466688233e-01  9.9999856113958041e-01  9.9999860265579166e-01  9.9999864800884009e-01  9.9999869570435673e-01  9.9999874391429600e-01  9.9999879050162888e-01  9.9999883295026837e-01  9.9999886838348806e-01  9.9999889288385457e-01  9.9999890180020989e-01  9.9999887569838286e-01  9.9999878775209272e-01  9.9999823812293420e-01  9.9998108186249890e-01  9.9998744944042495e-01  1.5620074797711104e-06  1.2463700930575873e-06  9.3117042618685836e-02  3.3047626485142373e-01  4.6729582827882599e-01  5.6148894690282025e-01  6.1178398835466619e-01  6.3332663634525266e-01  6.3610246090034428e-01  6.2789714726158263e-01  6.1396886255719452e-01  5.9770392603901634e-01  5.8116256321188076e-01  5.6558898737390795e-01  5.5164347543480607e-01  5.3969228389336377e-01  5.2983981644717881e-01  5.2215569629183267e-01  5.1662235710569671e-01  5.1319169168656353e-01  5.1184118317262361e-01  5.1257428266742711e-01  5.1539326672083308e-01  5.2033516540506786e-01  5.2741063975793390e-01  5.3663787442815603e-01  5.4800605975085537e-01  5.6136253025076077e-01  5.7640818849877651e-01  5.9249967831346084e-01  6.0845499026275851e-01  6.2220930477515457e-01  6.3038463065387973e-01  6.2769105533722169e-01  6.0620449686245570e-01  5.5595763842475499e-01  4.6280139001859416e-01  3.2962803404230262e-01  1.1284444049213993e-01  1.3616597779133274e-06  1.6466243402135345e-06  1.4858808225915055e-06  7.4959411196312042e-07  8.3979373062879989e-07  1.0384620587497405e-06  1.2637022356001832e-06  1.6443047913304928e-06  2.0288042823125366e-06  2.3138290441246821e-06  2.4264193565742228e-06  2.4012496036331682e-06  2.3061461831118992e-06  2.1918803998936501e-06  2.0832968801655426e-06  1.9899947285996633e-06  1.9134813141504324e-06  1.8527197330547996e-06  1.8058845064465582e-06  1.7711366950923947e-06  1.7470857008406734e-06  1.7326124436642552e-06  1.7271253982717466e-06  1.7303953696500607e-06  1.7425818826228496e-06  1.7642497826998150e-06  1.7962509848181298e-06  1.8398843789107309e-06  1.8969302496025538e-06  1.9689224945207575e-06  2.0568237114784619e-06  2.1588884257143626e-06  2.2664854191566951e-06  2.3562827630641463e-06  2.3817736825537980e-06  2.2795142133801591e-06  2.0155397609012556e-06  1.6425967930062304e-06  1.2807984624299618e-06  1.0095381566759824e-06  8.6347827733104138e-07  7.7679554975144917e-07  1.5590401717067081e-06  1.4733932413604986e-06  7.3412398583515994e-07  7.3942596315179499e-07  7.4736765767039812e-07  7.6133755522631374e-07  7.7959841759910852e-07  7.9359887445463059e-07  8.0306608611989560e-07  8.0812892344267618e-07  8.1018886883858353e-07  8.1042956011636663e-07  8.0972159114875447e-07  8.0858548971948615e-07  8.0732796499754265e-07  8.0611892387178455e-07  8.0503011877067855e-07  8.0411038071337540e-07  8.0335720897906802e-07  8.0279172813742890e-07  8.0240131764961789e-07  8.0218636748345889e-07  8.0214441192470965e-07  8.0226978763406030e-07  8.0256888762009774e-07  8.0303258942471622e-07  8.0365490843688534e-07  8.0443328334642219e-07  8.0534601108978176e-07  8.0633700237569859e-07  8.0731637403084850e-07  8.0808544049131718e-07  8.0832437874825247e-07  8.0745017120432518e-07  8.0457958675147498e-07  7.9854261236003713e-07  7.8824489178335484e-07  7.7356146424072069e-07  7.5685397735698408e-07  7.4217668585642240e-07  7.3377756486502562e-07  1.4726625934897844e-06  1.4733736764817713e-06  7.3271098271670530e-07  7.3472162293477678e-07  7.3809092196755511e-07  7.4247951936237045e-07  7.4735249388669142e-07  7.5184525937305280e-07  7.5583956488631090e-07  7.5905373996174225e-07  7.6157386420973075e-07  7.6350113202734525e-07  7.6495916982555441e-07  7.6605612861813516e-07  7.6687439467863029e-07  7.6748860080049823e-07  7.6793982631835091e-07  7.6826820396021770e-07  7.6849513130010446e-07  7.6864552152291684e-07  7.6872674505568932e-07  7.6874910334273206e-07  7.6871447040930635e-07  7.6861749916152568e-07  7.6845352976415524e-07  7.6821010003806927e-07  7.6786805363968440e-07  7.6740103662606386e-07  7.6677127172612861e-07  7.6593751698642501e-07  7.6484069785142756e-07  7.6339847794011197e-07  7.6152585509988786e-07  7.5912548002953356e-07  7.5609695069276951e-07  7.5239648547469955e-07  7.4809582336199994e-07  7.4346913489675135e-07  7.3903638311795473e-07  7.3548022791080907e-07  7.3328167759352166e-07  1.4736384053651795e-06  1.4728483616410190e-06  7.3217405277925459e-07  7.3335597777510070e-07  7.3548301077788867e-07  7.3866092176003793e-07  7.4268361332594797e-07  7.4701330255314510e-07  7.5116511321216521e-07  7.5482758533238554e-07  7.5789413486998583e-07  7.6036244958051626e-07  7.6229492881221313e-07  7.6378434255484613e-07  7.6491506933413280e-07  7.6576980406725599e-07  7.6640381964411696e-07  7.6686411610623336e-07  7.6718834666655131e-07  7.6740366406245725e-07  7.6752721206673157e-07  7.6756389433389326e-07  7.6752079807695444e-07  7.6739522109340209e-07  7.6717684661799853e-07  7.6684219583402959e-07  7.6637543266541639e-07  7.6573908165540056e-07  7.6488107584389918e-07  7.6374499752897584e-07  7.6225749692928003e-07  7.6033755084876417e-07  7.5790418552459579e-07  7.5490149118846110e-07  7.5133130891814642e-07  7.4730369541824601e-07  7.4309064256875093e-07  7.3911637888425471e-07  7.3585920838204019e-07  7.3366616288838132e-07  7.3241970515455808e-07  1.4732525569360716e-06  1.4724053174781056e-06  7.3157739898760122e-07  7.3247387820085785e-07  7.3424397593607777e-07  7.3704314636533062e-07  7.4072290729165773e-07  7.4488688933100029e-07  7.4908233528495399e-07  7.5295944716481101e-07  7.5630998829540209e-07  7.5907560008610065e-07  7.6127687166928412e-07  7.6299066751139769e-07  7.6430306218009628e-07  7.6529190645524217e-07  7.6602787341856646e-07  7.6656182808458875e-07  7.6694013726959061e-07  7.6719019643216738e-07  7.6733331574850871e-07  7.6737905897490602e-07  7.6732935141340693e-07  7.6718521455856485e-07  7.6693681351731388e-07  7.6655433290301127e-07  7.6601346642416444e-07  7.6527734588467169e-07  7.6428829416071532e-07  7.6297632571053584e-07  7.6126443001414911e-07  7.5907143655005939e-07  7.5632685816534844e-07  7.5300800851506609e-07  7.4917585138122796e-07  7.4502558279716199e-07  7.4090047101082697e-07  7.3723583023175919e-07  7.3441292464397225e-07  7.3260397345183342e-07  7.3168811627714961e-07  1.4726812897430752e-06  1.4723277674464204e-06  7.3137827607484581e-07  7.3221152008038642e-07  7.3392186374584468e-07  7.3662257530483711e-07  7.4019065892896117e-07  7.4428235454256638e-07  7.4846803250048010e-07  7.523852950