<?xml version="1.0"?>
<VTKFile type="UnstructuredGrid"  version="0.1"  >
<UnstructuredGrid>
<Piece  NumberOfPoints="1681" NumberOfCells="3200">
<Points>
<DataArray  type="Float64"  NumberOfComponents="3"  format="ascii">0 0 0  0.025 0 0  0.05 0 0  0.075 0 0  0.1 0 0  0.125 0 0  0.15 0 0  0.175 0 0  0.2 0 0  0.225 0 0  0.25 0 0  0.275 0 0  0.3 0 0  0.325 0 0  0.35 0 0  0.375 0 0  0.4 0 0  0.425 0 0  0.45 0 0  0.475 0 0  0.5 0 0  0.525 0 0  0.55 0 0  0.575 0 0  0.6 0 0  0.625 0 0  0.65 0 0  0.675 0 0  0.7 0 0  0.725 0 0  0.75 0 0  0.775 0 0  0.8 0 0  0.825 0 0  0.85 0 0  0.875 0 0  0.9 0 0  0.925 0 0  0.95 0 0  0.975 0 0  1 0 0  0 0.025 0  0.025 0.025 0  0.05 0.025 0  0.075 0.025 0  0.1 0.025 0  0.125 0.025 0  0.15 0.025 0  0.175 0.025 0  0.2 0.025 0  0.225 0.025 0  0.25 0.025 0  0.275 0.025 0  0.3 0.025 0  0.325 0.025 0  0.35 0.025 0  0.375 0.025 0  0.4 0.025 0  0.425 0.025 0  0.45 0.025 0  0.475 0.025 0  0.5 0.025 0  0.525 0.025 0  0.55 0.025 0  0.575 0.025 0  0.6 0.025 0  0.625 0.025 0  0.65 0.025 0  0.675 0.025 0  0.7 0.025 0  0.725 0.025 0  0.75 0.025 0  0.775 0.025 0  0.8 0.025 0  0.825 0.025 0  0.85 0.025 0  0.875 0.025 0  0.9 0.025 0  0.925 0.025 0  0.95 0.025 0  0.975 0.025 0  1 0.025 0  0 0.05 0  0.025 0.05 0  0.05 0.05 0  0.075 0.05 0  0.1 0.05 0  0.125 0.05 0  0.15 0.05 0  0.175 0.05 0  0.2 0.05 0  0.225 0.05 0  0.25 0.05 0  0.275 0.05 0  0.3 0.05 0  0.325 0.05 0  0.35 0.05 0  0.375 0.05 0  0.4 0.05 0  0.425 0.05 0  0.45 0.05 0  0.475 0.05 0  0.5 0.05 0  0.525 0.05 0  0.55 0.05 0  0.575 0.05 0  0.6 0.05 0  0.625 0.05 0  0.65 0.05 0  0.675 0.05 0  0.7 0.05 0  0.725 0.05 0  0.75 0.05 0  0.775 0.05 0  0.8 0.05 0  0.825 0.05 0  0.85 0.05 0  0.875 0.05 0  0.9 0.05 0  0.925 0.05 0  0.95 0.05 0  0.975 0.05 0  1 0.05 0  0 0.075 0  0.025 0.075 0  0.05 0.075 0  0.075 0.075 0  0.1 0.075 0  0.125 0.075 0  0.15 0.075 0  0.175 0.075 0  0.2 0.075 0  0.225 0.075 0  0.25 0.075 0  0.275 0.075 0  0.3 0.075 0  0.325 0.075 0  0.35 0.075 0  0.375 0.075 0  0.4 0.075 0  0.425 0.075 0  0.45 0.075 0  0.475 0.075 0  0.5 0.075 0  0.525 0.075 0  0.55 0.075 0  0.575 0.075 0  0.6 0.075 0  0.625 0.075 0  0.65 0.075 0  0.675 0.075 0  0.7 0.075 0  0.725 0.075 0  0.75 0.075 0  0.775 0.075 0  0.8 0.075 0  0.825 0.075 0  0.85 0.075 0  0.875 0.075 0  0.9 0.075 0  0.925 0.075 0  0.95 0.075 0  0.975 0.075 0  1 0.075 0  0 0.1 0  0.025 0.1 0  0.05 0.1 0  0.075 0.1 0  0.1 0.1 0  0.125 0.1 0  0.15 0.1 0  0.175 0.1 0  0.2 0.1 0  0.225 0.1 0  0.25 0.1 0  0.275 0.1 0  0.3 0.1 0  0.325 0.1 0  0.35 0.1 0  0.375 0.1 0  0.4 0.1 0  0.425 0.1 0  0.45 0.1 0  0.475 0.1 0  0.5 0.1 0  0.525 0.1 0  0.55 0.1 0  0.575 0.1 0  0.6 0.1 0  0.625 0.1 0  0.65 0.1 0  0.675 0.1 0  0.7 0.1 0  0.725 0.1 0  0.75 0.1 0  0.775 0.1 0  0.8 0.1 0  0.825 0.1 0  0.85 0.1 0  0.875 0.1 0  0.9 0.1 0  0.925 0.1 0  0.95 0.1 0  0.975 0.1 0  1 0.1 0  0 0.125 0  0.025 0.125 0  0.05 0.125 0  0.075 0.125 0  0.1 0.125 0  0.125 0.125 0  0.15 0.125 0  0.175 0.125 0  0.2 0.125 0  0.225 0.125 0  0.25 0.125 0  0.275 0.125 0  0.3 0.125 0  0.325 0.125 0  0.35 0.125 0  0.375 0.125 0  0.4 0.125 0  0.425 0.125 0  0.45 0.125 0  0.475 0.125 0  0.5 0.125 0  0.525 0.125 0  0.55 0.125 0  0.575 0.125 0  0.6 0.125 0  0.625 0.125 0  0.65 0.125 0  0.675 0.125 0  0.7 0.125 0  0.725 0.125 0  0.75 0.125 0  0.775 0.125 0  0.8 0.125 0  0.825 0.125 0  0.85 0.125 0  0.875 0.125 0  0.9 0.125 0  0.925 0.125 0  0.95 0.125 0  0.975 0.125 0  1 0.125 0  0 0.15 0  0.025 0.15 0  0.05 0.15 0  0.075 0.15 0  0.1 0.15 0  0.125 0.15 0  0.15 0.15 0  0.175 0.15 0  0.2 0.15 0  0.225 0.15 0  0.25 0.15 0  0.275 0.15 0  0.3 0.15 0  0.325 0.15 0  0.35 0.15 0  0.375 0.15 0  0.4 0.15 0  0.425 0.15 0  0.45 0.15 0  0.475 0.15 0  0.5 0.15 0  0.525 0.15 0  0.55 0.15 0  0.575 0.15 0  0.6 0.15 0  0.625 0.15 0  0.65 0.15 0  0.675 0.15 0  0.7 0.15 0  0.725 0.15 0  0.75 0.15 0  0.775 0.15 0  0.8 0.15 0  0.825 0.15 0  0.85 0.15 0  0.875 0.15 0  0.9 0.15 0  0.925 0.15 0  0.95 0.15 0  0.975 0.15 0  1 0.15 0  0 0.175 0  0.025 0.175 0  0.05 0.175 0  0.075 0.175 0  0.1 0.175 0  0.125 0.175 0  0.15 0.175 0  0.175 0.175 0  0.2 0.175 0  0.225 0.175 0  0.25 0.175 0  0.275 0.175 0  0.3 0.175 0  0.325 0.175 0  0.35 0.175 0  0.375 0.175 0  0.4 0.175 0  0.425 0.175 0  0.45 0.175 0  0.475 0.175 0  0.5 0.175 0  0.525 0.175 0  0.55 0.175 0  0.575 0.175 0  0.6 0.175 0  0.625 0.175 0  0.65 0.175 0  0.675 0.175 0  0.7 0.175 0  0.725 0.175 0  0.75 0.175 0  0.775 0.175 0  0.8 0.175 0  0.825 0.175 0  0.85 0.175 0  0.875 0.175 0  0.9 0.175 0  0.925 0.175 0  0.95 0.175 0  0.975 0.175 0  1 0.175 0  0 0.2 0  0.025 0.2 0  0.05 0.2 0  0.075 0.2 0  0.1 0.2 0  0.125 0.2 0  0.15 0.2 0  0.175 0.2 0  0.2 0.2 0  0.225 0.2 0  0.25 0.2 0  0.275 0.2 0  0.3 0.2 0  0.325 0.2 0  0.35 0.2 0  0.375 0.2 0  0.4 0.2 0  0.425 0.2 0  0.45 0.2 0  0.475 0.2 0  0.5 0.2 0  0.525 0.2 0  0.55 0.2 0  0.575 0.2 0  0.6 0.2 0  0.625 0.2 0  0.65 0.2 0  0.675 0.2 0  0.7 0.2 0  0.725 0.2 0  0.75 0.2 0  0.775 0.2 0  0.8 0.2 0  0.825 0.2 0  0.85 0.2 0  0.875 0.2 0  0.9 0.2 0  0.925 0.2 0  0.95 0.2 0  0.975 0.2 0  1 0.2 0  0 0.225 0  0.025 0.225 0  0.05 0.225 0  0.075 0.225 0  0.1 0.225 0  0.125 0.225 0  0.15 0.225 0  0.175 0.225 0  0.2 0.225 0  0.225 0.225 0  0.25 0.225 0  0.275 0.225 0  0.3 0.225 0  0.325 0.225 0  0.35 0.225 0  0.375 0.225 0  0.4 0.225 0  0.425 0.225 0  0.45 0.225 0  0.475 0.225 0  0.5 0.225 0  0.525 0.225 0  0.55 0.225 0  0.575 0.225 0  0.6 0.225 0  0.625 0.225 0  0.65 0.225 0  0.675 0.225 0  0.7 0.225 0  0.725 0.225 0  0.75 0.225 0  0.775 0.225 0  0.8 0.225 0  0.825 0.225 0  0.85 0.225 0  0.875 0.225 0  0.9 0.225 0  0.925 0.225 0  0.95 0.225 0  0.975 0.225 0  1 0.225 0  0 0.25 0  0.025 0.25 0  0.05 0.25 0  0.075 0.25 0  0.1 0.25 0  0.125 0.25 0  0.15 0.25 0  0.175 0.25 0  0.2 0.25 0  0.225 0.25 0  0.25 0.25 0  0.275 0.25 0  0.3 0.25 0  0.325 0.25 0  0.35 0.25 0  0.375 0.25 0  0.4 0.25 0  0.425 0.25 0  0.45 0.25 0  0.475 0.25 0  0.5 0.25 0  0.525 0.25 0  0.55 0.25 0  0.575 0.25 0  0.6 0.25 0  0.625 0.25 0  0.65 0.25 0  0.675 0.25 0  0.7 0.25 0  0.725 0.25 0  0.75 0.25 0  0.775 0.25 0  0.8 0.25 0  0.825 0.25 0  0.85 0.25 0  0.875 0.25 0  0.9 0.25 0  0.925 0.25 0  0.95 0.25 0  0.975 0.25 0  1 0.25 0  0 0.275 0  0.025 0.275 0  0.05 0.275 0  0.075 0.275 0  0.1 0.275 0  0.125 0.275 0  0.15 0.275 0  0.175 0.275 0  0.2 0.275 0  0.225 0.275 0  0.25 0.275 0  0.275 0.275 0  0.3 0.275 0  0.325 0.275 0  0.35 0.275 0  0.375 0.275 0  0.4 0.275 0  0.425 0.275 0  0.45 0.275 0  0.475 0.275 0  0.5 0.275 0  0.525 0.275 0  0.55 0.275 0  0.575 0.275 0  0.6 0.275 0  0.625 0.275 0  0.65 0.275 0  0.675 0.275 0  0.7 0.275 0  0.725 0.275 0  0.75 0.275 0  0.775 0.275 0  0.8 0.275 0  0.825 0.275 0  0.85 0.275 0  0.875 0.275 0  0.9 0.275 0  0.925 0.275 0  0.95 0.275 0  0.975 0.275 0  1 0.275 0  0 0.3 0  0.025 0.3 0  0.05 0.3 0  0.075 0.3 0  0.1 0.3 0  0.125 0.3 0  0.15 0.3 0  0.175 0.3 0  0.2 0.3 0  0.225 0.3 0  0.25 0.3 0  0.275 0.3 0  0.3 0.3 0  0.325 0.3 0  0.35 0.3 0  0.375 0.3 0  0.4 0.3 0  0.425 0.3 0  0.45 0.3 0  0.475 0.3 0  0.5 0.3 0  0.525 0.3 0  0.55 0.3 0  0.575 0.3 0  0.6 0.3 0  0.625 0.3 0  0.65 0.3 0  0.675 0.3 0  0.7 0.3 0  0.725 0.3 0  0.75 0.3 0  0.775 0.3 0  0.8 0.3 0  0.825 0.3 0  0.85 0.3 0  0.875 0.3 0  0.9 0.3 0  0.925 0.3 0  0.95 0.3 0  0.975 0.3 0  1 0.3 0  0 0.325 0  0.025 0.325 0  0.05 0.325 0  0.075 0.325 0  0.1 0.325 0  0.125 0.325 0  0.15 0.325 0  0.175 0.325 0  0.2 0.325 0  0.225 0.325 0  0.25 0.325 0  0.275 0.325 0  0.3 0.325 0  0.325 0.325 0  0.35 0.325 0  0.375 0.325 0  0.4 0.325 0  0.425 0.325 0  0.45 0.325 0  0.475 0.325 0  0.5 0.325 0  0.525 0.325 0  0.55 0.325 0  0.575 0.325 0  0.6 0.325 0  0.625 0.325 0  0.65 0.325 0  0.675 0.325 0  0.7 0.325 0  0.725 0.325 0  0.75 0.325 0  0.775 0.325 0  0.8 0.325 0  0.825 0.325 0  0.85 0.325 0  0.875 0.325 0  0.9 0.325 0  0.925 0.325 0  0.95 0.325 0  0.975 0.325 0  1 0.325 0  0 0.35 0  0.025 0.35 0  0.05 0.35 0  0.075 0.35 0  0.1 0.35 0  0.125 0.35 0  0.15 0.35 0  0.175 0.35 0  0.2 0.35 0  0.225 0.35 0  0.25 0.35 0  0.275 0.35 0  0.3 0.35 0  0.325 0.35 0  0.35 0.35 0  0.375 0.35 0  0.4 0.35 0  0.425 0.35 0  0.45 0.35 0  0.475 0.35 0  0.5 0.35 0  0.525 0.35 0  0.55 0.35 0  0.575 0.35 0  0.6 0.35 0  0.625 0.35 0  0.65 0.35 0  0.675 0.35 0  0.7 0.35 0  0.725 0.35 0  0.75 0.35 0  0.775 0.35 0  0.8 0.35 0  0.825 0.35 0  0.85 0.35 0  0.875 0.35 0  0.9 0.35 0  0.925 0.35 0  0.95 0.35 0  0.975 0.35 0  1 0.35 0  0 0.375 0  0.025 0.375 0  0.05 0.375 0  0.075 0.375 0  0.1 0.375 0  0.125 0.375 0  0.15 0.375 0  0.175 0.375 0  0.2 0.375 0  0.225 0.375 0  0.25 0.375 0  0.275 0.375 0  0.3 0.375 0  0.325 0.375 0  0.35 0.375 0  0.375 0.375 0  0.4 0.375 0  0.425 0.375 0  0.45 0.375 0  0.475 0.375 0  0.5 0.375 0  0.525 0.375 0  0.55 0.375 0  0.575 0.375 0  0.6 0.375 0  0.625 0.375 0  0.65 0.375 0  0.675 0.375 0  0.7 0.375 0  0.725 0.375 0  0.75 0.375 0  0.775 0.375 0  0.8 0.375 0  0.825 0.375 0  0.85 0.375 0  0.875 0.375 0  0.9 0.375 0  0.925 0.375 0  0.95 0.375 0  0.975 0.375 0  1 0.375 0  0 0.4 0  0.025 0.4 0  0.05 0.4 0  0.075 0.4 0  0.1 0.4 0  0.125 0.4 0  0.15 0.4 0  0.175 0.4 0  0.2 0.4 0  0.225 0.4 0  0.25 0.4 0  0.275 0.4 0  0.3 0.4 0  0.325 0.4 0  0.35 0.4 0  0.375 0.4 0  0.4 0.4 0  0.425 0.4 0  0.45 0.4 0  0.475 0.4 0  0.5 0.4 0  0.525 0.4 0  0.55 0.4 0  0.575 0.4 0  0.6 0.4 0  0.625 0.4 0  0.65 0.4 0  0.675 0.4 0  0.7 0.4 0  0.725 0.4 0  0.75 0.4 0  0.775 0.4 0  0.8 0.4 0  0.825 0.4 0  0.85 0.4 0  0.875 0.4 0  0.9 0.4 0  0.925 0.4 0  0.95 0.4 0  0.975 0.4 0  1 0.4 0  0 0.425 0  0.025 0.425 0  0.05 0.425 0  0.075 0.425 0  0.1 0.425 0  0.125 0.425 0  0.15 0.425 0  0.175 0.425 0  0.2 0.425 0  0.225 0.425 0  0.25 0.425 0  0.275 0.425 0  0.3 0.425 0  0.325 0.425 0  0.35 0.425 0  0.375 0.425 0  0.4 0.425 0  0.425 0.425 0  0.45 0.425 0  0.475 0.425 0  0.5 0.425 0  0.525 0.425 0  0.55 0.425 0  0.575 0.425 0  0.6 0.425 0  0.625 0.425 0  0.65 0.425 0  0.675 0.425 0  0.7 0.425 0  0.725 0.425 0  0.75 0.425 0  0.775 0.425 0  0.8 0.425 0  0.825 0.425 0  0.85 0.425 0  0.875 0.425 0  0.9 0.425 0  0.925 0.425 0  0.95 0.425 0  0.975 0.425 0  1 0.425 0  0 0.45 0  0.02
[...]
<PointData  Scalars="ControlVisualisation"> 
<DataArray  type="Float64"  Name="ControlVisualisation"  format="ascii">3.7321201330808747e-07  2.4550141973183015e-07  2.4560466671533914e-07  2.4582438665783129e-07  2.4617201923307314e-07  2.4661647718017211e-07  2.4710479860731068e-07  2.4758945156090541e-07  2.4803750516517020e-07  2.4842896473690809e-07  2.4875482581862725e-07  2.4901523538761187e-07  2.4921658263759017e-07  2.4936823921106836e-07  2.4948002942660606e-07  2.4956077163522644e-07  2.4961767117561360e-07  2.4965621945265236e-07  2.4968032557748452e-07  2.4969251168762925e-07  2.4969408223592344e-07  2.4968522556596295e-07  2.4966503140342312e-07  2.4963142337319183e-07  2.4958101880054431e-07  2.4950895105375300e-07  2.4940872808454331e-07  2.4927226842248328e-07  2.4909033961548815e-07  2.4885370065091982e-07  2.4855520246496085e-07  2.4819247314606011e-07  2.4777071308170352e-07  2.4730465694944648e-07  2.4681922037647921e-07  2.4635260300568692e-07  2.4595858429580377e-07  2.4568404875650311e-07  2.4553601655981478e-07  2.4547946833855968e-07  7.5643141351881551e-07  2.4549537688158213e-07  1.1777678570185937e-07  1.1788146279668727e-07  1.1811325242763519e-07  1.1849130276989511e-07  1.1898383603955018e-07  1.1953345309133135e-07  1.2008854042095135e-07  1.2061038972055290e-07  1.2107271992831465e-07  1.2146173603391954e-07  1.2177517948117420e-07  1.2201912050639035e-07  1.2220388155068507e-07  1.2234078852982188e-07  1.2244024081708779e-07  1.2251086219362036e-07  1.2255930845261029e-07  1.2259039069426034e-07  1.2260729902203628e-07  1.2261181031482837e-07  1.2260442477216811e-07  1.2258440801411356e-07  1.2254973418161698e-07  1.2249693880359292e-07  1.2242091155165925e-07  1.2231469744090718e-07  1.2216944400489210e-07  1.2197473062313496e-07  1.2171964410398244e-07  1.2139496115920471e-07  1.2099648934495103e-07  1.2052924442928375e-07  1.2000863650808382e-07  1.1945921283247614e-07  1.1891514959356680e-07  1.1843104918698063e-07  1.1807131000311263e-07  1.1786108208083241e-07  1.1776904346303564e-07  2.4547867460191559e-07  2.4553252597415687e-07  1.1783695052600390e-07  1.1800352819912422e-07  1.1833962495146441e-07  1.1884608930150325e-07  1.1944081649522545e-07  1.2007305633403190e-07  1.2070628070211112e-07  1.2130147316333233e-07  1.2182585993510416e-07  1.2226196273096763e-07  1.2260897874353432e-07  1.2287635310884271e-07  1.2307759312240745e-07  1.2322631005695207e-07  1.2333436758421683e-07  1.2341127598277168e-07  1.2346421358066028e-07  1.2349829626486583e-07  1.2351689192599210e-07  1.2352188037289511e-07  1.2351381711464234e-07  1.2349198423910702e-07  1.2345432490528856e-07  1.2339726533582872e-07  1.2331544228951041e-07  1.2320138658601756e-07  1.2304528078736706e-07  1.2283503903790656e-07  1.2255716505886026e-07  1.2219904585309484e-07  1.2175377326616869e-07  1.2122652595707346e-07  1.2063529600392217e-07  1.2001349878571563e-07  1.1938466483968396e-07  1.1877800211621476e-07  1.1828586113934813e-07  1.1797086821746751e-07  1.1782084510754200e-07  2.4551322320597991e-07  2.4552336930406750e-07  1.1790100230709220e-07  1.1824864291663848e-07  1.1888857503210872e-07  1.1965037767595977e-07  1.2042898671128602e-07  1.2136620137379658e-07  1.2240740466088110e-07  1.2345378089051685e-07  1.2440380940962643e-07  1.2521832939101892e-07  1.2589501290474881e-07  1.2644874798080783e-07  1.2689775067307805e-07  1.2725847455015032e-07  1.2754408661769562e-07  1.2776447820177068e-07  1.2792675713787253e-07  1.2803580922742588e-07  1.2809476416977537e-07  1.2810532082367299e-07  1.2806792985501505e-07  1.2798183929998504e-07  1.2784500247292777e-07  1.2765383882526085e-07  1.2740283188766852e-07  1.2708396809286297e-07  1.2668610903011779e-07  1.2619459944604755e-07  1.2559168993045250e-07  1.2485937116292492e-07  1.2398871513779125e-07  1.2299831831349189e-07  1.2196984368235498e-07  1.2105573493000611e-07  1.2030763289460373e-07  1.1951863694203061e-07  1.1873411004665058e-07  1.1814737125685176e-07  1.1784351024913145e-07  2.4553810379546575e-07  2.4548701633809896e-07  1.1814804564937010e-07  1.2019001486353322e-07  1.2601118813866874e-07  1.3407254887895006e-07  1.4060699647669611e-07  1.4806187099181494e-07  1.5819286857621718e-07  1.6914407740216919e-07  1.8019615747749730e-07  1.9074105020287971e-07  2.0057054948386954e-07  2.0958464878620293e-07  2.1773690011319872e-07  2.2498649781885132e-07  2.3128573862046460e-07  2.3657805291071497e-07  2.4080319777161291e-07  2.4390434736018753e-07  2.4583461957324352e-07  2.4656202640942729e-07  2.4607248212000417e-07  2.4437077216675411e-07  2.4147948214063033e-07  2.3743589360114923e-07  2.3228683064651784e-07  2.2608168150631294e-07  2.1886515120053678e-07  2.1067307362733033e-07  2.0153401844725780e-07  1.9148602007974303e-07  1.8063048956335184e-07  1.6926906533848715e-07  1.5814701842410670e-07  1.4824931936250359e-07  1.3851001761139232e-07  1.2794100731690117e-07  1.2144400617515938e-07  1.1890901737926134e-07  1.1806976429318041e-07  2.4548828393876881e-07  2.6431813436783786e-07  1.2631419648873621e-07  1.4709521783390465e-07  2.2112405340385985e-07  6.4651256812858419e-07  3.9980892833761716e-02  1.1853203149662267e-01  1.8173787896035840e-01  2.3755362729322788e-01  2.8305911135980588e-01  3.2051027723817233e-01  3.5126081754355165e-01  3.7665264032525297e-01  3.9762613743885750e-01  4.1486592002676226e-01  4.2886238052419784e-01  4.3996657624388863e-01  4.4842730399896163e-01  4.5441708531466179e-01  4.5804893668510199e-01  4.5938672614193793e-01  4.5845076087266323e-01  4.5521929279366552e-01  4.4962615993651028e-01  4.4155428171798461e-01  4.3082399711477282e-01  4.1717421145335637e-01  4.0023391632538680e-01  3.7948290887881103e-01  3.5419912086028638e-01  3.2338709681828320e-01  2.8567458169940191e-01  2.3931619479742722e-01  1.8263418361357048e-01  1.1489293533814095e-01  4.1526669069528163e-02  6.7378883924381470e-07  2.3047322970543703e-07  1.4710310624628402e-07  1.2187111455077254e-07  2.4911316062812079e-07  2.8695502611080978e-07  3.1825037645928606e-07  2.6791679248395972e-01  5.7547640325165017e-01  8.0919981733627089e-01  9.9688089701942650e-01  9.9999873222766322e-01  9.9999930043994101e-01  9.9999947557536106e-01  9.9999955974072696e-01  9.9999961048508879e-01  9.9999964427118038e-01  9.9999966824664777e-01  9.9999968587275689e-01  9.9999969907761266e-01  9.9999970901959001e-01  9.9999971643354935e-01  9.9999972179759211e-01  9.9999972542277915e-01  9.9999972750328436e-01  9.9999972814435079e-01  9.9999972737625775e-01  9.9999972515784352e-01  9.9999972137038617e-01  9.9999971580028524e-01  9.9999970810594452e-01  9.9999969775889985e-01  9.9999968393832217e-01  9.9999966533322582e-01  9.9999963974159212e-01  9.9999960315998415e-01  9.9999954738832375e-01  9.9999945227802989e-01  9.9999925064018602e-01  9.9999853396591964e-01  9.8615193725002448e-01  8.1676353971972382e-01  5.8406222347975401e-01  2.4128317492901444e-01  2.5866050640939315e-07  2.6296044486037185e-07  9.9999932863969998e-01  9.9999962798548603e-01  9.9999985774337896e-01  9.9999988894029923e-01  9.9999989744108353e-01  9.9999990098070934e-01  9.9999990450581866e-01  9.9999990887623658e-01  9.9999991198630844e-01  9.9999991446956715e-01  9.9999991658315435e-01  9.9999991840298819e-01  9.9999991996154081e-01  9.9999992127842952e-01  9.9999992237347002e-01  9.9999992326630538e-01  9.9999992397518500e-01  9.9999992451571051e-01  9.9999992490020284e-01  9.9999992513750346e-01  9.9999992523299108e-01  9.9999992518864078e-01  9.9999992500302981e-01  9.9999992467126009e-01  9.9999992418483707e-01  9.9999992353161959e-01  9.9999992269605220e-01  9.9999992165998575e-01  9.9999992040438168e-01  9.9999991891177475e-01  9.9999991716775827e-01  9.9999991515482334e-01  9.9999991281956024e-01  9.9999990996809496e-01  9.9999990602599531e-01  9.9999989991860794e-01  9.9999989236954445e-01  9.9999988068449330e-01  9.9999985104781897e-01  9.9999974499135968e-01  5.8040432156368216e-01  9.9999995680251041e-01  9.9999997547929820e-01  9.9999997197187196e-01  9.9999996823994486e-01  9.9999996520549139e-01  9.9999996298776694e-01  9.9999996145600190e-01  9.9999996044992279e-01  9.9999995985025025e-01  9.9999995955881538e-01  9.9999995947953246e-01  9.9999995953066656e-01  9.9999995965116240e-01  9.9999995979976453e-01  9.9999995995121871e-01  9.9999996009104930e-01  9.9999996021156845e-01  9.9999996030899518e-01  9.9999996038165273e-01  9.9999996042890871e-01  9.9999996045059569e-01  9.9999996044672934e-01  9.9999996041741812e-01  9.9999996036293104e-01  9.9999996028396521e-01  9.9999996018221626e-01  9.9999996006145930e-01  9.9999995992944124e-01  9.9999995980096168e-01  9.9999995970247380e-01  9.9999995967811361e-01  9.9999995979592504e-01  9.9999996015109682e-01  9.9999996086192677e-01  9.9999996206089770e-01  9.9999996389318679e-01  9.9999996650604828e-01  9.9999996993645346e-01  9.9999997384681028e-01  9.9999997737874990e-01  9.9999993184310521e-01  9.9999998234540166e-01  9.9999999364000736e-01  9.9999999001163742e-01  9.9999998560855852e-01  9.9999998143144275e-01  9.9999997800662321e-01  9.9999997546479247e-01  9.9999997368876792e-01  9.9999997249653272e-01  9.9999997172069410e-01  9.9999997122876172e-01  9.9999997092370740e-01  9.9999997073792857e-01  9.9999997062660195e-01  9.9999997056107826e-01  9.9999997052349798e-01  9.9999997050292033e-01  9.9999997049269984e-01  9.9999997048884959e-01  9.9999997048906197e-01  9.9999997049215250e-01  9.9999997049778222e-01  9.9999997050637102e-01  9.9999997051918210e-01  9.9999997053859846e-01  9.9999997056867618e-01  9.9999997061612533e-01  9.9999997069195967e-01  9.9999997081415337e-01  9.9999997101170957e-01  9.9999997133046070e-01  9.9999997184053946e-01  9.9999997264445772e-01  9.9999997388278694e-01  9.9999997573071586e-01  9.9999997836623611e-01  9.9999998187963268e-01  9.9999998610534402e-01  9.9999999045850574e-01  9.9999999392140460e-01  9.9999997819031616e-01  9.9999998580383920e-01  9.9999999665347228e-01  9.9999999341806156e-01  9.9999998921659417e-01  9.9999998495949682e-01  9.9999998129426027e-01  9.9999997846739308e-01  9.9999997642565897e-01  9.9999997499889026e-01  9.9999997401170626e-01  9.9999997332566914e-01  9.9999997284257891e-01  9.9999997249635020e-01  9.9999997224386306e-01  9.9999997205736357e-01  9.9999997191902079e-01  9.9999997181729139e-01  9.9999997174465038e-01  9.9999997169622890e-01  9.9999997166900456e-01  9.9999997166133858e-01  9.9999997167273924e-01  9.9999997170379262e-01  9.9999997175624467e-01  9.9999997183324729e-01  9.9999997193982504e-01  9.9999997208366542e-01  9.9999997227642323e-01  9.9999997253585715e-01  9.9999997288925280e-01  9.9999997337874380e-01  9.9999997406905705e-01  9.9999997505736593e-01  9.9999997648212002e-01  9.9999997851901001e-01  9.9999998133777757e-01  9.9999998499145260e-01  9.9999998923645361e-01  9.9999999342975210e-01  9.9999999666039563e-01  9.9999998580940763e-01  9.9999997815269226e-01  9.9999999383987703e-01  9.9999999020566710e-01  9.9999998558151371e-01  9.9999998100131460e-01  9.9999997709165511e-01  9.9999997405642538e-01  9.9999997181403866e-01  9.9999997017872366e-01  9.9999996897359367e-01  9.9999996806692515e-01  9.9999996736910590e-01  9.9999996682173098e-01  9.9999996638746502e-01  9.9999996604220720e-01  9.9999996576981787e-01  9.9999996555906034e-01  9.9999996540198210e-01  9.9999996529303814e-01  9.9999996522858026e-01  9.9999996520655166e-01  9.9999996522632562e-01  9.9999996528866508e-01  9.9999996539579761e-01  9.9999996555160664e-01  9.9999996576195649e-01  9.9999996603517494e-01  9.9999996638282695e-01  9.9999996682099890e-01  9.9999996737260233e-01  9.9999996807157687e-01  9.9999996896996091e-01  9.9999997014863640e-01  9.9999997173085442e-01  9.9999997388766670e-01  9.9999997681010500e-01  9.9999998060597606e-01  9.9999998511301313e-01  9.9999998977447768e-01  9.9999999357153468e-01  9.9999998232811049e-01  9.9999993166142875e-01  9.9999997693140130e-01  9.9999997260724938e-01  9.9999996766579680e-01  9.9999996302915029e-01  9.9999995916431406e-01  9.9999995611051384e-01  9.9999995368869610e-01  9.9999995170461231e-01  9.9999995003040476e-01  9.9999994859247576e-01  9.9999994734622255e-01  9.9999994626583211e-01  9.9999994533757641e-01  9.9999994455271979e-01  9.9999994390346536e-01  9.9999994338223031e-01  9.9999994298214245e-01  9.9999994269757408e-01  9.9999994252443591e-01  9.9999994246029467e-01  9.9999994250441659e-01  9.9999994265780512e-01  9.9999994292325367e-01  9.9999994330538899e-01  9.9999994381062707e-01  9.9999994444688334e-01  9.9999994522302149e-01  9.9999994614775456e-01  9.9999994722893559e-01  9.9999994847371654e-01  9.9999994989169172e-01  9.9999995150197385e-01  9.9999995335102021e-01  9.9999995554091803e-01  9.9999995825034593e-01  9.9999996167195015e-01  9.9999996587217110e-01  9.9999997062884849e-01  9.9999997497679094e-01  9.9999995667186048e-01  5.7050579526376255e-01  9.9999972471961596e-01  9.9999983530310377e-01  9.9999986430410692e-01  9.9999987347144792e-01  9.9999987616827923e-01  9.9999987622600839e-01  9.9999987463481688e-01  9.9999987190088258e-01  9.9999986849087086e-01  9.9999986482440639e-01  9.9999986112369821e-01  9.9999985752552523e-01  9.9999985416528669e-01  9.9999985114277590e-01  9.9999984851818668e-01  9.9999984632251049e-01  9.9999984457174229e-01  9.9999984327459834e-01  9.9999984243585938e-01  9.9999984205831194e-01  9.9999984214385573e-01  9.9999984269403630e-01  9.9999984371019368e-01  9.9999984519343244e-01  9.9999984714378143e-01  9.9999984955680443e-01  9.9999985241888012e-01  9.9999985569385685e-01  9.9999985932729429e-01  9.9999986321500955e-01  9.9999986719850564e-01  9.9999987106229693e-01  9.9999987449375549e-01  9.9999987708491067e-01  9.9999987838800231e-01  9.9999987717063699e-01  9.9999987112223709e-01  9.9999983701918083e-01  9.9999956612316343e-01  9.9999930990229857e-01  2.6225201445177350e-07  2.3704605189509038e-07  1.8857534912442558e-01  4.7819213217634421e-01  6.5446996831061044e-01  7.7163503669860922e-01  8.3573972782796857e-01  8.6462638384175261e-01  8.7083949602811583e-01  8.6580652758616405e-01  8.5454407579271108e-01  8.3988074756448750e-01  8.2497228037451265e-01  8.1085884334544889e-01  7.9821994879603353e-01  7.8732574604626271e-01  7.7832250696177296e-01  7.7126044247162406e-01  7.6614234694231531e-01  7.6295911482890033e-01  7.6170072218617357e-01  7.6236229114763732e-01  7.6494629424865535e-01  7.6946095669142678e-01  7.7591541252328744e-01  7.8430495959362145e-01  7.9458277848010672e-01  8.0662808129019692e-01  8.2011469803481230e-01  8.3451477568472432e-01  8.4861890753857383e-01  8.6033415490022702e-01  8.6564297061518414e-01  8.5834928835344526e-01  8.2899078032571105e-01  7.6418327264990737e-01  6.4715062046910354e-01  4.7306519727522678e-01  2.1185729756023161e-01  2.8400625254263781e-07  2.8472528431783495e-07  2.4902066520591288e-07  1.2163175769737443e-07  1.4144336974508898e-07  1.9179903914956592e-07  2.8915430018107489e-07  5.5901997882795555e-07  1.3959655631637092e-06  6.7705003959169187e-06  1.8161383079391730e-03  1.8991003803715456e-03  5.7296606694379320e-05  7.3195926315331999e-06  3.2897617409286272e-06  2.1541515750198310e-06  1.6427594513365479e-06  1.3632146671615581e-06  1.1952794432715519e-06  1.0901578049384835e-06  1.0250633943855090e-06  9.8859517011636052e-07  9.7519052444559792e-07  9.8293694660597025e-07  1.0128950559177808e-06  1.0694457844124868e-06  1.1618871020265247e-06  1.3084625084223552e-06  1.5464465589342172e-06  1.9603757502297410e-06  2.7801876937833185e-06  4.8663754326974676e-06  1.3338102594261762e-05  1.5722651405088736e-04  4.3859178598317377e-05  4.4619475529923551e-06  1.2813741187325275e-06  5.4707915646038793e-07  2.9149768486004300e-07  1.8592731796214455e-07  1.4317322893327963e-07  1.2580661635789349e-07  2.6433990259551891e-07  2.4550958642949776e-07  1.1809351204687874e-07  1.1888942319357612e-07  1.2068960333125020e-07  1.2431436535624875e-07  1.2905447092006545e-07  1.3293158157516934e-07  1.3558794994598983e-07  1.3692753454804426e-07  1.3734271402075046e-07  1.3752838030016239e-07  1.3746834856958454e-07  1.3707505664730559e-07  1.3668366983245718e-07  1.3631995202477416e-07  1.3599675547484483e-07  1.3572260322497427e-07  1.3550100353615865e-07  1.3533304640892254e-07  1.3521867946167747e-07  1.3515736906984428e-07  1.3514850649800381e-07  1.3519156762735395e-07  1.3528605533363897e-07  1.3543122876805858e-07  1.3562555397652376e-07  1.3586565091814082e-07  1.3614436122269048e-07  1.3644742234163367e-07  1.3674691674586305e-07  1.3698995263926974e-07  1.3703979959718438e-07  1.3679545621708495e-07  1.3606293412194484e-07  1.3442474923091000e-07  1.3160788174004471e-07  1.2765001842842126e-07  1.2327284105447449e-07  1.1974320867378687e-07  1.1812239498961628e-07  2.4546527310537735e-07  2.4556451352287020e-07  1.1787471787453058e-07  1.1818314731692045e-07  1.1874224554318917e-07  1.1949748912734002e-07  1.2032834811169981e-07  1.2110449064821348e-07  1.2177670689054059e-07  1.2230203677686956e-07  1.2271358214741019e-07  1.2305461128026931e-07  1.2331380842186222e-07  1.2348210488786737e-07  1.2360448574262352e-07  1.2369172762538992e-07  1.2375415746275969e-07  1.2379796849799129e-07  1.2382764245108360e-07  1.2384636064920321e-07  1.2385622779957297e-07  1.2385842761056727e-07  1.2385330706860879e-07  1.2384040041185108e-07  1.2381839224589366e-07  1.2378501724671510e-07  1.2373689267894865e-07  1.2366927109456016e-07  1.2357570358199655e-07  1.2344757387220353e-07  1.2327348852783040e-07  1.2303871210312143e-07  1.2272742902989598e-07  1.2232588957772335e-07  1.2182323004926487e-07  1.2120018199246821e-07  1.2046813347702251e-07  1.1967533687901712e-07  1.1891422672690525e-07  1.1830744331912221e-07  1.1795486936851157e-07  2.4556321416843334e-07  2.4553283002389533e-07  1.1784774045542722e-07  1.1800872946924575e-07  1.1832907047592540e-07  1.1883449681458079e-07  1.1949256489656786e-07  1.2020953102081844e-07  1.2089717188207442e-07  1.2150226219163532e-07  1.2201027320651013e-07  1.2242525348161928e-07  1.2275010998328255e-07  1.2299306662384143e-07  1.2317312371872989e-07  1.2330452587345987e-07  1.2339983226659582e-07  1.2346772559782046e-07  1.2351463126735906e-07  1.2354505348049873e-07  1.2356196588709137e-07  1.2356704896165379e-07  1.2356082072560848e-07  1.2354267753563921e-07  1.2351084662385197e-07  1.2346225159823439e-07  1.2339229458761863e-07  1.2329457124378474e-07  1.2316055843873767e-07  1.2297938152429398e-07  1.2273791414211413e-07  1.2242178485497078e-07  1.2201784888652216e-07  1.2151818862794098e-07  1.2092459143243386e-07  1.2025603177511722e-07  1.1956089064168605e-07  1.1891394943744355e-07  1.1839628113927512e-07  1.1806035994646058e-07  1.1788210964173851e-07  2.4557050263513602e-07  2.4548747758886611e-07  1.1778751636460460e-07  1.1790376654992801e-07  1.1815503523660520e-07  1.1858024216603501e-07  1.1916472975729908e-07  1.1984342955953267e-07  1.2053673582657269e-07  1.2118073322191127e-07  1.2173929297324689e-07  1.2220097292983442e-07  1.2256817684803236e-07  1.2285064993824886e-07  1.2306263421355365e-07  1.2321918700093600e-07  1.2333314083228707e-07  1.2341451252798261e-07  1.2347084609174561e-07  1.2350750285616586e-07  1.2352804428821780e-07  1.2353449255563012e-07  1.2352748979796578e-07  1.2350635037028405e-07  1.2346900782037150e-07  1.2341185960320036e-07  1.2332952144041734e-07  1.2321452982354117e-07  1.2305706918328059e-07  1.2284496400638712e-07  1.2256425020247221e-07  1.2220084977718437e-07  1.2174375953607848e-07  1.2119011402119753e-07  1.2055243193308123e-07  1.1986673715154454e-07  1.1919514923753174e-07  1.1861380885610353e-07  1.1818436539729445e-07  1.1792507158366244e-07  1.1780288897531430e-07  2.4551981037879265e-07  2.4547933077463270e-07  1.1776580803622442e-07  1.1787396012628924e-07  1.1811346070985911e-07  1.1851786883017583e-07  1.1907858979082489e-07  1.1974164549567121e-07  1.2043191160674021e-07  1.210832961