<?xml version="1.0"?>
<VTKFile type="UnstructuredGrid"  version="0.1"  >
<UnstructuredGrid>
<Piece  NumberOfPoints="1681" NumberOfCells="3200">
<Points>
<DataArray  type="Float64"  NumberOfComponents="3"  format="ascii">0 0 0  0.025 0 0  0.05 0 0  0.075 0 0  0.1 0 0  0.125 0 0  0.15 0 0  0.175 0 0  0.2 0 0  0.225 0 0  0.25 0 0  0.275 0 0  0.3 0 0  0.325 0 0  0.35 0 0  0.375 0 0  0.4 0 0  0.425 0 0  0.45 0 0  0.475 0 0  0.5 0 0  0.525 0 0  0.55 0 0  0.575 0 0  0.6 0 0  0.625 0 0  0.65 0 0  0.675 0 0  0.7 0 0  0.725 0 0  0.75 0 0  0.775 0 0  0.8 0 0  0.825 0 0  0.85 0 0  0.875 0 0  0.9 0 0  0.925 0 0  0.95 0 0  0.975 0 0  1 0 0  0 0.025 0  0.025 0.025 0  0.05 0.025 0  0.075 0.025 0  0.1 0.025 0  0.125 0.025 0  0.15 0.025 0  0.175 0.025 0  0.2 0.025 0  0.225 0.025 0  0.25 0.025 0  0.275 0.025 0  0.3 0.025 0  0.325 0.025 0  0.35 0.025 0  0.375 0.025 0  0.4 0.025 0  0.425 0.025 0  0.45 0.025 0  0.475 0.025 0  0.5 0.025 0  0.525 0.025 0  0.55 0.025 0  0.575 0.025 0  0.6 0.025 0  0.625 0.025 0  0.65 0.025 0  0.675 0.025 0  0.7 0.025 0  0.725 0.025 0  0.75 0.025 0  0.775 0.025 0  0.8 0.025 0  0.825 0.025 0  0.85 0.025 0  0.875 0.025 0  0.9 0.025 0  0.925 0.025 0  0.95 0.025 0  0.975 0.025 0  1 0.025 0  0 0.05 0  0.025 0.05 0  0.05 0.05 0  0.075 0.05 0  0.1 0.05 0  0.125 0.05 0  0.15 0.05 0  0.175 0.05 0  0.2 0.05 0  0.225 0.05 0  0.25 0.05 0  0.275 0.05 0  0.3 0.05 0  0.325 0.05 0  0.35 0.05 0  0.375 0.05 0  0.4 0.05 0  0.425 0.05 0  0.45 0.05 0  0.475 0.05 0  0.5 0.05 0  0.525 0.05 0  0.55 0.05 0  0.575 0.05 0  0.6 0.05 0  0.625 0.05 0  0.65 0.05 0  0.675 0.05 0  0.7 0.05 0  0.725 0.05 0  0.75 0.05 0  0.775 0.05 0  0.8 0.05 0  0.825 0.05 0  0.85 0.05 0  0.875 0.05 0  0.9 0.05 0  0.925 0.05 0  0.95 0.05 0  0.975 0.05 0  1 0.05 0  0 0.075 0  0.025 0.075 0  0.05 0.075 0  0.075 0.075 0  0.1 0.075 0  0.125 0.075 0  0.15 0.075 0  0.175 0.075 0  0.2 0.075 0  0.225 0.075 0  0.25 0.075 0  0.275 0.075 0  0.3 0.075 0  0.325 0.075 0  0.35 0.075 0  0.375 0.075 0  0.4 0.075 0  0.425 0.075 0  0.45 0.075 0  0.475 0.075 0  0.5 0.075 0  0.525 0.075 0  0.55 0.075 0  0.575 0.075 0  0.6 0.075 0  0.625 0.075 0  0.65 0.075 0  0.675 0.075 0  0.7 0.075 0  0.725 0.075 0  0.75 0.075 0  0.775 0.075 0  0.8 0.075 0  0.825 0.075 0  0.85 0.075 0  0.875 0.075 0  0.9 0.075 0  0.925 0.075 0  0.95 0.075 0  0.975 0.075 0  1 0.075 0  0 0.1 0  0.025 0.1 0  0.05 0.1 0  0.075 0.1 0  0.1 0.1 0  0.125 0.1 0  0.15 0.1 0  0.175 0.1 0  0.2 0.1 0  0.225 0.1 0  0.25 0.1 0  0.275 0.1 0  0.3 0.1 0  0.325 0.1 0  0.35 0.1 0  0.375 0.1 0  0.4 0.1 0  0.425 0.1 0  0.45 0.1 0  0.475 0.1 0  0.5 0.1 0  0.525 0.1 0  0.55 0.1 0  0.575 0.1 0  0.6 0.1 0  0.625 0.1 0  0.65 0.1 0  0.675 0.1 0  0.7 0.1 0  0.725 0.1 0  0.75 0.1 0  0.775 0.1 0  0.8 0.1 0  0.825 0.1 0  0.85 0.1 0  0.875 0.1 0  0.9 0.1 0  0.925 0.1 0  0.95 0.1 0  0.975 0.1 0  1 0.1 0  0 0.125 0  0.025 0.125 0  0.05 0.125 0  0.075 0.125 0  0.1 0.125 0  0.125 0.125 0  0.15 0.125 0  0.175 0.125 0  0.2 0.125 0  0.225 0.125 0  0.25 0.125 0  0.275 0.125 0  0.3 0.125 0  0.325 0.125 0  0.35 0.125 0  0.375 0.125 0  0.4 0.125 0  0.425 0.125 0  0.45 0.125 0  0.475 0.125 0  0.5 0.125 0  0.525 0.125 0  0.55 0.125 0  0.575 0.125 0  0.6 0.125 0  0.625 0.125 0  0.65 0.125 0  0.675 0.125 0  0.7 0.125 0  0.725 0.125 0  0.75 0.125 0  0.775 0.125 0  0.8 0.125 0  0.825 0.125 0  0.85 0.125 0  0.875 0.125 0  0.9 0.125 0  0.925 0.125 0  0.95 0.125 0  0.975 0.125 0  1 0.125 0  0 0.15 0  0.025 0.15 0  0.05 0.15 0  0.075 0.15 0  0.1 0.15 0  0.125 0.15 0  0.15 0.15 0  0.175 0.15 0  0.2 0.15 0  0.225 0.15 0  0.25 0.15 0  0.275 0.15 0  0.3 0.15 0  0.325 0.15 0  0.35 0.15 0  0.375 0.15 0  0.4 0.15 0  0.425 0.15 0  0.45 0.15 0  0.475 0.15 0  0.5 0.15 0  0.525 0.15 0  0.55 0.15 0  0.575 0.15 0  0.6 0.15 0  0.625 0.15 0  0.65 0.15 0  0.675 0.15 0  0.7 0.15 0  0.725 0.15 0  0.75 0.15 0  0.775 0.15 0  0.8 0.15 0  0.825 0.15 0  0.85 0.15 0  0.875 0.15 0  0.9 0.15 0  0.925 0.15 0  0.95 0.15 0  0.975 0.15 0  1 0.15 0  0 0.175 0  0.025 0.175 0  0.05 0.175 0  0.075 0.175 0  0.1 0.175 0  0.125 0.175 0  0.15 0.175 0  0.175 0.175 0  0.2 0.175 0  0.225 0.175 0  0.25 0.175 0  0.275 0.175 0  0.3 0.175 0  0.325 0.175 0  0.35 0.175 0  0.375 0.175 0  0.4 0.175 0  0.425 0.175 0  0.45 0.175 0  0.475 0.175 0  0.5 0.175 0  0.525 0.175 0  0.55 0.175 0  0.575 0.175 0  0.6 0.175 0  0.625 0.175 0  0.65 0.175 0  0.675 0.175 0  0.7 0.175 0  0.725 0.175 0  0.75 0.175 0  0.775 0.175 0  0.8 0.175 0  0.825 0.175 0  0.85 0.175 0  0.875 0.175 0  0.9 0.175 0  0.925 0.175 0  0.95 0.175 0  0.975 0.175 0  1 0.175 0  0 0.2 0  0.025 0.2 0  0.05 0.2 0  0.075 0.2 0  0.1 0.2 0  0.125 0.2 0  0.15 0.2 0  0.175 0.2 0  0.2 0.2 0  0.225 0.2 0  0.25 0.2 0  0.275 0.2 0  0.3 0.2 0  0.325 0.2 0  0.35 0.2 0  0.375 0.2 0  0.4 0.2 0  0.425 0.2 0  0.45 0.2 0  0.475 0.2 0  0.5 0.2 0  0.525 0.2 0  0.55 0.2 0  0.575 0.2 0  0.6 0.2 0  0.625 0.2 0  0.65 0.2 0  0.675 0.2 0  0.7 0.2 0  0.725 0.2 0  0.75 0.2 0  0.775 0.2 0  0.8 0.2 0  0.825 0.2 0  0.85 0.2 0  0.875 0.2 0  0.9 0.2 0  0.925 0.2 0  0.95 0.2 0  0.975 0.2 0  1 0.2 0  0 0.225 0  0.025 0.225 0  0.05 0.225 0  0.075 0.225 0  0.1 0.225 0  0.125 0.225 0  0.15 0.225 0  0.175 0.225 0  0.2 0.225 0  0.225 0.225 0  0.25 0.225 0  0.275 0.225 0  0.3 0.225 0  0.325 0.225 0  0.35 0.225 0  0.375 0.225 0  0.4 0.225 0  0.425 0.225 0  0.45 0.225 0  0.475 0.225 0  0.5 0.225 0  0.525 0.225 0  0.55 0.225 0  0.575 0.225 0  0.6 0.225 0  0.625 0.225 0  0.65 0.225 0  0.675 0.225 0  0.7 0.225 0  0.725 0.225 0  0.75 0.225 0  0.775 0.225 0  0.8 0.225 0  0.825 0.225 0  0.85 0.225 0  0.875 0.225 0  0.9 0.225 0  0.925 0.225 0  0.95 0.225 0  0.975 0.225 0  1 0.225 0  0 0.25 0  0.025 0.25 0  0.05 0.25 0  0.075 0.25 0  0.1 0.25 0  0.125 0.25 0  0.15 0.25 0  0.175 0.25 0  0.2 0.25 0  0.225 0.25 0  0.25 0.25 0  0.275 0.25 0  0.3 0.25 0  0.325 0.25 0  0.35 0.25 0  0.375 0.25 0  0.4 0.25 0  0.425 0.25 0  0.45 0.25 0  0.475 0.25 0  0.5 0.25 0  0.525 0.25 0  0.55 0.25 0  0.575 0.25 0  0.6 0.25 0  0.625 0.25 0  0.65 0.25 0  0.675 0.25 0  0.7 0.25 0  0.725 0.25 0  0.75 0.25 0  0.775 0.25 0  0.8 0.25 0  0.825 0.25 0  0.85 0.25 0  0.875 0.25 0  0.9 0.25 0  0.925 0.25 0  0.95 0.25 0  0.975 0.25 0  1 0.25 0  0 0.275 0  0.025 0.275 0  0.05 0.275 0  0.075 0.275 0  0.1 0.275 0  0.125 0.275 0  0.15 0.275 0  0.175 0.275 0  0.2 0.275 0  0.225 0.275 0  0.25 0.275 0  0.275 0.275 0  0.3 0.275 0  0.325 0.275 0  0.35 0.275 0  0.375 0.275 0  0.4 0.275 0  0.425 0.275 0  0.45 0.275 0  0.475 0.275 0  0.5 0.275 0  0.525 0.275 0  0.55 0.275 0  0.575 0.275 0  0.6 0.275 0  0.625 0.275 0  0.65 0.275 0  0.675 0.275 0  0.7 0.275 0  0.725 0.275 0  0.75 0.275 0  0.775 0.275 0  0.8 0.275 0  0.825 0.275 0  0.85 0.275 0  0.875 0.275 0  0.9 0.275 0  0.925 0.275 0  0.95 0.275 0  0.975 0.275 0  1 0.275 0  0 0.3 0  0.025 0.3 0  0.05 0.3 0  0.075 0.3 0  0.1 0.3 0  0.125 0.3 0  0.15 0.3 0  0.175 0.3 0  0.2 0.3 0  0.225 0.3 0  0.25 0.3 0  0.275 0.3 0  0.3 0.3 0  0.325 0.3 0  0.35 0.3 0  0.375 0.3 0  0.4 0.3 0  0.425 0.3 0  0.45 0.3 0  0.475 0.3 0  0.5 0.3 0  0.525 0.3 0  0.55 0.3 0  0.575 0.3 0  0.6 0.3 0  0.625 0.3 0  0.65 0.3 0  0.675 0.3 0  0.7 0.3 0  0.725 0.3 0  0.75 0.3 0  0.775 0.3 0  0.8 0.3 0  0.825 0.3 0  0.85 0.3 0  0.875 0.3 0  0.9 0.3 0  0.925 0.3 0  0.95 0.3 0  0.975 0.3 0  1 0.3 0  0 0.325 0  0.025 0.325 0  0.05 0.325 0  0.075 0.325 0  0.1 0.325 0  0.125 0.325 0  0.15 0.325 0  0.175 0.325 0  0.2 0.325 0  0.225 0.325 0  0.25 0.325 0  0.275 0.325 0  0.3 0.325 0  0.325 0.325 0  0.35 0.325 0  0.375 0.325 0  0.4 0.325 0  0.425 0.325 0  0.45 0.325 0  0.475 0.325 0  0.5 0.325 0  0.525 0.325 0  0.55 0.325 0  0.575 0.325 0  0.6 0.325 0  0.625 0.325 0  0.65 0.325 0  0.675 0.325 0  0.7 0.325 0  0.725 0.325 0  0.75 0.325 0  0.775 0.325 0  0.8 0.325 0  0.825 0.325 0  0.85 0.325 0  0.875 0.325 0  0.9 0.325 0  0.925 0.325 0  0.95 0.325 0  0.975 0.325 0  1 0.325 0  0 0.35 0  0.025 0.35 0  0.05 0.35 0  0.075 0.35 0  0.1 0.35 0  0.125 0.35 0  0.15 0.35 0  0.175 0.35 0  0.2 0.35 0  0.225 0.35 0  0.25 0.35 0  0.275 0.35 0  0.3 0.35 0  0.325 0.35 0  0.35 0.35 0  0.375 0.35 0  0.4 0.35 0  0.425 0.35 0  0.45 0.35 0  0.475 0.35 0  0.5 0.35 0  0.525 0.35 0  0.55 0.35 0  0.575 0.35 0  0.6 0.35 0  0.625 0.35 0  0.65 0.35 0  0.675 0.35 0  0.7 0.35 0  0.725 0.35 0  0.75 0.35 0  0.775 0.35 0  0.8 0.35 0  0.825 0.35 0  0.85 0.35 0  0.875 0.35 0  0.9 0.35 0  0.925 0.35 0  0.95 0.35 0  0.975 0.35 0  1 0.35 0  0 0.375 0  0.025 0.375 0  0.05 0.375 0  0.075 0.375 0  0.1 0.375 0  0.125 0.375 0  0.15 0.375 0  0.175 0.375 0  0.2 0.375 0  0.225 0.375 0  0.25 0.375 0  0.275 0.375 0  0.3 0.375 0  0.325 0.375 0  0.35 0.375 0  0.375 0.375 0  0.4 0.375 0  0.425 0.375 0  0.45 0.375 0  0.475 0.375 0  0.5 0.375 0  0.525 0.375 0  0.55 0.375 0  0.575 0.375 0  0.6 0.375 0  0.625 0.375 0  0.65 0.375 0  0.675 0.375 0  0.7 0.375 0  0.725 0.375 0  0.75 0.375 0  0.775 0.375 0  0.8 0.375 0  0.825 0.375 0  0.85 0.375 0  0.875 0.375 0  0.9 0.375 0  0.925 0.375 0  0.95 0.375 0  0.975 0.375 0  1 0.375 0  0 0.4 0  0.025 0.4 0  0.05 0.4 0  0.075 0.4 0  0.1 0.4 0  0.125 0.4 0  0.15 0.4 0  0.175 0.4 0  0.2 0.4 0  0.225 0.4 0  0.25 0.4 0  0.275 0.4 0  0.3 0.4 0  0.325 0.4 0  0.35 0.4 0  0.375 0.4 0  0.4 0.4 0  0.425 0.4 0  0.45 0.4 0  0.475 0.4 0  0.5 0.4 0  0.525 0.4 0  0.55 0.4 0  0.575 0.4 0  0.6 0.4 0  0.625 0.4 0  0.65 0.4 0  0.675 0.4 0  0.7 0.4 0  0.725 0.4 0  0.75 0.4 0  0.775 0.4 0  0.8 0.4 0  0.825 0.4 0  0.85 0.4 0  0.875 0.4 0  0.9 0.4 0  0.925 0.4 0  0.95 0.4 0  0.975 0.4 0  1 0.4 0  0 0.425 0  0.025 0.425 0  0.05 0.425 0  0.075 0.425 0  0.1 0.425 0  0.125 0.425 0  0.15 0.425 0  0.175 0.425 0  0.2 0.425 0  0.225 0.425 0  0.25 0.425 0  0.275 0.425 0  0.3 0.425 0  0.325 0.425 0  0.35 0.425 0  0.375 0.425 0  0.4 0.425 0  0.425 0.425 0  0.45 0.425 0  0.475 0.425 0  0.5 0.425 0  0.525 0.425 0  0.55 0.425 0  0.575 0.425 0  0.6 0.425 0  0.625 0.425 0  0.65 0.425 0  0.675 0.425 0  0.7 0.425 0  0.725 0.425 0  0.75 0.425 0  0.775 0.425 0  0.8 0.425 0  0.825 0.425 0  0.85 0.425 0  0.875 0.425 0  0.9 0.425 0  0.925 0.425 0  0.95 0.425 0  0.975 0.425 0  1 0.425 0  0 0.45 0  0.02
[...]
<PointData  Scalars="ControlVisualisation"> 
<DataArray  type="Float64"  Name="ControlVisualisation"  format="ascii">8.5196457679384255e-07  5.6431390248671103e-07  5.6459147571453143e-07  5.6516062486669036e-07  5.6603736666082438e-07  5.6711468998944032e-07  5.6824378279324542e-07  5.6933047964645599e-07  5.7032500070865267e-07  5.7119123978552905e-07  5.7191256473451672e-07  5.7249599210878539e-07  5.7295502339180246e-07  5.7330008763329867e-07  5.7354601867282564e-07  5.7371682635101983e-07  5.7383817548481107e-07  5.7392734457132881e-07  5.7399061452878485e-07  5.7402745300753477e-07  5.7403564444847615e-07  5.7401361187764171e-07  5.7395990237370697e-07  5.7387161732314855e-07  5.7374330923531347e-07  5.7356666380193986e-07  5.7333021161263350e-07  5.7301855071491657e-07  5.7261276702836266e-07  5.7209375231147168e-07  5.7144815726382115e-07  5.7067218073007642e-07  5.6976937016452651e-07  5.6874261552807142e-07  5.6761517256159720e-07  5.6648011017809223e-07  5.6549545312144827e-07  5.6479524623629518e-07  5.6440656139344863e-07  5.6425219668778129e-07  1.7193935510953962e-06  5.6430017919082366e-07  2.7710115091515547e-07  2.7738233696213701e-07  2.7798552193636969e-07  2.7894588123318857e-07  2.8014985506624717e-07  2.8142410857259196e-07  2.8266302006201908e-07  2.8382419795909915e-07  2.8485519866270489e-07  2.8571809274924522e-07  2.8642072971430965e-07  2.8698189158803772e-07  2.8740808337626409e-07  2.8771025992395774e-07  2.8791712704421349e-07  2.8806377438946409e-07  2.8817424423200900e-07  2.8825645076564203e-07  2.8830850919776134e-07  2.8832672172461885e-07  2.8830918824037544e-07  2.8825502490914912e-07  2.8816193856918840e-07  2.8802459993346235e-07  2.8783448323241892e-07  2.8757980281117138e-07  2.8724433467622555e-07  2.8680638632260576e-07  2.8624180095892745e-07  2.8553246141716825e-07  2.8467674840466569e-07  2.8368520570778030e-07  2.8256092217061310e-07  2.8130704129232826e-07  2.7999116841241733e-07  2.7878338211683374e-07  2.7787133185733085e-07  2.7732626797408574e-07  2.7707796237595045e-07  5.6425037952852785e-07  5.6442479214997808e-07  2.7727982859319355e-07  2.7770839235842888e-07  2.7855837805315536e-07  2.7984927646876257e-07  2.8135004104577017e-07  2.8271620777466905e-07  2.8402464370414276e-07  2.8537677832219809e-07  2.8656975988592518e-07  2.8750341446394705e-07  2.8826718271024858e-07  2.8891139769949595e-07  2.8939785385942989e-07  2.8971328289095432e-07  2.8991008888598400e-07  2.9005441176527160e-07  2.9017903888842483e-07  2.9028237604137710e-07  2.9035074947284446e-07  2.9037532555106790e-07  2.9035548714757823e-07  2.9029388278630057e-07  2.9019033791953525e-07  2.9003909621640503e-07  2.8983031965046115e-07  2.8955243524445809e-07  2.8919071722976676e-07  2.8871915811442020e-07  2.8810310151831563e-07  2.8731173288619142e-07  2.8634904832560625e-07  2.8525117320369412e-07  2.8406535222577060e-07  2.8273356648525984e-07  2.8120116686847505e-07  2.7965732542400049e-07  2.7841653703393268e-07  2.7762419073728064e-07  2.7723356203409928e-07  5.6435396683967809e-07  5.6445673459185106e-07  2.7748606855168030e-07  2.7830632586811884e-07  2.7982437731385008e-07  2.8181783998036140e-07  2.8378717290895014e-07  2.8485057783169725e-07  2.8645085887173017e-07  2.8867565582005514e-07  2.9046562439999690e-07  2.9168960250879885e-07  2.9284309304372958e-07  2.9398565303254794e-07  2.9485354538299322e-07  2.9538464169135368e-07  2.9573198154278914e-07  2.9603696070217679e-07  2.9632655764968371e-07  2.9656037656354403e-07  2.9669882477965526e-07  2.9673030732889129e-07  2.9666431925981487e-07  2.9651388757054389e-07  2.9628187322267625e-07  2.9595688633203807e-07  2.9552129699860047e-07  2.9496520564795519e-07  2.9428657233457370e-07  2.9345667066211927e-07  2.9242151889564535e-07  2.9110127627102871e-07  2.8949595708054059e-07  2.8778316621292645e-07  2.8636355483246992e-07  2.8508928526762045e-07  2.8341025443334591e-07  2.8133853580071135e-07  2.7942503945296660e-07  2.7805490430290870e-07  2.7733398264484438e-07  5.6445746204324793e-07  5.6419398821749131e-07  2.7783270525105380e-07  2.8186444387811517e-07  2.9150140990105143e-07  3.0676835671444641e-07  3.2499157058244249e-07  3.3011832923801268e-07  3.3947559863864621e-07  3.6249390278274445e-07  3.7859668762121239e-07  3.8686527030578087e-07  3.9918939277800652e-07  4.1362965045406284e-07  4.2490870467511233e-07  4.3183110563474035e-07  4.3712046122919580e-07  4.4235355116047564e-07  4.4723147852719148e-07  4.5098424207461472e-07  4.5316456157765428e-07  4.5377034254277722e-07  4.5301631682581609e-07  4.5106858939030589e-07  4.4793830088904578e-07  4.4353383635082219e-07  4.3778904017490163e-07  4.3076820531577392e-07  4.2260197716823669e-07  4.1310394495942758e-07  4.0190525709443933e-07  3.8839596941938279e-07  3.7269330326353959e-07  3.5672107566912121e-07  3.4387225782002377e-07  3.3056471334983886e-07  3.1184151418839787e-07  2.9466949130903964e-07  2.8436158051183988e-07  2.7976491624504806e-07  2.7780520967761350e-07  5.6436954672555636e-07  6.0118305979876384e-07  2.9567771943716709e-07  3.3823928491247655e-07  4.5144345305933159e-07  8.4825492389896650e-07  1.6812928717670551e-05  4.9951047405957211e-02  5.1170356103323204e-02  1.4089186585739366e-01  2.0293816365965092e-01  2.1526525015944581e-01  2.3589190966121598e-01  2.6852691094555659e-01  2.8881544511466328e-01  2.9513672011711789e-01  3.0000521822865878e-01  3.0843329101923600e-01  3.1797177238181318e-01  3.2537501665631358e-01  3.2921430711074534e-01  3.2967719609588808e-01  3.2764242429015267e-01  3.2398437195657565e-01  3.1915308502557493e-01  3.1285105006189945e-01  3.0411037278415010e-01  2.9217943553218917e-01  2.7742461455084189e-01  2.6044462560535164e-01  2.4033274699065624e-01  2.1456918656955459e-01  1.8011291477866317e-01  1.3933352638349691e-01  1.0539768718744297e-01  7.4153905311332161e-02  9.4665333319841335e-06  8.3861603368334503e-07  4.6796872806872187e-07  3.3324505112971525e-07  2.8502808020157142e-07  5.7081203578610008e-07  6.4485140527605415e-07  6.2456631899044645e-07  2.1943367106584608e-01  4.9693494668031268e-01  7.0092284569716212e-01  8.6434471253350742e-01  9.7806594834516869e-01  9.9999140079032711e-01  9.9999642389275123e-01  9.9999793674413562e-01  9.9999825555144162e-01  9.9999848899894128e-01  9.9999863153771595e-01  9.9999872450514493e-01  9.9999877672512616e-01  9.9999882149054686e-01  9.9999886723003883e-01  9.9999890783805834e-01  9.9999893829460573e-01  9.9999895607946065e-01  9.9999896140642552e-01  9.9999895597371014e-01  9.9999894137110523e-01  9.9999891814336050e-01  9.9999888506087653e-01  9.9999883864931050e-01  9.9999877381097335e-01  9.9999868489136556e-01  9.9999856383774643e-01  9.9999839293508608e-01  9.9999813066154264e-01  9.9999765009711949e-01  9.9999638067610064e-01  9.9998942064613816e-01  9.6480150754233940e-01  8.6026681082835332e-01  7.0282591738821276e-01  4.9433843183115767e-01  1.9412186368852494e-01  5.3952428568419138e-07  6.0112240121178142e-07  9.9999765386090456e-01  9.9999854870432192e-01  9.9999957441116094e-01  9.9999968401011985e-01  9.9999971188667836e-01  9.9999972499578160e-01  9.9999973083295379e-01  9.9999973657615171e-01  9.9999974454478191e-01  9.9999975181021028e-01  9.9999975746537051e-01  9.9999976235513877e-01  9.9999976657444234e-01  9.9999977012554520e-01  9.9999977297499509e-01  9.9999977525815620e-01  9.9999977713111599e-01  9.9999977864834977e-01  9.9999977978451304e-01  9.9999978049789751e-01  9.9999978077194251e-01  9.9999978061639261e-01  9.9999978004653134e-01  9.9999977906312798e-01  9.9999977764551518e-01  9.9999977575941978e-01  9.9999977337045609e-01  9.9999977044744504e-01  9.9999976695015724e-01  9.9999976282087211e-01  9.9999975800301277e-01  9.9999975246261008e-01  9.9999974608590725e-01  9.9999973828837352e-01  9.9999972778800517e-01  9.9999971428496182e-01  9.9999969501051156e-01  9.9999965914483124e-01  9.9999956443964277e-01  9.9999919979169205e-01  5.0461334065455976e-01  9.9999987520748057e-01  9.9999992195157872e-01  9.9999991294089607e-01  9.9999990364245206e-01  9.9999989623614149e-01  9.9999989097947783e-01  9.9999988744614998e-01  9.9999988512639570e-01  9.9999988375857096e-01  9.9999988314790078e-01  9.9999988301538356e-01  9.9999988316380828e-01  9.9999988347793656e-01  9.9999988385277372e-01  9.9999988420188879e-01  9.9999988449662136e-01  9.9999988474637880e-01  9.9999988496026593e-01  9.9999988513279514e-01  9.9999988524996819e-01  9.9999988530011374e-01  9.9999988527901384e-01  9.9999988518846072e-01  9.9999988503242099e-01  9.9999988481511815e-01  9.9999988454263689e-01  9.9999988422682928e-01  9.9999988388951377e-01  9.9999988356760616e-01  9.9999988332363487e-01  9.9999988326465528e-01  9.9999988356069258e-01  9.9999988443791310e-01  9.9999988613767632e-01  9.9999988891639691e-01  9.9999989316311477e-01  9.9999989941923551e-01  9.9999990789552518e-01  9.9999991772602881e-01  9.9999992680693506e-01  9.9999981195109255e-01  9.9999994067210118e-01  9.9999996896953669e-01  9.9999995994960711e-01  9.9999994909908629e-01  9.9999993890148875e-01  9.9999993062711656e-01  9.9999992455650311e-01  9.9999992036150165e-01  9.9999991757897611e-01  9.9999991579941849e-01  9.9999991469008054e-01  9.9999991401002253e-01  9.9999991360211604e-01  9.9999991335820793e-01  9.9999991320408921e-01  9.9999991309976755e-01  9.9999991302997859e-01  9.9999991298901791e-01  9.9999991297076574e-01  9.9999991296713620e-01  9.9999991297091662e-01  9.9999991297827284e-01  9.9999991298939006e-01  9.9999991300800761e-01  9.9999991304104030e-01  9.9999991309922609e-01  9.9999991319918835e-01  9.9999991336707850e-01  9.9999991364470675e-01  9.9999991409994049e-01  9.9999991484227480e-01  9.9999991604074256e-01  9.9999991793774046e-01  9.9999992085955247e-01  9.9999992522661085e-01  9.9999993150678723e-01  9.9999993998807779e-01  9.9999995031398015e-01  9.9999996105386868e-01  9.9999996966440374e-01  9.9999993010772070e-01  9.9999994943056658e-01  9.9999997662162643e-01  9.9999996863718144e-01  9.9999995834032340e-01  9.9999994798797298e-01  9.9999993914776231e-01  9.9999993239399043e-01  9.9999992757187928e-01  9.9999992424865702e-01  9.9999992198575594e-01  9.9999992043728525e-01  9.9999991935930599e-01  9.9999991859107951e-01  9.9999991802810939e-01  9.9999991760323581e-01  9.9999991727670112e-01  9.9999991702788771e-01  9.9999991684617739e-01  9.9999991672401534e-01  9.9999991665470567e-01  9.9999991663325227e-01  9.9999991665699262e-01  9.9999991672574751e-01  9.9999991684292644e-01  9.9999991701623347e-01  9.9999991725777204e-01  9.9999991758504592e-01  9.9999991802387633e-01  9.9999991861400850e-01  9.9999991941844724e-01  9.9999992053759867e-01  9.9999992212823019e-01  9.9999992442477870e-01  9.9999992776069124e-01  9.9999993256818698e-01  9.9999993928399133e-01  9.9999994807630843e-01  9.9999995838866451e-01  9.9999996866355767e-01  9.9999997663723761e-01  9.9999994944332027e-01  9.9999993002054144e-01  9.9999996947666747e-01  9.9999996047557982e-01  9.9999994911296131e-01  9.9999993793712094e-01  9.9999992845350949e-01  9.9999992114593461e-01  9.9999991580866987e-01  9.9999991197392257e-01  9.9999990919131887e-01  9.9999990712532039e-01  9.9999990554851914e-01  9.9999990431430230e-01  9.9999990333018418e-01  9.9999990253768767e-01  9.9999990190113996e-01  9.9999990140031403e-01  9.9999990102340097e-01  9.9999990076178502e-01  9.9999990060809640e-01  9.9999990055672161e-01  9.9999990060482402e-01  9.9999990075294309e-01  9.9999990100562175e-01  9.9999990137186046e-01  9.9999990186501253e-01  9.9999990250294823e-01  9.9999990330971933e-01  9.9999990431962615e-01  9.9999990558455965e-01  9.9999990718621523e-01  9.9999990925492543e-01  9.9999991199407812e-01  9.9999991571068736e-01  9.9999992083114897e-01  9.9999992783602698e-01  9.9999993700366863e-01  9.9999994796758707e-01  9.9999995940593345e-01  9.9999996881140152e-01  9.9999994063208231e-01  9.9999981154098905e-01  9.9999992573777619e-01  9.9999991477958672e-01  9.9999990250322279e-01  9.9999989102110542e-01  9.9999988142236551e-01  9.9999987386100808e-01  9.9999986793567575e-01  9.9999986314709310e-01  9.9999985913732981e-01  9.9999985570251226e-01  9.9999985273094349e-01  9.9999985015999093e-01  9.9999984795008368e-01  9.9999984607344694e-01  9.9999984451209178e-01  9.9999984325490376e-01  9.9999984229330408e-01  9.9999984161830735e-01  9.9999984122012797e-01  9.9999984108993289e-01  9.9999984122239627e-01  9.9999984161772992e-01  9.9999984228249794e-01  9.9999984322902091e-01  9.9999984447346291e-01  9.9999984603313796e-01  9.9999984792418672e-01  9.9999985016083071e-01  9.9999985275698933e-01  9.9999985572977790e-01  9.9999985910759681e-01  9.9999986295017229e-01  9.9999986739157065e-01  9.9999987270258528e-01  9.9999987933629053e-01  9.9999988772657167e-01  9.9999989801214695e-01  9.9999990974797714e-01  9.9999992075472166e-01  9.9999987489934006e-01  4.9683198291868380e-01  9.9999912582587802e-01  9.9999951588464353e-01  9.9999961401788340e-01  9.9999964377152883e-01  9.9999965289838333e-01  9.9999965434801341e-01  9.9999965106074473e-01  9.9999964465237401e-01  9.9999963608553322e-01  9.9999962618137050e-01  9.9999961591190911e-01  9.9999960591952153e-01  9.9999959648013148e-01  9.9999958784400034e-01  9.9999958025555313e-01  9.9999957390051619e-01  9.9999956888979580e-01  9.9999956527051803e-01  9.9999956305213600e-01  9.9999956222484010e-01  9.9999956276853330e-01  9.9999956466142792e-01  9.9999956788983513e-01  9.9999957244957216e-01  9.9999957832706043e-01  9.9999958546466394e-01  9.9999959372879732e-01  9.9999960291945444e-01  9.9999961285086791e-01  9.9999962322424618e-01  9.9999963354288857e-01  9.9999964326794322e-01  9.9999965165270455e-01  9.9999965772123012e-01  9.9999966056686507e-01  9.9999965582850603e-01  9.9999963443808437e-01  9.9999951017081545e-01  9.9999820611404533e-01  9.9999757667244982e-01  5.9997626023500806e-07  5.0581880617728751e-07  1.4790434532008967e-01  4.1122102231999225e-01  5.6525270790077586e-01  6.7103321162041296e-01  7.3013021211962992e-01  7.5637035212820880e-01  7.5919440615297640e-01  7.4928311391705571e-01  7.3619615842881159e-01  7.2339803014134396e-01  7.1028232281206316e-01  6.9674106041539996e-01  6.8400138460554161e-01  6.7352869966589457e-01  6.6589912384440630e-01  6.6084547587864984e-01  6.5779445895991062e-01  6.5624620548598611e-01  6.5590316656808079e-01  6.5665325031267774e-01  6.5853209170948279e-01  6.6172805102368537e-01  6.6661793166603733e-01  6.7374231672949536e-01  6.8358321995438176e-01  6.9607822565459843e-01  7.1017558945956238e-01  7.2422418248033826e-01  7.3717189860323640e-01  7.4935005379770792e-01  7.5866120661161918e-01  7.5598312588917216e-01  7.2969105629370568e-01  6.6994460965107083e-01  5.6359401873072956e-01  4.1122869745483354e-01  1.7279678935784432e-01  5.7586615142022405e-07  6.4125156366380115e-07  5.7060020999611192e-07  2.8475826958824298e-07  3.2422867120709694e-07  4.1806472130230987e-07  5.5466615141552757e-07  8.1988338242750732e-07  1.1994351129575758e-06  1.6473538955432948e-06  1.9375163583926895e-06  1.8644177685993778e-06  1.8018162713047151e-06  1.8071555117648895e-06  1.7548138355790495e-06  1.5941614368359137e-06  1.4254931409591785e-06  1.3035819067546173e-06  1.2264777841773036e-06  1.1781667573899484e-06  1.1470778238259887e-06  1.1281173392608027e-06  1.1199858978264234e-06  1.1226225022335680e-06  1.1359519433196394e-06  1.1597665692450469e-06  1.1946552310975012e-06  1.2440171462233709e-06  1.3160209805866477e-06  1.4212545970999448e-06  1.5584336285638556e-06  1.6873591330587665e-06  1.7408286440487828e-06  1.7388035367061590e-06  1.7228688420755828e-06  1.5651614572490083e-06  1.1951807665776692e-06  8.1996587296420033e-07  5.6023860817681868e-07  4.0640841417036073e-07  3.3181416814517476e-07  2.9487427208584306e-07  6.0131599378899389e-07  5.6447675448249116e-07  2.7794222192053812e-07  2.7990358826457577e-07  2.8343329942163007e-07  2.8997806015551987e-07  2.9855059136462816e-07  3.0554533162738146e-07  3.1042921894977352e-07  3.1309899688520494e-07  3.1420546659553650e-07  3.1445816407414628e-07  3.1429870853051635e-07  3.1392477903463954e-07  3.1344215443712915e-07  3.1290965739545198e-07  3.1241627964992980e-07  3.1201443861463999e-07  3.1171142656153553e-07  3.1149685993516852e-07  3.1136042329348458e-07  3.1129700160098381e-07  3.1130487142153662e-07  3.1138330201994401e-07  3.1153209957838509e-07  3.1175230880280563e-07  3.1204553056400105e-07  3.1240936545739112e-07  3.1282923469399321e-07  3.1326948041388557e-07  3.1366394097314796e-07  3.1390431395346052e-07  3.1383050251264913e-07  3.1320471261141503e-07  3.1165358913982847e-07  3.0854923846950897e-07  3.0329191897529569e-07  2.9600718025322378e-07  2.8799996181364783e-07  2.8133233822156243e-07  2.7788576792185365e-07  5.6424368660948955e-07  5.6455039397159455e-07  2.7744645219233586e-07  2.7818628230176188e-07  2.7946577304556621e-07  2.8114931799363758e-07  2.8300989231341031e-07  2.8475534284250149e-07  2.8630354995804675e-07  2.8754507169606935e-07  2.8851510881989357e-07  2.8926683149150901e-07  2.8984552501299019e-07  2.9027824610077666e-07  2.9058727817361315e-07  2.9079495318043765e-07  2.9093091942886440e-07  2.9102006269826657e-07  2.9107807244108079e-07  2.9111345324799017e-07  2.9113080384395344e-07  2.9113277651184300e-07  2.9112038356150782e-07  2.9109267622951810e-07  2.9104655373715090e-07  2.9097667585038935e-07  2.9087484736756139e-07  2.9072840117269295e-07  2.9051827112235329e-07  2.9021868058776769e-07  2.8979977036404034e-07  2.8923194784427662e-07  2.8848856787709828e-07  2.8754445879662180e-07  2.8637236646610942e-07  2.8494981546973640e-07  2.8329384272559146e-07  2.8151508094678086e-07  2.7981758195912758e-07  2.7845840481544180e-07  2.7763983968335494e-07  5.6458868490511113e-07  5.6441450073214153e-07  2.7731558595195685e-07  2.7772803024339570e-07  2.7850013632751506e-07  2.7967901285376404e-07  2.8119019639058485e-07  2.8283151358624535e-07  2.8441372917450956e-07  2.8581468228193273e-07  2.8698981337526891e-07  2.8793929619651817e-07  2.8868614663967427e-07  2.8925774381516535e-07  2.8968227036023068e-07  2.8998772972670290e-07  2.9020198904414069e-07  2.9034926615381778e-07  2.9044785876299846e-07  2.9051003850403490e-07  2.9054336941863020e-07  2.9055198475076534e-07  2.9053721562943067e-07  2.9049768359764620e-07  2.9042910481004219e-07  2.9032387254274810e-07  2.9017034042621388e-07  2.8995188692796704e-07  2.8964625545726695e-07  2.8922596507127161e-07  2.8866037437909454e-07  2.8791928743986252e-07  2.8697749198214486e-07  2.8582043943463823e-07  2.8445403148597175e-07  2.8292252154594189e-07  2.8132963766626553e-07  2.7983963941508586e-07  2.7863367911161751e-07  2.7783507671135435e-07  2.7739468177266934e-07  5.6452920495124903e-07  5.6427635935515165e-07  2.7713033529466947e-07  2.7743618676731620e-07  2.7806220611909659e-07  2.7908085385750461e-07  2.8044656949056103e-07  2.8201300207007149e-07  2.8360631335407259e-07  2.8508662286876998e-07  2.8637129419941768e-07  2.8743285972788365e-07  2.8827894067532174e-07  2.8893352261661923e-07  2.8942633243496227e-07  2.8978781127227514e-07  2.9004661075645910e-07  2.9022753727128002e-07  2.9035009645607555e-07  2.9042826860935657e-07  2.9047118020642550e-07  2.9048393204417072e-07  2.9046815697159434e-07  2.9042219327743462e-07  2.9034091436200274e-07  2.9021527200319487e-07  2.9003164517180771e-07  2.8977123458501793e-07  2.8940992187476086e-07  2.8891904855275185e-07  2.8826742947209690e-07  2.8742500620223416e-07  2.8636912368285820e-07  2.8509506824954685e-07  2.8363153076150485e-07  2.8205737326830083e-07  2.8050723820236570e-07  2.7914801414660404e-07  2.7812103264357287e-07  2.7747990090695193e-07  2.7716521219965788e-07  5.6436316766215112e-07  5.6425055683378879e-07  2.7706517606247853e-07  2.7734887497723665e-07  2.7794984782468382e-07  2.7892639064270351e-07  2.8024472150714515e-07  2.8177967235679309e-07  2.8336641448112466e-07  2.848614510