<?xml version="1.0"?>
<VTKFile type="UnstructuredGrid"  version="0.1"  >
<UnstructuredGrid>
<Piece  NumberOfPoints="1681" NumberOfCells="3200">
<Points>
<DataArray  type="Float64"  NumberOfComponents="3"  format="ascii">0 0 0  0.025 0 0  0.05 0 0  0.075 0 0  0.1 0 0  0.125 0 0  0.15 0 0  0.175 0 0  0.2 0 0  0.225 0 0  0.25 0 0  0.275 0 0  0.3 0 0  0.325 0 0  0.35 0 0  0.375 0 0  0.4 0 0  0.425 0 0  0.45 0 0  0.475 0 0  0.5 0 0  0.525 0 0  0.55 0 0  0.575 0 0  0.6 0 0  0.625 0 0  0.65 0 0  0.675 0 0  0.7 0 0  0.725 0 0  0.75 0 0  0.775 0 0  0.8 0 0  0.825 0 0  0.85 0 0  0.875 0 0  0.9 0 0  0.925 0 0  0.95 0 0  0.975 0 0  1 0 0  0 0.025 0  0.025 0.025 0  0.05 0.025 0  0.075 0.025 0  0.1 0.025 0  0.125 0.025 0  0.15 0.025 0  0.175 0.025 0  0.2 0.025 0  0.225 0.025 0  0.25 0.025 0  0.275 0.025 0  0.3 0.025 0  0.325 0.025 0  0.35 0.025 0  0.375 0.025 0  0.4 0.025 0  0.425 0.025 0  0.45 0.025 0  0.475 0.025 0  0.5 0.025 0  0.525 0.025 0  0.55 0.025 0  0.575 0.025 0  0.6 0.025 0  0.625 0.025 0  0.65 0.025 0  0.675 0.025 0  0.7 0.025 0  0.725 0.025 0  0.75 0.025 0  0.775 0.025 0  0.8 0.025 0  0.825 0.025 0  0.85 0.025 0  0.875 0.025 0  0.9 0.025 0  0.925 0.025 0  0.95 0.025 0  0.975 0.025 0  1 0.025 0  0 0.05 0  0.025 0.05 0  0.05 0.05 0  0.075 0.05 0  0.1 0.05 0  0.125 0.05 0  0.15 0.05 0  0.175 0.05 0  0.2 0.05 0  0.225 0.05 0  0.25 0.05 0  0.275 0.05 0  0.3 0.05 0  0.325 0.05 0  0.35 0.05 0  0.375 0.05 0  0.4 0.05 0  0.425 0.05 0  0.45 0.05 0  0.475 0.05 0  0.5 0.05 0  0.525 0.05 0  0.55 0.05 0  0.575 0.05 0  0.6 0.05 0  0.625 0.05 0  0.65 0.05 0  0.675 0.05 0  0.7 0.05 0  0.725 0.05 0  0.75 0.05 0  0.775 0.05 0  0.8 0.05 0  0.825 0.05 0  0.85 0.05 0  0.875 0.05 0  0.9 0.05 0  0.925 0.05 0  0.95 0.05 0  0.975 0.05 0  1 0.05 0  0 0.075 0  0.025 0.075 0  0.05 0.075 0  0.075 0.075 0  0.1 0.075 0  0.125 0.075 0  0.15 0.075 0  0.175 0.075 0  0.2 0.075 0  0.225 0.075 0  0.25 0.075 0  0.275 0.075 0  0.3 0.075 0  0.325 0.075 0  0.35 0.075 0  0.375 0.075 0  0.4 0.075 0  0.425 0.075 0  0.45 0.075 0  0.475 0.075 0  0.5 0.075 0  0.525 0.075 0  0.55 0.075 0  0.575 0.075 0  0.6 0.075 0  0.625 0.075 0  0.65 0.075 0  0.675 0.075 0  0.7 0.075 0  0.725 0.075 0  0.75 0.075 0  0.775 0.075 0  0.8 0.075 0  0.825 0.075 0  0.85 0.075 0  0.875 0.075 0  0.9 0.075 0  0.925 0.075 0  0.95 0.075 0  0.975 0.075 0  1 0.075 0  0 0.1 0  0.025 0.1 0  0.05 0.1 0  0.075 0.1 0  0.1 0.1 0  0.125 0.1 0  0.15 0.1 0  0.175 0.1 0  0.2 0.1 0  0.225 0.1 0  0.25 0.1 0  0.275 0.1 0  0.3 0.1 0  0.325 0.1 0  0.35 0.1 0  0.375 0.1 0  0.4 0.1 0  0.425 0.1 0  0.45 0.1 0  0.475 0.1 0  0.5 0.1 0  0.525 0.1 0  0.55 0.1 0  0.575 0.1 0  0.6 0.1 0  0.625 0.1 0  0.65 0.1 0  0.675 0.1 0  0.7 0.1 0  0.725 0.1 0  0.75 0.1 0  0.775 0.1 0  0.8 0.1 0  0.825 0.1 0  0.85 0.1 0  0.875 0.1 0  0.9 0.1 0  0.925 0.1 0  0.95 0.1 0  0.975 0.1 0  1 0.1 0  0 0.125 0  0.025 0.125 0  0.05 0.125 0  0.075 0.125 0  0.1 0.125 0  0.125 0.125 0  0.15 0.125 0  0.175 0.125 0  0.2 0.125 0  0.225 0.125 0  0.25 0.125 0  0.275 0.125 0  0.3 0.125 0  0.325 0.125 0  0.35 0.125 0  0.375 0.125 0  0.4 0.125 0  0.425 0.125 0  0.45 0.125 0  0.475 0.125 0  0.5 0.125 0  0.525 0.125 0  0.55 0.125 0  0.575 0.125 0  0.6 0.125 0  0.625 0.125 0  0.65 0.125 0  0.675 0.125 0  0.7 0.125 0  0.725 0.125 0  0.75 0.125 0  0.775 0.125 0  0.8 0.125 0  0.825 0.125 0  0.85 0.125 0  0.875 0.125 0  0.9 0.125 0  0.925 0.125 0  0.95 0.125 0  0.975 0.125 0  1 0.125 0  0 0.15 0  0.025 0.15 0  0.05 0.15 0  0.075 0.15 0  0.1 0.15 0  0.125 0.15 0  0.15 0.15 0  0.175 0.15 0  0.2 0.15 0  0.225 0.15 0  0.25 0.15 0  0.275 0.15 0  0.3 0.15 0  0.325 0.15 0  0.35 0.15 0  0.375 0.15 0  0.4 0.15 0  0.425 0.15 0  0.45 0.15 0  0.475 0.15 0  0.5 0.15 0  0.525 0.15 0  0.55 0.15 0  0.575 0.15 0  0.6 0.15 0  0.625 0.15 0  0.65 0.15 0  0.675 0.15 0  0.7 0.15 0  0.725 0.15 0  0.75 0.15 0  0.775 0.15 0  0.8 0.15 0  0.825 0.15 0  0.85 0.15 0  0.875 0.15 0  0.9 0.15 0  0.925 0.15 0  0.95 0.15 0  0.975 0.15 0  1 0.15 0  0 0.175 0  0.025 0.175 0  0.05 0.175 0  0.075 0.175 0  0.1 0.175 0  0.125 0.175 0  0.15 0.175 0  0.175 0.175 0  0.2 0.175 0  0.225 0.175 0  0.25 0.175 0  0.275 0.175 0  0.3 0.175 0  0.325 0.175 0  0.35 0.175 0  0.375 0.175 0  0.4 0.175 0  0.425 0.175 0  0.45 0.175 0  0.475 0.175 0  0.5 0.175 0  0.525 0.175 0  0.55 0.175 0  0.575 0.175 0  0.6 0.175 0  0.625 0.175 0  0.65 0.175 0  0.675 0.175 0  0.7 0.175 0  0.725 0.175 0  0.75 0.175 0  0.775 0.175 0  0.8 0.175 0  0.825 0.175 0  0.85 0.175 0  0.875 0.175 0  0.9 0.175 0  0.925 0.175 0  0.95 0.175 0  0.975 0.175 0  1 0.175 0  0 0.2 0  0.025 0.2 0  0.05 0.2 0  0.075 0.2 0  0.1 0.2 0  0.125 0.2 0  0.15 0.2 0  0.175 0.2 0  0.2 0.2 0  0.225 0.2 0  0.25 0.2 0  0.275 0.2 0  0.3 0.2 0  0.325 0.2 0  0.35 0.2 0  0.375 0.2 0  0.4 0.2 0  0.425 0.2 0  0.45 0.2 0  0.475 0.2 0  0.5 0.2 0  0.525 0.2 0  0.55 0.2 0  0.575 0.2 0  0.6 0.2 0  0.625 0.2 0  0.65 0.2 0  0.675 0.2 0  0.7 0.2 0  0.725 0.2 0  0.75 0.2 0  0.775 0.2 0  0.8 0.2 0  0.825 0.2 0  0.85 0.2 0  0.875 0.2 0  0.9 0.2 0  0.925 0.2 0  0.95 0.2 0  0.975 0.2 0  1 0.2 0  0 0.225 0  0.025 0.225 0  0.05 0.225 0  0.075 0.225 0  0.1 0.225 0  0.125 0.225 0  0.15 0.225 0  0.175 0.225 0  0.2 0.225 0  0.225 0.225 0  0.25 0.225 0  0.275 0.225 0  0.3 0.225 0  0.325 0.225 0  0.35 0.225 0  0.375 0.225 0  0.4 0.225 0  0.425 0.225 0  0.45 0.225 0  0.475 0.225 0  0.5 0.225 0  0.525 0.225 0  0.55 0.225 0  0.575 0.225 0  0.6 0.225 0  0.625 0.225 0  0.65 0.225 0  0.675 0.225 0  0.7 0.225 0  0.725 0.225 0  0.75 0.225 0  0.775 0.225 0  0.8 0.225 0  0.825 0.225 0  0.85 0.225 0  0.875 0.225 0  0.9 0.225 0  0.925 0.225 0  0.95 0.225 0  0.975 0.225 0  1 0.225 0  0 0.25 0  0.025 0.25 0  0.05 0.25 0  0.075 0.25 0  0.1 0.25 0  0.125 0.25 0  0.15 0.25 0  0.175 0.25 0  0.2 0.25 0  0.225 0.25 0  0.25 0.25 0  0.275 0.25 0  0.3 0.25 0  0.325 0.25 0  0.35 0.25 0  0.375 0.25 0  0.4 0.25 0  0.425 0.25 0  0.45 0.25 0  0.475 0.25 0  0.5 0.25 0  0.525 0.25 0  0.55 0.25 0  0.575 0.25 0  0.6 0.25 0  0.625 0.25 0  0.65 0.25 0  0.675 0.25 0  0.7 0.25 0  0.725 0.25 0  0.75 0.25 0  0.775 0.25 0  0.8 0.25 0  0.825 0.25 0  0.85 0.25 0  0.875 0.25 0  0.9 0.25 0  0.925 0.25 0  0.95 0.25 0  0.975 0.25 0  1 0.25 0  0 0.275 0  0.025 0.275 0  0.05 0.275 0  0.075 0.275 0  0.1 0.275 0  0.125 0.275 0  0.15 0.275 0  0.175 0.275 0  0.2 0.275 0  0.225 0.275 0  0.25 0.275 0  0.275 0.275 0  0.3 0.275 0  0.325 0.275 0  0.35 0.275 0  0.375 0.275 0  0.4 0.275 0  0.425 0.275 0  0.45 0.275 0  0.475 0.275 0  0.5 0.275 0  0.525 0.275 0  0.55 0.275 0  0.575 0.275 0  0.6 0.275 0  0.625 0.275 0  0.65 0.275 0  0.675 0.275 0  0.7 0.275 0  0.725 0.275 0  0.75 0.275 0  0.775 0.275 0  0.8 0.275 0  0.825 0.275 0  0.85 0.275 0  0.875 0.275 0  0.9 0.275 0  0.925 0.275 0  0.95 0.275 0  0.975 0.275 0  1 0.275 0  0 0.3 0  0.025 0.3 0  0.05 0.3 0  0.075 0.3 0  0.1 0.3 0  0.125 0.3 0  0.15 0.3 0  0.175 0.3 0  0.2 0.3 0  0.225 0.3 0  0.25 0.3 0  0.275 0.3 0  0.3 0.3 0  0.325 0.3 0  0.35 0.3 0  0.375 0.3 0  0.4 0.3 0  0.425 0.3 0  0.45 0.3 0  0.475 0.3 0  0.5 0.3 0  0.525 0.3 0  0.55 0.3 0  0.575 0.3 0  0.6 0.3 0  0.625 0.3 0  0.65 0.3 0  0.675 0.3 0  0.7 0.3 0  0.725 0.3 0  0.75 0.3 0  0.775 0.3 0  0.8 0.3 0  0.825 0.3 0  0.85 0.3 0  0.875 0.3 0  0.9 0.3 0  0.925 0.3 0  0.95 0.3 0  0.975 0.3 0  1 0.3 0  0 0.325 0  0.025 0.325 0  0.05 0.325 0  0.075 0.325 0  0.1 0.325 0  0.125 0.325 0  0.15 0.325 0  0.175 0.325 0  0.2 0.325 0  0.225 0.325 0  0.25 0.325 0  0.275 0.325 0  0.3 0.325 0  0.325 0.325 0  0.35 0.325 0  0.375 0.325 0  0.4 0.325 0  0.425 0.325 0  0.45 0.325 0  0.475 0.325 0  0.5 0.325 0  0.525 0.325 0  0.55 0.325 0  0.575 0.325 0  0.6 0.325 0  0.625 0.325 0  0.65 0.325 0  0.675 0.325 0  0.7 0.325 0  0.725 0.325 0  0.75 0.325 0  0.775 0.325 0  0.8 0.325 0  0.825 0.325 0  0.85 0.325 0  0.875 0.325 0  0.9 0.325 0  0.925 0.325 0  0.95 0.325 0  0.975 0.325 0  1 0.325 0  0 0.35 0  0.025 0.35 0  0.05 0.35 0  0.075 0.35 0  0.1 0.35 0  0.125 0.35 0  0.15 0.35 0  0.175 0.35 0  0.2 0.35 0  0.225 0.35 0  0.25 0.35 0  0.275 0.35 0  0.3 0.35 0  0.325 0.35 0  0.35 0.35 0  0.375 0.35 0  0.4 0.35 0  0.425 0.35 0  0.45 0.35 0  0.475 0.35 0  0.5 0.35 0  0.525 0.35 0  0.55 0.35 0  0.575 0.35 0  0.6 0.35 0  0.625 0.35 0  0.65 0.35 0  0.675 0.35 0  0.7 0.35 0  0.725 0.35 0  0.75 0.35 0  0.775 0.35 0  0.8 0.35 0  0.825 0.35 0  0.85 0.35 0  0.875 0.35 0  0.9 0.35 0  0.925 0.35 0  0.95 0.35 0  0.975 0.35 0  1 0.35 0  0 0.375 0  0.025 0.375 0  0.05 0.375 0  0.075 0.375 0  0.1 0.375 0  0.125 0.375 0  0.15 0.375 0  0.175 0.375 0  0.2 0.375 0  0.225 0.375 0  0.25 0.375 0  0.275 0.375 0  0.3 0.375 0  0.325 0.375 0  0.35 0.375 0  0.375 0.375 0  0.4 0.375 0  0.425 0.375 0  0.45 0.375 0  0.475 0.375 0  0.5 0.375 0  0.525 0.375 0  0.55 0.375 0  0.575 0.375 0  0.6 0.375 0  0.625 0.375 0  0.65 0.375 0  0.675 0.375 0  0.7 0.375 0  0.725 0.375 0  0.75 0.375 0  0.775 0.375 0  0.8 0.375 0  0.825 0.375 0  0.85 0.375 0  0.875 0.375 0  0.9 0.375 0  0.925 0.375 0  0.95 0.375 0  0.975 0.375 0  1 0.375 0  0 0.4 0  0.025 0.4 0  0.05 0.4 0  0.075 0.4 0  0.1 0.4 0  0.125 0.4 0  0.15 0.4 0  0.175 0.4 0  0.2 0.4 0  0.225 0.4 0  0.25 0.4 0  0.275 0.4 0  0.3 0.4 0  0.325 0.4 0  0.35 0.4 0  0.375 0.4 0  0.4 0.4 0  0.425 0.4 0  0.45 0.4 0  0.475 0.4 0  0.5 0.4 0  0.525 0.4 0  0.55 0.4 0  0.575 0.4 0  0.6 0.4 0  0.625 0.4 0  0.65 0.4 0  0.675 0.4 0  0.7 0.4 0  0.725 0.4 0  0.75 0.4 0  0.775 0.4 0  0.8 0.4 0  0.825 0.4 0  0.85 0.4 0  0.875 0.4 0  0.9 0.4 0  0.925 0.4 0  0.95 0.4 0  0.975 0.4 0  1 0.4 0  0 0.425 0  0.025 0.425 0  0.05 0.425 0  0.075 0.425 0  0.1 0.425 0  0.125 0.425 0  0.15 0.425 0  0.175 0.425 0  0.2 0.425 0  0.225 0.425 0  0.25 0.425 0  0.275 0.425 0  0.3 0.425 0  0.325 0.425 0  0.35 0.425 0  0.375 0.425 0  0.4 0.425 0  0.425 0.425 0  0.45 0.425 0  0.475 0.425 0  0.5 0.425 0  0.525 0.425 0  0.55 0.425 0  0.575 0.425 0  0.6 0.425 0  0.625 0.425 0  0.65 0.425 0  0.675 0.425 0  0.7 0.425 0  0.725 0.425 0  0.75 0.425 0  0.775 0.425 0  0.8 0.425 0  0.825 0.425 0  0.85 0.425 0  0.875 0.425 0  0.9 0.425 0  0.925 0.425 0  0.95 0.425 0  0.975 0.425 0  1 0.425 0  0 0.45 0  0.02
[...]
<PointData  Scalars="ControlVisualisation"> 
<DataArray  type="Float64"  Name="ControlVisualisation"  format="ascii">9.0044874259096526e-04  6.0062400796998580e-04  6.0105549616648851e-04  6.0184741723393975e-04  6.0299183172334210e-04  6.0439662073606356e-04  6.0591053013414511e-04  6.0738268454948357e-04  6.0870577836469948e-04  6.0982708975576376e-04  6.1073747841312517e-04  6.1145389195537683e-04  6.1200472729529883e-04  6.1242061336891991e-04  6.1272969112388177e-04  6.1295566857689284e-04  6.1311733001834885e-04  6.1322875188847114e-04  6.1329983252736474e-04  6.1333689384404362e-04  6.1334318653434887e-04  6.1331919613974461e-04  6.1326270496245533e-04  6.1316860309566714e-04  6.1302847067885478e-04  6.1282999585905652e-04  6.1255636256585353e-04  6.1218583907495709e-04  6.1169193841879095e-04  6.1104478840135542e-04  6.1021474206126669e-04  6.0917982788562394e-04  6.0793806443016794e-04  6.0652314229432626e-04  6.0502064787249139e-04  6.0356333724289929e-04  6.0230450357057338e-04  6.0136215250616593e-04  6.0078086856309729e-04  6.0051873009910907e-04  1.8046292994469641e-03  6.0061503092522905e-04  3.0054193692871065e-04  3.0097671191797807e-04  3.0181417595607585e-04  3.0306897558763474e-04  3.0464871725443215e-04  3.0638626549353597e-04  3.0810556212977679e-04  3.0967379787724908e-04  3.1101939533957742e-04  3.1212307239381998e-04  3.1299886304134768e-04  3.1367683225413012e-04  3.1419157248979609e-04  3.1457598328572659e-04  3.1485845801534039e-04  3.1506191930321043e-04  3.1520381598165633e-04  3.1529661779644292e-04  3.1534849874831095e-04  3.1536396897219679e-04  3.1534429848588776e-04  3.1528766047938443e-04  3.1518897715737053e-04  3.1503948568617441e-04  3.1482608929268505e-04  3.1453064219088531e-04  3.1412942748748764e-04  3.1359320892710601e-04  3.1288844231259355e-04  3.1198062723856811e-04  3.1084154274606723e-04  3.0946145354144070e-04  3.0786745405903714e-04  3.0614123897596956e-04  3.0442027200502974e-04  3.0288403068461892e-04  3.0168989105920641e-04  3.0091035018819869e-04  3.0050546298587366e-04  6.0051753603374979e-04  6.0093313191693213e-04  3.0090552582875892e-04  3.0150615924643402e-04  3.0257033878610675e-04  3.0413658155610703e-04  3.0604707340329293e-04  3.0807813152487740e-04  3.1002749208328936e-04  3.1176259822735994e-04  3.1322490560492636e-04  3.1440983531813815e-04  3.1534287417482240e-04  3.1606160319268316e-04  3.1660537993993815e-04  3.1701041438283035e-04  3.1730763192092175e-04  3.1752183215466345e-04  3.1767167051797551e-04  3.1777026471443027e-04  3.1782609349182540e-04  3.1784382005789621e-04  3.1782482058941464e-04  3.1776735951541125e-04  3.1766641847817890e-04  3.1751318716277449e-04  3.1729425670292728e-04  3.1699067968647552e-04  3.1657722956585928e-04  3.1602224999433725e-04  3.1528844848802070e-04  3.1433524642308588e-04  3.1312454987319024e-04  3.1163139585741497e-04  3.0986670403907027e-04  3.0789041632086456e-04  3.0585162548817612e-04  3.0396739759419730e-04  3.0246447177131885e-04  3.0143525591417718e-04  3.0084330461950965e-04  6.0074164928451191e-04  6.0135139020878474e-04  3.0147423783597279e-04  3.0238559514539218e-04  3.0387406637369331e-04  3.0583246599539323e-04  3.0798122196884254e-04  3.1006821756906019e-04  3.1192612835486349e-04  3.1348694342427102e-04  3.1474866309837314e-04  3.1574332399809610e-04  3.1651320844972713e-04  3.1709949461848120e-04  3.1753894275104321e-04  3.1786367688655667e-04  3.1810088168059949e-04  3.1827200818951447e-04  3.1839252802814987e-04  3.1847270530206906e-04  3.1851884311012913e-04  3.1853430550310771e-04  3.1852005958123321e-04  3.1847482463280536e-04  3.1839491871354242e-04  3.1827375656883920e-04  3.1810092315871520e-04  3.1786094673301750e-04  3.1753226234103256e-04  3.1708690175214784e-04  3.1649076405877919e-04  3.1570368173046827e-04  3.1468028010185828e-04  3.1337393951800922e-04  3.1175807917554826e-04  3.0982386747150850e-04  3.0773539271951252e-04  3.0552805049589165e-04  3.0362567123207835e-04  3.0217455736965943e-04  3.0127385298536866e-04  6.0111796121794939e-04  6.0120851862181389e-04  3.0176400776834103e-04  3.0459245133493287e-04  3.0900747601800120e-04  3.1409986929872109e-04  3.1910284584174450e-04  3.2328357626808349e-04  3.2649395413766657e-04  3.2883735503345496e-04  3.3051799280162857e-04  3.3172312328441888e-04  3.3259161607800711e-04  3.3321789535792562e-04  3.3366725046970422e-04  3.3398854030307389e-04  3.3421986873796022e-04  3.3438882973163856e-04  3.3451288955249912e-04  3.3460214192260592e-04  3.3466229935433088e-04  3.3469629855031722e-04  3.3470478930835350e-04  3.3468625051493421e-04  3.3463692635238296e-04  3.3455015918501703e-04  3.3441449199286507e-04  3.3421028675734279e-04  3.3390592024504326e-04  3.3345533075318165e-04  3.3279529774084699e-04  3.3183635375361756e-04  3.3044666916761615e-04  3.2843685415428543e-04  3.2558175546698495e-04  3.2165092186216211e-04  3.1683929048125848e-04  3.1099151444137637e-04  3.0687140271058527e-04  3.0437896123500680e-04  3.0209877470490845e-04  6.0143066981551449e-04  6.2520227338276927e-04  3.1869708756187632e-04  3.4902678673090666e-04  3.8177421859709744e-04  4.4095055599294744e-04  5.1118318484471409e-04  5.8391780847609151e-04  6.4723336582788501e-04  6.9640619865491522e-04  7.3171243561405202e-04  7.5608140787383575e-04  7.7251222544894407e-04  7.8334897286986747e-04  7.9036623093072195e-04  7.9493032764721416e-04  7.9804010363662833e-04  8.0033175326242015e-04  8.0213633231554244e-04  8.0360247705086967e-04  8.0481060881269415e-04  8.0581980402964033e-04  8.0666547805330921e-04  8.0734891038004289e-04  8.0783294691823650e-04  8.0803371242685622e-04  8.0778162361529204e-04  8.0672466821616728e-04  8.0419723806244626e-04  7.9914506937246439e-04  7.9011011080544187e-04  7.7506058766163132e-04  7.5104278929511012e-04  7.1423198857839814e-04  6.6161370242479088e-04  5.9352519605102602e-04  5.1810969523617353e-04  4.4045612714796245e-04  3.9499488069212320e-04  3.3575628053507275e-04  3.0659654818874463e-04  6.0384222770990643e-04  6.6927047258000878e-04  4.8158047930624531e-04  2.3311999984955888e-02  1.9682310344198062e-01  2.9782430837077145e-01  3.7958583594179640e-01  4.3289009307056547e-01  4.6770279747857002e-01  4.8955389275247846e-01  5.0301031479774938e-01  5.1070299393581986e-01  5.1465319186878988e-01  5.1664340142773857e-01  5.1782909467385907e-01  5.1872338837573717e-01  5.1946681836439212e-01  5.2004059995995111e-01  5.2042766764950932e-01  5.2066837420042322e-01  5.2083582626848290e-01  5.2101766762163115e-01  5.2129348179388457e-01  5.2169537990564419e-01  5.2218961872917913e-01  5.2269497546047294e-01  5.2311261997077307e-01  5.2333952285120577e-01  5.2325829575315264e-01  5.2268250984408948e-01  5.2118687831926680e-01  5.1779486688649623e-01  5.1083555114840573e-01  4.9820036364503439e-01  4.7715826951485307e-01  4.4351910738249190e-01  3.9134381288174935e-01  3.0653112315982145e-01  1.9622199578419869e-01  2.5707703810368153e-02  4.5885636168095699e-04  6.3430962672576124e-04  8.7052453901313331e-01  7.6834591066153157e-01  9.9770317733204794e-01  9.9897308528258877e-01  9.9916617511976502e-01  9.9924489819145046e-01  9.9927576328433665e-01  9.9929262442438205e-01  9.9930133609161187e-01  9.9930602160853621e-01  9.9930872975770324e-01  9.9931054926441465e-01  9.9931188818374872e-01  9.9931287245366762e-01  9.9931359004111875e-01  9.9931416140525109e-01  9.9931469342617074e-01  9.9931524010154582e-01  9.9931581044713680e-01  9.9931639489606949e-01  9.9931698338430519e-01  9.9931756998456511e-01  9.9931815262225099e-01  9.9931873372410995e-01  9.9931931771478621e-01  9.9931990002150095e-01  9.9932044554976807e-01  9.9932085811252602e-01  9.9932095152217515e-01  9.9932043508770185e-01  9.9931888325073759e-01  9.9931559137843307e-01  9.9930926197193504e-01  9.9929750937658224e-01  9.9927606739487929e-01  9.9923593026779589e-01  9.9915415155223819e-01  9.9892472820162614e-01  9.9791924293166012e-01  9.4525110431174031e-01  3.0122486049726277e-01  9.9977788682364299e-01  9.9985376447722552e-01  9.9983561119733000e-01  9.9981361483546505e-01  9.9980041278445331e-01  9.9979034001824596e-01  9.9978313358580595e-01  9.9977838472082958e-01  9.9977535477891133e-01  9.9977348106834396e-01  9.9977234587526509e-01  9.9977167557751512e-01  9.9977129117174512e-01  9.9977107887518746e-01  9.9977096916592123e-01  9.9977092175206350e-01  9.9977091408214391e-01  9.9977093340249512e-01  9.9977097219602762e-01  9.9977102605608126e-01  9.9977109284111898e-01  9.9977117235934920e-01  9.9977126630174407e-01  9.9977137836481600e-01  9.9977151461320235e-01  9.9977168435811536e-01  9.9977190221960444e-01  9.9977219249559668e-01  9.9977259716721867e-01  9.9977318878973109e-01  9.9977408959731418e-01  9.9977550003127080e-01  9.9977774115737361e-01  9.9978130514100838e-01  9.9978688181179010e-01  9.9979527130579215e-01  9.9980704212687876e-01  9.9982203898709099e-01  9.9983921812781462e-01  9.9985724259866005e-01  9.9967048594269792e-01  9.9989060190474965e-01  9.9993501566632470e-01  9.9992106884693621e-01  9.9990484907964661e-01  9.9988998492616787e-01  9.9987808824999225e-01  9.9986946186938974e-01  9.9986364059744992e-01  9.9985989622641991e-01  9.9985756766532141e-01  9.9985614850746274e-01  9.9985529528922945e-01  9.9985478621597013e-01  9.9985448342220240e-01  9.9985430338932546e-01  9.9985419686567711e-01  9.9985413544203294e-01  9.9985410285526310e-01  9.9985408970163114e-01  9.9985409053721153e-01  9.9985410247516093e-01  9.9985412462893575e-01  9.9985415804013211e-01  9.9985420593154628e-01  9.9985427432946883e-01  9.9985437340112904e-01  9.9985452017573240e-01  9.9985474361785676e-01  9.9985509332997491e-01  9.9985565364721507e-01  9.9985656536471834e-01  9.9985805782388759e-01  9.9986049020197609e-01  9.9986438996170701e-01  9.9987044917786727e-01  9.9987939131840864e-01  9.9989163202506581e-01  9.9990673395382379e-01  9.9992280995999916e-01  9.9993607879915858e-01  9.9987277172545808e-01  9.9990512950908272e-01  9.9994793619888556e-01  9.9993618035463561e-01  9.9992149371294714e-01  9.9990724181469814e-01  9.9989547184488681e-01  9.9988678461420000e-01  9.9988085431005114e-01  9.9987701814600571e-01  9.9987462087184364e-01  9.9987315211171290e-01  9.9987226099550053e-01  9.9987172101253219e-01  9.9987139172846684e-01  9.9987118814273424e-01  9.9987106000031478e-01  9.9987097821489890e-01  9.9987092613800899e-01  9.9987089416931896e-01  9.9987087672997377e-01  9.9987087078191295e-01  9.9987087523948914e-01  9.9987089090167547e-01  9.9987092076080197e-01  9.9987097070191233e-01  9.9987105090173045e-01  9.9987117859201358e-01  9.9987138311344403e-01  9.9987171444848499e-01  9.9987225692228388e-01  9.9987315029109747e-01  9.9987462074613953e-01  9.9987701923774208e-01  9.9988085625425682e-01  9.9988678688831722e-01  9.9989547356807440e-01  9.9990724231192996e-01  9.9992149358770765e-01  9.9993618069413093e-01  9.9994793700050044e-01  9.9990513032619799e-01  9.9987276550557869e-01  9.9993606495296816e-01  9.9992276670539171e-01  9.9990664503664040e-01  9.9989148245826509e-01  9.9987916985629832e-01  9.9987015172157989e-01  9.9986401799634184e-01  9.9986004784239690e-01  9.9985755102942031e-01  9.9985600227222637e-01  9.9985504402230363e-01  9.9985444696536996e-01  9.9985406867276205e-01  9.9985382246235677e-01  9.9985365687750727e-01  9.9985354216024636e-01  9.9985346128073738e-01  9.9985340423893709e-01  9.9985336490308485e-01  9.9985333962394274e-01  9.9985332686096340e-01  9.9985332726566056e-01  9.9985334399045656e-01  9.9985338329159135e-01  9.9985345582007346e-01  9.9985357932939034e-01  9.9985378371868772e-01  9.9985411943501779e-01  9.9985467062769706e-01  9.9985557512511447e-01  9.9985705407248959e-01  9.9985944972463192e-01  9.9986326676640014e-01  9.9986916412668136e-01  9.9987786593375261e-01  9.9988983189418701e-01  9.9990475541474599e-01  9.9992102379623882e-01  9.9993500308098304e-01  9.9989059874558106e-01  9.9967052529506262e-01  9.9985716591291163e-01  9.9983895649451227e-01  9.9982155574136156e-01  9.9980629255167164e-01  9.9979421644385735e-01  9.9978551152981254e-01  9.9977962788551777e-01  9.9977577310239329e-01  9.9977326530286093e-01  9.9977162185878821e-01  9.9977052842073577e-01  9.9976978489018165e-01  9.9976926322669424e-01  9.9976888262919317e-01  9.9976859432742771e-01  9.9976837014435727e-01  9.9976819353672863e-01  9.9976805360661225e-01  9.9976794223795440e-01  9.9976785351445863e-01  9.9976778422930079e-01  9.9976773455563206e-01  9.9976770840017926e-01  9.9976771345827109e-01  9.9976776156249203e-01  9.9976787041581705e-01  9.9976806789853057e-01  9.9976839968325593e-01  9.9976894018421159e-01  9.9976980654231584e-01  9.9977117773839363e-01  9.9977332257263885e-01  9.9977665025215545e-01  9.9978171394991244e-01  9.9978923930487940e-01  9.9979961339998791e-01  9.9981307668486574e-01  9.9983535868532425e-01  9.9985368005632391e-01  9.9977784737779485e-01  3.0272276569894913e-01  9.4474550632179732e-01  9.9788880608517128e-01  9.9891221981191358e-01  9.9914220460171843e-01  9.9922389619963592e-01  9.9926339996874902e-01  9.9928356953311670e-01  9.9929355603409087e-01  9.9929792713189569e-01  9.9929946057758767e-01  9.9929967835563971e-01  9.9929923721157754e-01  9.9929836647435033e-01  9.9929722695482037e-01  9.9929601594968109e-01  9.9929490052075853e-01  9.9929395900435636e-01  9.9929318580013371e-01  9.9929253051692390e-01  9.9929193823160145e-01  9.9929137638265497e-01  9.9929084683929914e-01  9.9929038047788732e-01  9.9929001027935693e-01  9.9928973506385188e-01  9.9928950512776205e-01  9.9928925177122119e-01  9.9928893840790478e-01  9.9928856407715771e-01  9.9928803851439052e-01  9.9928688417640366e-01  9.9928379280491098e-01  9.9927646449636720e-01  9.9926078596444057e-01  9.9923143112289081e-01  9.9915391111646334e-01  9.9895674582743310e-01  9.9765165621973395e-01  7.6783085507704307e-01  8.7074474983452343e-01  6.3444410712678353e-04  4.5914522024504724e-04  1.9704627266812057e-02  2.0133458943139657e-01  3.0884330840892782e-01  3.9242841401967693e-01  4.4591652685127658e-01  4.8021810213689509e-01  5.0168330249312831e-01  5.1538718947575690e-01  5.2403874952995111e-01  5.2873381308516809e-01  5.3067996879468748e-01  5.3124348632731522e-01  5.3124025158720189e-01  5.3100113433975205e-01  5.3063664570186353e-01  5.3017969274252696e-01  5.2967950926425245e-01  5.2922378519197877e-01  5.2890087267415586e-01  5.2875370993752435e-01  5.2875127821801338e-01  5.2878304989251346e-01  5.2868353852697081e-01  5.2829320732645801e-01  5.2750373145662177e-01  5.2620100566825445e-01  5.2412358807200010e-01  5.2074003642050748e-01  5.1521060028014132e-01  5.0636782800530311e-01  4.9241864176599170e-01  4.7030863359586361e-01  4.3518180748228918e-01  3.8208331387700845e-01  3.0206393042671664e-01  1.9982222196302812e-01  1.8126188224166333e-02  4.8111884314025591e-04  6.6951594234967700e-04  6.0380421826554626e-04  3.0681234001715398e-04  3.3624113588485619e-04  3.9505331627046021e-04  4.3933557557071680e-04  5.1331137090386634e-04  5.8454056935015148e-04  6.4731032329440948e-04  6.9397469838927456e-04  7.2502896134892924e-04  7.4407177773907584e-04  7.5530382106667930e-04  7.6176407979398246e-04  7.6522524991204962e-04  7.6672824378479015e-04  7.6704366245998847e-04  7.6676719670946134e-04  7.6625970427380901e-04  7.6566548189893580e-04  7.6500051540368691e-04  7.6423381203005497e-04  7.6333112646232131e-04  7.6226906229344069e-04  7.6103442717315455e-04  7.5960415330098257e-04  7.5788805759278587e-04  7.5563837344904186e-04  7.5236055535037559e-04  7.4725401741865607e-04  7.3916349599926860e-04  7.2646300201820093e-04  7.0681155506374107e-04  6.7699500354869672e-04  6.3356700684163254e-04  5.7549232631411498e-04  5.0693794588082403e-04  4.3967837746155945e-04  3.8216886841562083e-04  3.4962933890227371e-04  3.1899213381494609e-04  6.2510501545747432e-04  6.0162728790497924e-04  3.0235786661952539e-04  3.0480136844473002e-04  3.0731404596259651e-04  3.1137254067357750e-04  3.1704618501648062e-04  3.2167314608448633e-04  3.2539006380028813e-04  3.2803783280316426e-04  3.2986759365246233e-04  3.3111507950017049e-04  3.3197416504103793e-04  3.3257173631376125e-04  3.3298454902527184e-04  3.3326239557485555e-04  3.3344427305966387e-04  3.3356170775688545e-04  3.3363647420259494e-04  3.3368057159896325e-04  3.3369901041786705e-04  3.3369298936124833e-04  3.3366195849883468e-04  3.3360439328153048e-04  3.3351757375682517e-04  3.3339642570402251e-04  3.3323151592347091e-04  3.3300704778520599e-04  3.3269988234298795e-04  3.3227893417953368e-04  3.3170272819008865e-04  3.3091300687838275e-04  3.2982233734320531e-04  3.2829748427587593e-04  3.2615311741679886e-04  3.2318050110792578e-04  3.1926037256504026e-04  3.1450104947159004e-04  3.0955959345169994e-04  3.0511020979133050e-04  3.0206476941982294e-04  6.0140241786760164e-04  6.0129045159109187e-04  3.0148090888249332e-04  3.0244976517330535e-04  3.0392463633429039e-04  3.0580263113440395e-04  3.0794195074383869e-04  3.0994906135490310e-04  3.1180202549635917e-04  3.1334959913520834e-04  3.1460425323173377e-04  3.1559435726937417e-04  3.1636602886844480e-04  3.1696108051708913e-04  3.1741353047061622e-04  3.1775114806791574e-04  3.1799801230209559e-04  3.1817485692568049e-04  3.1829810102285572e-04  3.1837926861515972e-04  3.1842534574035291e-04  3.1843969041961591e-04  3.1842291641346753e-04  3.1837338951168489e-04  3.1828720176585988e-04  3.1815762609094987e-04  3.1797423661952329e-04  3.1772212820407501e-04  3.1738171486006723e-04  3.1692917286989237e-04  3.1633694389790202e-04  3.1557361307673313e-04  3.1460366416829859e-04  3.1339004941963335e-04  3.1190419602081563e-04  3.1014692884959844e-04  3.0817533885618633e-04  3.0613171595458442e-04  3.0423330181430944e-04  3.0273821730221104e-04  3.0175357005645363e-04  6.0159041569268594e-04  6.0085543602042633e-04  3.0099186591283662e-04  3.0162134816939465e-04  3.0265664703145104e-04  3.0413816075612203e-04  3.0597534384732989e-04  3.0795311146525280e-04  3.0987030885278391e-04  3.1158909426753982e-04  3.1305405380838700e-04  3.1425433033031408e-04  3.1521206573801946e-04  3.1596101804840567e-04  3.1653668644408432e-04  3.1697161153095238e-04  3.1729411979968133e-04  3.1752794711419725e-04  3.1769194321949133e-04  3.1779996858169988e-04  3.1786117658048896e-04  3.1788056887712942e-04  3.1785954379371278e-04  3.1779619980775239e-04  3.1768528288581965e-04  3.1751780042381877e-04  3.1728045014707518e-04  3.1695510195878013e-04  3.1651857219031011e-04  3.1594286274733147e-04  3.1519606404428811e-04  3.1424448310631194e-04  3.1305734261293460e-04  3.1161618032082448e-04  3.0993048737928605e-04  3.0805750016549836e-04  3.0611806520342439e-04  3.0429263652491796e-04  3.0278191411686555e-04  3.0173541328886621e-04  3.0110401761960506e-04  6.0111949906513373e-04  6.0056570123350232e-04  3.0059780183951682e-04  3.0109196621482594e-04  3.0200051429551895e-04  3.0336124596069998e-04  3.0508925500052718e-04  3.0701687389201633e-04  3.0895633432278591e-04  3.1076154022415973e-04  3.1234261917318474e-04  3.1366608277982362e-04  3.1473766908573435e-04  3.1558376009876093e-04  3.1623852302554425e-04  3.1673620298209475e-04  3.1710753549104296e-04  3.1737832685144467e-04  3.1756905784962886e-04  3.1769497257319514e-04  3.1776642541630378e-04  3.1778932474180470e-04  3.1776551356244020e-04  3.1769295352003377e-04  3.1756564696228584e-04  3.1737331906172845e-04  3.1710096045137946e-04  3.1672839375911327e-04  3.1623009389253434e-04  3.1557560947334816e-04  3.1473118041228809e-04  3.1366356840311537e-04  3.1234754847940142e-04  3.1077843242952404e-04  3.0898885256826799e-04  3.0706499784733364e-04  3.0515092913546303e-04  3.0342712406570584e-04  3.0205926011523293e-04  3.0114026723783080e-04  3.0064771731070348e-04  6.0072197857720844e-04  6.0051319838468943e-04  3.0047062046984727e-04  3.0092885505237607e-04  3.0181570136606986e-04  3.0314378465807335e-04  3.0483596098542426e-04  3.0674072346302501e-04  3.0868011903016998e-04  3.105038180