<?xml version="1.0"?>
<VTKFile type="UnstructuredGrid"  version="0.1"  >
<UnstructuredGrid>
<Piece  NumberOfPoints="1681" NumberOfCells="3200">
<Points>
<DataArray  type="Float64"  NumberOfComponents="3"  format="ascii">0 0 0  0.025 0 0  0.05 0 0  0.075 0 0  0.1 0 0  0.125 0 0  0.15 0 0  0.175 0 0  0.2 0 0  0.225 0 0  0.25 0 0  0.275 0 0  0.3 0 0  0.325 0 0  0.35 0 0  0.375 0 0  0.4 0 0  0.425 0 0  0.45 0 0  0.475 0 0  0.5 0 0  0.525 0 0  0.55 0 0  0.575 0 0  0.6 0 0  0.625 0 0  0.65 0 0  0.675 0 0  0.7 0 0  0.725 0 0  0.75 0 0  0.775 0 0  0.8 0 0  0.825 0 0  0.85 0 0  0.875 0 0  0.9 0 0  0.925 0 0  0.95 0 0  0.975 0 0  1 0 0  0 0.025 0  0.025 0.025 0  0.05 0.025 0  0.075 0.025 0  0.1 0.025 0  0.125 0.025 0  0.15 0.025 0  0.175 0.025 0  0.2 0.025 0  0.225 0.025 0  0.25 0.025 0  0.275 0.025 0  0.3 0.025 0  0.325 0.025 0  0.35 0.025 0  0.375 0.025 0  0.4 0.025 0  0.425 0.025 0  0.45 0.025 0  0.475 0.025 0  0.5 0.025 0  0.525 0.025 0  0.55 0.025 0  0.575 0.025 0  0.6 0.025 0  0.625 0.025 0  0.65 0.025 0  0.675 0.025 0  0.7 0.025 0  0.725 0.025 0  0.75 0.025 0  0.775 0.025 0  0.8 0.025 0  0.825 0.025 0  0.85 0.025 0  0.875 0.025 0  0.9 0.025 0  0.925 0.025 0  0.95 0.025 0  0.975 0.025 0  1 0.025 0  0 0.05 0  0.025 0.05 0  0.05 0.05 0  0.075 0.05 0  0.1 0.05 0  0.125 0.05 0  0.15 0.05 0  0.175 0.05 0  0.2 0.05 0  0.225 0.05 0  0.25 0.05 0  0.275 0.05 0  0.3 0.05 0  0.325 0.05 0  0.35 0.05 0  0.375 0.05 0  0.4 0.05 0  0.425 0.05 0  0.45 0.05 0  0.475 0.05 0  0.5 0.05 0  0.525 0.05 0  0.55 0.05 0  0.575 0.05 0  0.6 0.05 0  0.625 0.05 0  0.65 0.05 0  0.675 0.05 0  0.7 0.05 0  0.725 0.05 0  0.75 0.05 0  0.775 0.05 0  0.8 0.05 0  0.825 0.05 0  0.85 0.05 0  0.875 0.05 0  0.9 0.05 0  0.925 0.05 0  0.95 0.05 0  0.975 0.05 0  1 0.05 0  0 0.075 0  0.025 0.075 0  0.05 0.075 0  0.075 0.075 0  0.1 0.075 0  0.125 0.075 0  0.15 0.075 0  0.175 0.075 0  0.2 0.075 0  0.225 0.075 0  0.25 0.075 0  0.275 0.075 0  0.3 0.075 0  0.325 0.075 0  0.35 0.075 0  0.375 0.075 0  0.4 0.075 0  0.425 0.075 0  0.45 0.075 0  0.475 0.075 0  0.5 0.075 0  0.525 0.075 0  0.55 0.075 0  0.575 0.075 0  0.6 0.075 0  0.625 0.075 0  0.65 0.075 0  0.675 0.075 0  0.7 0.075 0  0.725 0.075 0  0.75 0.075 0  0.775 0.075 0  0.8 0.075 0  0.825 0.075 0  0.85 0.075 0  0.875 0.075 0  0.9 0.075 0  0.925 0.075 0  0.95 0.075 0  0.975 0.075 0  1 0.075 0  0 0.1 0  0.025 0.1 0  0.05 0.1 0  0.075 0.1 0  0.1 0.1 0  0.125 0.1 0  0.15 0.1 0  0.175 0.1 0  0.2 0.1 0  0.225 0.1 0  0.25 0.1 0  0.275 0.1 0  0.3 0.1 0  0.325 0.1 0  0.35 0.1 0  0.375 0.1 0  0.4 0.1 0  0.425 0.1 0  0.45 0.1 0  0.475 0.1 0  0.5 0.1 0  0.525 0.1 0  0.55 0.1 0  0.575 0.1 0  0.6 0.1 0  0.625 0.1 0  0.65 0.1 0  0.675 0.1 0  0.7 0.1 0  0.725 0.1 0  0.75 0.1 0  0.775 0.1 0  0.8 0.1 0  0.825 0.1 0  0.85 0.1 0  0.875 0.1 0  0.9 0.1 0  0.925 0.1 0  0.95 0.1 0  0.975 0.1 0  1 0.1 0  0 0.125 0  0.025 0.125 0  0.05 0.125 0  0.075 0.125 0  0.1 0.125 0  0.125 0.125 0  0.15 0.125 0  0.175 0.125 0  0.2 0.125 0  0.225 0.125 0  0.25 0.125 0  0.275 0.125 0  0.3 0.125 0  0.325 0.125 0  0.35 0.125 0  0.375 0.125 0  0.4 0.125 0  0.425 0.125 0  0.45 0.125 0  0.475 0.125 0  0.5 0.125 0  0.525 0.125 0  0.55 0.125 0  0.575 0.125 0  0.6 0.125 0  0.625 0.125 0  0.65 0.125 0  0.675 0.125 0  0.7 0.125 0  0.725 0.125 0  0.75 0.125 0  0.775 0.125 0  0.8 0.125 0  0.825 0.125 0  0.85 0.125 0  0.875 0.125 0  0.9 0.125 0  0.925 0.125 0  0.95 0.125 0  0.975 0.125 0  1 0.125 0  0 0.15 0  0.025 0.15 0  0.05 0.15 0  0.075 0.15 0  0.1 0.15 0  0.125 0.15 0  0.15 0.15 0  0.175 0.15 0  0.2 0.15 0  0.225 0.15 0  0.25 0.15 0  0.275 0.15 0  0.3 0.15 0  0.325 0.15 0  0.35 0.15 0  0.375 0.15 0  0.4 0.15 0  0.425 0.15 0  0.45 0.15 0  0.475 0.15 0  0.5 0.15 0  0.525 0.15 0  0.55 0.15 0  0.575 0.15 0  0.6 0.15 0  0.625 0.15 0  0.65 0.15 0  0.675 0.15 0  0.7 0.15 0  0.725 0.15 0  0.75 0.15 0  0.775 0.15 0  0.8 0.15 0  0.825 0.15 0  0.85 0.15 0  0.875 0.15 0  0.9 0.15 0  0.925 0.15 0  0.95 0.15 0  0.975 0.15 0  1 0.15 0  0 0.175 0  0.025 0.175 0  0.05 0.175 0  0.075 0.175 0  0.1 0.175 0  0.125 0.175 0  0.15 0.175 0  0.175 0.175 0  0.2 0.175 0  0.225 0.175 0  0.25 0.175 0  0.275 0.175 0  0.3 0.175 0  0.325 0.175 0  0.35 0.175 0  0.375 0.175 0  0.4 0.175 0  0.425 0.175 0  0.45 0.175 0  0.475 0.175 0  0.5 0.175 0  0.525 0.175 0  0.55 0.175 0  0.575 0.175 0  0.6 0.175 0  0.625 0.175 0  0.65 0.175 0  0.675 0.175 0  0.7 0.175 0  0.725 0.175 0  0.75 0.175 0  0.775 0.175 0  0.8 0.175 0  0.825 0.175 0  0.85 0.175 0  0.875 0.175 0  0.9 0.175 0  0.925 0.175 0  0.95 0.175 0  0.975 0.175 0  1 0.175 0  0 0.2 0  0.025 0.2 0  0.05 0.2 0  0.075 0.2 0  0.1 0.2 0  0.125 0.2 0  0.15 0.2 0  0.175 0.2 0  0.2 0.2 0  0.225 0.2 0  0.25 0.2 0  0.275 0.2 0  0.3 0.2 0  0.325 0.2 0  0.35 0.2 0  0.375 0.2 0  0.4 0.2 0  0.425 0.2 0  0.45 0.2 0  0.475 0.2 0  0.5 0.2 0  0.525 0.2 0  0.55 0.2 0  0.575 0.2 0  0.6 0.2 0  0.625 0.2 0  0.65 0.2 0  0.675 0.2 0  0.7 0.2 0  0.725 0.2 0  0.75 0.2 0  0.775 0.2 0  0.8 0.2 0  0.825 0.2 0  0.85 0.2 0  0.875 0.2 0  0.9 0.2 0  0.925 0.2 0  0.95 0.2 0  0.975 0.2 0  1 0.2 0  0 0.225 0  0.025 0.225 0  0.05 0.225 0  0.075 0.225 0  0.1 0.225 0  0.125 0.225 0  0.15 0.225 0  0.175 0.225 0  0.2 0.225 0  0.225 0.225 0  0.25 0.225 0  0.275 0.225 0  0.3 0.225 0  0.325 0.225 0  0.35 0.225 0  0.375 0.225 0  0.4 0.225 0  0.425 0.225 0  0.45 0.225 0  0.475 0.225 0  0.5 0.225 0  0.525 0.225 0  0.55 0.225 0  0.575 0.225 0  0.6 0.225 0  0.625 0.225 0  0.65 0.225 0  0.675 0.225 0  0.7 0.225 0  0.725 0.225 0  0.75 0.225 0  0.775 0.225 0  0.8 0.225 0  0.825 0.225 0  0.85 0.225 0  0.875 0.225 0  0.9 0.225 0  0.925 0.225 0  0.95 0.225 0  0.975 0.225 0  1 0.225 0  0 0.25 0  0.025 0.25 0  0.05 0.25 0  0.075 0.25 0  0.1 0.25 0  0.125 0.25 0  0.15 0.25 0  0.175 0.25 0  0.2 0.25 0  0.225 0.25 0  0.25 0.25 0  0.275 0.25 0  0.3 0.25 0  0.325 0.25 0  0.35 0.25 0  0.375 0.25 0  0.4 0.25 0  0.425 0.25 0  0.45 0.25 0  0.475 0.25 0  0.5 0.25 0  0.525 0.25 0  0.55 0.25 0  0.575 0.25 0  0.6 0.25 0  0.625 0.25 0  0.65 0.25 0  0.675 0.25 0  0.7 0.25 0  0.725 0.25 0  0.75 0.25 0  0.775 0.25 0  0.8 0.25 0  0.825 0.25 0  0.85 0.25 0  0.875 0.25 0  0.9 0.25 0  0.925 0.25 0  0.95 0.25 0  0.975 0.25 0  1 0.25 0  0 0.275 0  0.025 0.275 0  0.05 0.275 0  0.075 0.275 0  0.1 0.275 0  0.125 0.275 0  0.15 0.275 0  0.175 0.275 0  0.2 0.275 0  0.225 0.275 0  0.25 0.275 0  0.275 0.275 0  0.3 0.275 0  0.325 0.275 0  0.35 0.275 0  0.375 0.275 0  0.4 0.275 0  0.425 0.275 0  0.45 0.275 0  0.475 0.275 0  0.5 0.275 0  0.525 0.275 0  0.55 0.275 0  0.575 0.275 0  0.6 0.275 0  0.625 0.275 0  0.65 0.275 0  0.675 0.275 0  0.7 0.275 0  0.725 0.275 0  0.75 0.275 0  0.775 0.275 0  0.8 0.275 0  0.825 0.275 0  0.85 0.275 0  0.875 0.275 0  0.9 0.275 0  0.925 0.275 0  0.95 0.275 0  0.975 0.275 0  1 0.275 0  0 0.3 0  0.025 0.3 0  0.05 0.3 0  0.075 0.3 0  0.1 0.3 0  0.125 0.3 0  0.15 0.3 0  0.175 0.3 0  0.2 0.3 0  0.225 0.3 0  0.25 0.3 0  0.275 0.3 0  0.3 0.3 0  0.325 0.3 0  0.35 0.3 0  0.375 0.3 0  0.4 0.3 0  0.425 0.3 0  0.45 0.3 0  0.475 0.3 0  0.5 0.3 0  0.525 0.3 0  0.55 0.3 0  0.575 0.3 0  0.6 0.3 0  0.625 0.3 0  0.65 0.3 0  0.675 0.3 0  0.7 0.3 0  0.725 0.3 0  0.75 0.3 0  0.775 0.3 0  0.8 0.3 0  0.825 0.3 0  0.85 0.3 0  0.875 0.3 0  0.9 0.3 0  0.925 0.3 0  0.95 0.3 0  0.975 0.3 0  1 0.3 0  0 0.325 0  0.025 0.325 0  0.05 0.325 0  0.075 0.325 0  0.1 0.325 0  0.125 0.325 0  0.15 0.325 0  0.175 0.325 0  0.2 0.325 0  0.225 0.325 0  0.25 0.325 0  0.275 0.325 0  0.3 0.325 0  0.325 0.325 0  0.35 0.325 0  0.375 0.325 0  0.4 0.325 0  0.425 0.325 0  0.45 0.325 0  0.475 0.325 0  0.5 0.325 0  0.525 0.325 0  0.55 0.325 0  0.575 0.325 0  0.6 0.325 0  0.625 0.325 0  0.65 0.325 0  0.675 0.325 0  0.7 0.325 0  0.725 0.325 0  0.75 0.325 0  0.775 0.325 0  0.8 0.325 0  0.825 0.325 0  0.85 0.325 0  0.875 0.325 0  0.9 0.325 0  0.925 0.325 0  0.95 0.325 0  0.975 0.325 0  1 0.325 0  0 0.35 0  0.025 0.35 0  0.05 0.35 0  0.075 0.35 0  0.1 0.35 0  0.125 0.35 0  0.15 0.35 0  0.175 0.35 0  0.2 0.35 0  0.225 0.35 0  0.25 0.35 0  0.275 0.35 0  0.3 0.35 0  0.325 0.35 0  0.35 0.35 0  0.375 0.35 0  0.4 0.35 0  0.425 0.35 0  0.45 0.35 0  0.475 0.35 0  0.5 0.35 0  0.525 0.35 0  0.55 0.35 0  0.575 0.35 0  0.6 0.35 0  0.625 0.35 0  0.65 0.35 0  0.675 0.35 0  0.7 0.35 0  0.725 0.35 0  0.75 0.35 0  0.775 0.35 0  0.8 0.35 0  0.825 0.35 0  0.85 0.35 0  0.875 0.35 0  0.9 0.35 0  0.925 0.35 0  0.95 0.35 0  0.975 0.35 0  1 0.35 0  0 0.375 0  0.025 0.375 0  0.05 0.375 0  0.075 0.375 0  0.1 0.375 0  0.125 0.375 0  0.15 0.375 0  0.175 0.375 0  0.2 0.375 0  0.225 0.375 0  0.25 0.375 0  0.275 0.375 0  0.3 0.375 0  0.325 0.375 0  0.35 0.375 0  0.375 0.375 0  0.4 0.375 0  0.425 0.375 0  0.45 0.375 0  0.475 0.375 0  0.5 0.375 0  0.525 0.375 0  0.55 0.375 0  0.575 0.375 0  0.6 0.375 0  0.625 0.375 0  0.65 0.375 0  0.675 0.375 0  0.7 0.375 0  0.725 0.375 0  0.75 0.375 0  0.775 0.375 0  0.8 0.375 0  0.825 0.375 0  0.85 0.375 0  0.875 0.375 0  0.9 0.375 0  0.925 0.375 0  0.95 0.375 0  0.975 0.375 0  1 0.375 0  0 0.4 0  0.025 0.4 0  0.05 0.4 0  0.075 0.4 0  0.1 0.4 0  0.125 0.4 0  0.15 0.4 0  0.175 0.4 0  0.2 0.4 0  0.225 0.4 0  0.25 0.4 0  0.275 0.4 0  0.3 0.4 0  0.325 0.4 0  0.35 0.4 0  0.375 0.4 0  0.4 0.4 0  0.425 0.4 0  0.45 0.4 0  0.475 0.4 0  0.5 0.4 0  0.525 0.4 0  0.55 0.4 0  0.575 0.4 0  0.6 0.4 0  0.625 0.4 0  0.65 0.4 0  0.675 0.4 0  0.7 0.4 0  0.725 0.4 0  0.75 0.4 0  0.775 0.4 0  0.8 0.4 0  0.825 0.4 0  0.85 0.4 0  0.875 0.4 0  0.9 0.4 0  0.925 0.4 0  0.95 0.4 0  0.975 0.4 0  1 0.4 0  0 0.425 0  0.025 0.425 0  0.05 0.425 0  0.075 0.425 0  0.1 0.425 0  0.125 0.425 0  0.15 0.425 0  0.175 0.425 0  0.2 0.425 0  0.225 0.425 0  0.25 0.425 0  0.275 0.425 0  0.3 0.425 0  0.325 0.425 0  0.35 0.425 0  0.375 0.425 0  0.4 0.425 0  0.425 0.425 0  0.45 0.425 0  0.475 0.425 0  0.5 0.425 0  0.525 0.425 0  0.55 0.425 0  0.575 0.425 0  0.6 0.425 0  0.625 0.425 0  0.65 0.425 0  0.675 0.425 0  0.7 0.425 0  0.725 0.425 0  0.75 0.425 0  0.775 0.425 0  0.8 0.425 0  0.825 0.425 0  0.85 0.425 0  0.875 0.425 0  0.9 0.425 0  0.925 0.425 0  0.95 0.425 0  0.975 0.425 0  1 0.425 0  0 0.45 0  0.02
[...]
<PointData  Scalars="ControlVisualisation"> 
<DataArray  type="Float64"  Name="ControlVisualisation"  format="ascii">9.0019737709138648e-04  6.0046778233979888e-04  6.0089904654212173e-04  6.0168997222114526e-04  6.0283257715229143e-04  6.0423522635766867e-04  6.0574707454337507e-04  6.0721727913391028e-04  6.0853857104318642e-04  6.0965862901709580e-04  6.1056884235355358e-04  6.1128631943600505e-04  6.1183909677662370e-04  6.1225721949565630e-04  6.1256841057605858e-04  6.1279627794855879e-04  6.1295970716929767e-04  6.1307286458576592e-04  6.1314558915629000e-04  6.1318399312715105e-04  6.1319106808416105e-04  6.1316711691110435e-04  6.1310989488455158e-04  6.1301441604218892e-04  6.1287246008280972e-04  6.1267190377965340e-04  6.1239608444338487e-04  6.1202345556056882e-04  6.1152784159917853e-04  6.1087979815491146e-04  6.1005003282108775e-04  6.0901662332358121e-04  6.0777724880819268e-04  6.0636487322512586e-04  6.0486435927746400e-04  6.0340788892262673e-04  6.0214893739685658e-04  6.0120620783707184e-04  6.0062469046367963e-04  6.0036247275534649e-04  1.7993988608787511e-03  6.0045889900622645e-04  3.0046384147597467e-04  3.0089837709585358e-04  3.0173478547957256e-04  3.0298764337027937e-04  3.0456511168479154e-04  3.0630049008616183e-04  3.0801759649114093e-04  3.0958350468411844e-04  3.1092715127927373e-04  3.1203011876141214e-04  3.1290685879820405e-04  3.1358706351744482e-04  3.1410454168790563e-04  3.1449158809273415e-04  3.1477643478430655e-04  3.1498214517540273e-04  3.1512631157905042e-04  3.1522134454847479e-04  3.1527513941760464e-04  3.1529183767562227e-04  3.1527242668640969e-04  3.1521500768898295e-04  3.1511465530280775e-04  3.1496288835412606e-04  3.1474688537162375e-04  3.1444869741257110e-04  3.1404478994747270e-04  3.1350625213208384e-04  3.1280007171566212e-04  3.1189227571405085e-04  3.1075480664368484e-04  3.0937750689419432e-04  3.0778667833161538e-04  3.0606322513500843e-04  3.0434354643564087e-04  3.0280713645443129e-04  3.0161232688712076e-04  3.0083234223438635e-04  3.0042729626759534e-04  6.0036127483826379e-04  6.0077762276473858e-04  3.0082783867111756e-04  3.0142762861849005e-04  3.0248952753869407e-04  3.0405263054948515e-04  3.0596056293882352e-04  3.0798984689851290e-04  3.0993689510335810e-04  3.1166844830445419e-04  3.1312729350558411e-04  3.1431098322289426e-04  3.1524579827171465e-04  3.1596823779794059e-04  3.1651593900472593e-04  3.1692412589826534e-04  3.1722380812332493e-04  3.1744039771683299e-04  3.1759299632593295e-04  3.1769464732815531e-04  3.1775329260390816e-04  3.1777289744985929e-04  3.1775432346011666e-04  3.1769573436310765e-04  3.1759244002140723e-04  3.1743617654759500e-04  3.1721397793038733e-04  3.1690702700875976e-04  3.1649004688760280e-04  3.1593161507166144e-04  3.1519529836829263e-04  3.1424163177575301e-04  3.1303295869486360e-04  3.1154360029524782e-04  3.0978379904825616e-04  3.0781225641413523e-04  3.0577635630202966e-04  3.0389189673117638e-04  3.0238747274257928e-04  3.0135732106894604e-04  3.0076508483906143e-04  6.0058536634600296e-04  6.0119881805863445e-04  3.0139862911407911e-04  3.0230656862792498e-04  3.0378785051946825e-04  3.0574021018011733e-04  3.0788820163359706e-04  3.0997703306401059e-04  3.1183315228217170e-04  3.1338656184914633e-04  3.1464010275737329e-04  3.1563194935740462e-04  3.1640567158786336e-04  3.1699875207513814e-04  3.1744366353468053e-04  3.1777097541083862e-04  3.1800901624568531e-04  3.1818121681463136e-04  3.1830422681369927e-04  3.1838816721790615e-04  3.1843825320370539e-04  3.1845650344889846e-04  3.1844292888222239e-04  3.1839610952035365e-04  3.1831307001011958e-04  3.1818834166368607e-04  3.1801231794228139e-04  3.1776944897219739e-04  3.1743731544977313e-04  3.1698742116411310e-04  3.1638687208832250e-04  3.1559823881527728e-04  3.1457777481679175e-04  3.1327756081476679e-04  3.1166922003665799e-04  3.0974133871620568e-04  3.0766454812804108e-04  3.0545787614387774e-04  3.0355029121472777e-04  3.0209618103445117e-04  3.0119506666241970e-04  6.0096128458355996e-04  6.0106103335709753e-04  3.0168976809737000e-04  3.0450106328027744e-04  3.0887746383240081e-04  3.1394390479049953e-04  3.1893719128240489e-04  3.2310723737963331e-04  3.2628454092696732e-04  3.2857397134484188e-04  3.3020068129671062e-04  3.3137021951265750e-04  3.3222099599715973e-04  3.3283412989357783e-04  3.3326451362439025e-04  3.3356052890145984e-04  3.3376592100462941e-04  3.3391394583266455e-04  3.3402448827145358e-04  3.3410687106851433e-04  3.3416454716887739e-04  3.3419814539727654e-04  3.3420685099126566e-04  3.3418920565548411e-04  3.3414322018004793e-04  3.3406500624048137e-04  3.3394533577292670e-04  3.3376425346807624e-04  3.3348602855031801e-04  3.3305887369526274e-04  3.3241897263692978e-04  3.3148504131804790e-04  3.3013297372369571e-04  3.2816834234719193e-04  3.2535299793019486e-04  3.2146565010595350e-04  3.1675310472995466e-04  3.1093031489028529e-04  3.0679049932621512e-04  3.0429437187813417e-04  3.0201797908281820e-04  6.0127299476921234e-04  6.2501553186740269e-04  3.1869381412638517e-04  3.4912002200181613e-04  3.8134656033385578e-04  4.3966399531972857e-04  5.0934339640050649e-04  5.8153609490651885e-04  6.4347174656812357e-04  6.9022877345418805e-04  7.2305007952263895e-04  7.4568278003439852e-04  7.6097848425466994e-04  7.7069739310484098e-04  7.7637012003808263e-04  7.7954406895603410e-04  7.8147553945774714e-04  7.8290032835846705e-04  7.8410257902214811e-04  7.8514551374972484e-04  7.8604873529902850e-04  7.8683530762904469e-04  7.8752647328883540e-04  7.8814752924066789e-04  7.8872843482557782e-04  7.8927264279326820e-04  7.8967539338629586e-04  7.8956700952698426e-04  7.8814136577466014e-04  7.8417852226610630e-04  7.7629843082514165e-04  7.6285992821104260e-04  7.4108904336560517e-04  7.0665685100716107e-04  6.5597176581124947e-04  5.8996035321481010e-04  5.1712211638017716e-04  4.3960871097352530e-04  3.9433391555791244e-04  3.3560724772669661e-04  3.0650631709094867e-04  6.0368169154125277e-04  6.6894185573062421e-04  4.8129912552398799e-04  2.8034088210861379e-02  2.0215678150019767e-01  2.9467557486330226e-01  3.7415870507431481e-01  4.3044815280092941e-01  4.6715135470443425e-01  4.8762848496283595e-01  4.9882341804405916e-01  5.0591135994050962e-01  5.1107169156555532e-01  5.1464360673846909e-01  5.1659196864127865e-01  5.1734651655799180e-01  5.1763906173714858e-01  5.1799155184858270e-01  5.1854599204252672e-01  5.1920371259160591e-01  5.1981717954938089e-01  5.2028959722802770e-01  5.2058262358316443e-01  5.2071170893469010e-01  5.2075218205049345e-01  5.2082085338008699e-01  5.2100871351939737e-01  5.2125363836140803e-01  5.2120242652245807e-01  5.2024721069126445e-01  5.1784965360464363e-01  5.1368407097307633e-01  5.0694029610861591e-01  4.9525935818137107e-01  4.7449752080932572e-01  4.4074018523854325e-01  3.9216957023730364e-01  3.1020320159215037e-01  1.8569957642751309e-01  3.6000334818083471e-02  4.5859092676804554e-04  6.3412855884814232e-04  8.6434891497179045e-01  7.6566121345833082e-01  9.9769057453554910e-01  9.9897147378690043e-01  9.9916297156559952e-01  9.9924029971626072e-01  9.9927121597796431e-01  9.9928816823410893e-01  9.9929616324768267e-01  9.9929957097380206e-01  9.9930117863927381e-01  9.9930242577430162e-01  9.9930352401632472e-01  9.9930425105702281e-01  9.9930455104831994e-01  9.9930462510611107e-01  9.9930472512157253e-01  9.9930498868831696e-01  9.9930542268285116e-01  9.9930597228157680e-01  9.9930658112535597e-01  9.9930721082141682e-01  9.9930784744072665e-01  9.9930850967243567e-01  9.9930924310044111e-01  9.9931009021622219e-01  9.9931103898991380e-01  9.9931196062757788e-01  9.9931257727152556e-01  9.9931252019411843e-01  9.9931142177606447e-01  9.9930876213730946e-01  9.9930330696636727e-01  9.9929242571973298e-01  9.9927158082388801e-01  9.9923210436360155e-01  9.9915144706318593e-01  9.9891911929608812e-01  9.9789960973927527e-01  9.4381729693538952e-01  3.0116087389613300e-01  9.9977781893662621e-01  9.9985368654681905e-01  9.9983553922911816e-01  9.9981350116743495e-01  9.9980020857302287e-01  9.9979003107255637e-01  9.9978272455650952e-01  9.9977787212827463e-01  9.9977472659908273e-01  9.9977273424660451e-01  9.9977149343099370e-01  9.9977073819275220e-01  9.9977028624384956e-01  9.9977001673528998e-01  9.9976985599144763e-01  9.9976976368547554e-01  9.9976971895424072e-01  9.9976970995809378e-01  9.9976972845368961e-01  9.9976976823233010e-01  9.9976982534585013e-01  9.9976989873845323e-01  9.9976999071807726e-01  9.9977010697885460e-01  9.9977025616035353e-01  9.9977044956521921e-01  9.9977070241435528e-01  9.9977103851578608e-01  9.9977149984719693e-01  9.9977216106618794e-01  9.9977314792614513e-01  9.9977466208348431e-01  9.9977702037682126e-01  9.9978070756264792e-01  9.9978640593667090e-01  9.9979490416399219e-01  9.9980676134097179e-01  9.9982183848541395e-01  9.9983910875116322e-01  9.9985719440416176e-01  9.9967040617204417e-01  9.9989059862271001e-01  9.9993501171447363e-01  9.9992106010153903e-01  9.9990483146823128e-01  9.9988994930922026e-01  9.9987802713942364e-01  9.9986937322745706e-01  9.9986352273332002e-01  9.9985974605688654e-01  9.9985738500669297e-01  9.9985593869856504e-01  9.9985506707540106e-01  9.9985454778716731e-01  9.9985423989602173e-01  9.9985405688291229e-01  9.9985394804563754e-01  9.9985388490271576e-01  9.9985385150128769e-01  9.9985383831572960e-01  9.9985383916957238e-01  9.9985385018861805e-01  9.9985386979556345e-01  9.9985389905231348e-01  9.9985394196678534e-01  9.9985400578363481e-01  9.9985410182981493e-01  9.9985424794573940e-01  9.9985447371664238e-01  9.9985482965303007e-01  9.9985540153079899e-01  9.9985633157698561e-01  9.9985784937278133e-01  9.9986031232733341e-01  9.9986424455916145e-01  9.9987033465302277e-01  9.9987930353279020e-01  9.9989156666832868e-01  9.9990668992103948e-01  9.9992278662029332e-01  9.9993607038393706e-01  9.9987276555063109e-01  9.9990512780064889e-01  9.9994793580891050e-01  9.9993618158549158e-01  9.9992149679375431e-01  9.9990724494542438e-01  9.9989547278412816e-01  9.9988678240638706e-01  9.9988084769240215e-01  9.9987700469408702e-01  9.9987459957614200e-01  9.9987312571649145e-01  9.9987223533009650e-01  9.9987170228071232e-01  9.9987138397301689e-01  9.9987119244672384e-01  9.9987107537729270e-01  9.9987100298748799e-01  9.9987095872744280e-01  9.9987093305115649e-01  9.9987091997426725e-01  9.9987091572951603e-01  9.9987091860965605e-01  9.9987092928656163e-01  9.9987095122868963e-01  9.9987099118765743e-01  9.9987106026441641e-01  9.9987117652915036e-01  9.9987137025053940e-01  9.9987169268372278e-01  9.9987222962893041e-01  9.9987312176752574e-01  9.9987459477054041e-01  9.9987699747728864e-01  9.9988083774755998e-01  9.9988676974063195e-01  9.9989545698470350e-01  9.9990722691618661e-01  9.9992148131143577e-01  9.9993617324548612e-01  9.9994793375089519e-01  9.9990512740435389e-01  9.9987276390134228e-01  9.9993606700940285e-01  9.9992277735269086e-01  9.9990666915348692e-01  9.9989152315225083e-01  9.9987922917816385e-01  9.9987023177925116e-01  9.9986411860428270e-01  9.9986016506910580e-01  9.9985768108369710e-01  9.9985614622649266e-01  9.9985520795042260e-01  9.9985463795363905e-01  9.9985429059892139e-01  9.9985407459457354e-01  9.9985393535021128e-01  9.9985384231417318e-01  9.9985377902497163e-01  9.9985373598577532e-01  9.9985370675077279e-01  9.9985368670323005e-01  9.9985367335317421e-01  9.9985366702768996e-01  9.9985367133504321e-01  9.9985369343953245e-01  9.9985374487698397e-01  9.9985384412713341e-01  9.9985402206957064e-01  9.9985433094292420e-01  9.9985485736438218e-01  9.9985574092411411e-01  9.9985720182038607e-01  9.9985957829381322e-01  9.9986337096591837e-01  9.9986924022215296e-01  9.9987791562673967e-01  9.9988986041311423e-01  9.9990476743270762e-01  9.9992102677644501e-01  9.9993500250296430e-01  9.9989059619316101e-01  9.9967044152561357e-01  9.9985717059757295e-01  9.9983901955084065e-01  9.9982167740508054e-01  9.9980648534070893e-01  9.9979448906298973e-01  9.9978587655531714e-01  9.9978009163906956e-01  9.9977632511273895e-01  9.9977388861755778e-01  9.9977231104707742e-01  9.9977129324601655e-01  9.9977063842645941e-01  9.9977020940153638e-01  9.9976991346648103e-01  9.9976969558519835e-01  9.9976952809224184e-01  9.9976939785395491e-01  9.9976929621371102e-01  9.9976921453379197e-01  9.9976914440745246e-01  9.9976907998936837e-01  9.9976902018043035e-01  9.9976896939873527e-01  9.9976893682131340e-01  9.9976893537883627e-01  9.9976898298050487e-01  9.9976910812578701e-01  9.9976935969482295e-01  9.9976981823672606e-01  9.9977060652581795e-01  9.9977190257588788e-01  9.9977396416576048e-01  9.9977718759770329e-01  9.9978213199053523e-01  9.9978954621656468e-01  9.9979983264473049e-01  9.9981320537150642e-01  9.9983541300827805e-01  9.9985365374119128e-01  9.9977779280539414e-01  3.0285184179256380e-01  9.4313829992181386e-01  9.9789552163322326e-01  9.9891609340183685e-01  9.9914497551249870e-01  9.9922645687044731e-01  9.9926705368084212e-01  9.9928821020945824e-01  9.9929835596049210e-01  9.9930244597853835e-01  9.9930400870797031e-01  9.9930490202899314e-01  9.9930548206266545e-01  9.9930549800846513e-01  9.9930490503977454e-01  9.9930398527853870e-01  9.9930307850303912e-01  9.9930237114392706e-01  9.9930186350067995e-01  9.9930144636209084e-01  9.9930099634357306e-01  9.9930044313501454e-01  9.9929980086299164e-01  9.9929915533733282e-01  9.9929859356025497e-01  9.9929810766709426e-01  9.9929756866142305e-01  9.9929683557012816e-01  9.9929592757408792e-01  9.9929506595632001e-01  9.9929440632277156e-01  9.9929343642929991e-01  9.9929027688216643e-01  9.9928183107770663e-01  9.9926429144996687e-01  9.9923452603726104e-01  9.9915961567199962e-01  9.9896095838136056e-01  9.9765639303873166e-01  7.6672340529095007e-01  8.6445782268826166e-01  6.3426137264334837e-04  4.5909517590670529e-04  2.2724008337537172e-02  2.0220977750482813e-01  3.0961780333221567e-01  3.8968535645537650e-01  4.4522076051517345e-01  4.8367739659369513e-01  5.0602409761097100e-01  5.1739560886473290e-01  5.2368332507652049e-01  5.2832830183646950e-01  5.3219916166780512e-01  5.3476481387349017e-01  5.3558812428532254e-01  5.3510821889443316e-01  5.3416588747788629e-01  5.3336237778994011e-01  5.3289865484611099e-01  5.3270853007314933e-01  5.3263264259522358e-01  5.3253498584111791e-01  5.3236110926493818e-01  5.3214591799827116e-01  5.3193854349268421e-01  5.3164852932917506e-01  5.3093050374480011e-01  5.2926119366376456e-01  5.2623352308602078e-01  5.2182287457013699e-01  5.1622065965765762e-01  5.0892477153165072e-01  4.9703517679677689e-01  4.7414980132474654e-01  4.3342714440262953e-01  3.7592705749082173e-01  3.0382422751627636e-01  2.0894060412745719e-01  6.0318485576595360e-03  4.8026667580867901e-04  6.6930839306796020e-04  6.0364135614301745e-04  3.0672902826868221e-04  3.3620802986507862e-04  3.9514956454431534e-04  4.3977586174873709e-04  5.1425149111424527e-04  5.8626839410459144e-04  6.5126206897793990e-04  7.0018518084640532e-04  7.3242660368710247e-04  7.5202304222770960e-04  7.6414765617604955e-04  7.7212549837726895e-04  7.7713857894301584e-04  7.7963823777310213e-04  7.8037562417577263e-04  7.8026415217804514e-04  7.7993452296199178e-04  7.7961400882180427e-04  7.7926201515231817e-04  7.7874594921517343e-04  7.7794952599888399e-04  7.7681430819886619e-04  7.7535025263441486e-04  7.7360388401973598e-04  7.7153785562499683e-04  7.6885011413572622e-04  7.6487022478955119e-04  7.5863199776982743e-04  7.4902633623188030e-04  7.3476479820268825e-04  7.1391486721362649e-04  6.8323866129322739e-04  6.3857017929906939e-04  5.7832622871961887e-04  5.0767236285362066e-04  4.3984576300474035e-04  3.8276258934097764e-04  3.4967225407732763e-04  3.1870436790922316e-04  6.2489648408727396e-04  6.0146948035910274e-04  3.0227790061275993e-04  3.0472090974984482e-04  3.0723539399382725e-04  3.1129949662433401e-04  3.1698661467585281e-04  3.2164576102131537e-04  3.2542179791896322e-04  3.2810051841562586e-04  3.2993013232093587e-04  3.3117660760619634e-04  3.3205924884129685e-04  3.3270369297768126e-04  3.3316378739696944e-04  3.3347062845872532e-04  3.3366302361281070e-04  3.3378307586696813e-04  3.3386174228386970e-04  3.3391379533639491e-04  3.3394188512738673e-04  3.3394323005448730e-04  3.3391449552506422e-04  3.3385378735208810e-04  3.3376027548873963e-04  3.3363158708698838e-04  3.3345932242092886e-04  3.3322519143601687e-04  3.3290137417429325e-04  3.3245484210198101e-04  3.3184920940094721e-04  3.3103651415637475e-04  3.2993601419512784e-04  3.2840726748281629e-04  3.2624351015095163e-04  3.2321949237827495e-04  3.1923095164093987e-04  3.1443144024974302e-04  3.0949691200474015e-04  3.0506597466833251e-04  3.0199449854973267e-04  6.0123707653583726e-04  6.0113327230203520e-04  3.0140184828433624e-04  3.0237023635145034e-04  3.0384446983555685e-04  3.0572161320426304e-04  3.0786044197478085e-04  3.0986939169393000e-04  3.1172611356770983e-04  3.1326965623675664e-04  3.1451194120205440e-04  3.1548862574228112e-04  3.1625499658070525e-04  3.1685536164474448e-04  3.1731847114789454e-04  3.1766529676965758e-04  3.1791701990339005e-04  3.1809557645734899e-04  3.1821988447427936e-04  3.1830286975814416e-04  3.1835120131483630e-04  3.1836694959815905e-04  3.1834960144954533e-04  3.1829732881389565e-04  3.1820704992851991e-04  3.1807327452637037e-04  3.1788628449118953e-04  3.1763086228967012e-04  3.1728673323742321e-04  3.1683050409095430e-04  3.1623703428728794e-04  3.1547792072463102e-04  3.1451782498285216e-04  3.1331477365920802e-04  3.1183295424522288e-04  3.1007094941167365e-04  3.0809272919940961e-04  3.0604944509689643e-04  3.0415761468874125e-04  3.0266457958256848e-04  3.0167632329626787e-04  6.0143122353921766e-04  6.0069868499023715e-04  3.0091313379635354e-04  3.0154239572411322e-04  3.0257734808721189e-04  3.0405832504526610e-04  3.0589486986795980e-04  3.0787211590947255e-04  3.0978826641535361e-04  3.1150348691796930e-04  3.1296166854883110e-04  3.1415433666467484e-04  3.1510751522055195e-04  3.1585681952933832e-04  3.1643642973603833e-04  3.1687608355821450e-04  3.1720216517024352e-04  3.1743816080943556e-04  3.1760362202244062e-04  3.1771299030462313e-04  3.1777538319067191e-04  3.1779531829360204e-04  3.1777372967948218e-04  3.1770864161889515e-04  3.1759516881684174e-04  3.1742487244313425e-04  3.1718484006776034e-04  3.1685705927400826e-04  3.1641850184571045e-04  3.1584182405043344e-04  3.1509624860896469e-04  3.1414881764129797e-04  3.1296793557540831e-04  3.1153268112547812e-04  3.0985017438399501e-04  3.0797759392600898e-04  3.0603803272509402e-04  3.0421368253949536e-04  3.0270440378101269e-04  3.0165833925289840e-04  3.0102658293150599e-04  6.0096345399565285e-04  6.0040925231022511e-04  3.0051935601861944e-04  3.0101344360094378e-04  3.0192180054125462e-04  3.0328209528251467e-04  3.0500935745276007e-04  3.0693584369841938e-04  3.0887342034838369e-04  3.1067536857966701e-04  3.1225167565828246e-04  3.1357005221274698e-04  3.1463805851553769e-04  3.1548317128728132e-04  3.1613927670388106e-04  3.1663945302889686e-04  3.1701335148756897e-04  3.1728630251158123e-04  3.1747878596850675e-04  3.1760612317524654e-04  3.1767857940374802e-04  3.1770183606800128e-04  3.1767755146822215e-04  3.1760369405169520e-04  3.1747447516762805e-04  3.1727991943786532e-04  3.1700529283568932e-04  3.1663068268626812e-04  3.1613095974670488e-04  3.1547627603236344e-04  3.1463346160262156e-04  3.1356936149305118e-04  3.1225796677518115e-04  3.1069321118180220e-04  3.0890665312484318e-04  3.0698445300568776e-04  3.0507141647641365e-04  3.0334852824557201e-04  3.0198131756108690e-04  3.0106252355216007e-04  3.0056986603890952e-04  6.0056595326351018e-04  6.0035699900315724e-04  3.0039245952120252e-04  3.0085070748054205e-04  3.0173741650659527e-04  3.0306504985701846e-04  3.0475640883123286e-04  3.0665992465710840e-04  3.0859734570399026e-04  3.104179537