<?xml version="1.0"?>
<VTKFile type="UnstructuredGrid"  version="0.1"  >
<UnstructuredGrid>
<Piece  NumberOfPoints="1681" NumberOfCells="3200">
<Points>
<DataArray  type="Float64"  NumberOfComponents="3"  format="ascii">0 0 0  0.025 0 0  0.05 0 0  0.075 0 0  0.1 0 0  0.125 0 0  0.15 0 0  0.175 0 0  0.2 0 0  0.225 0 0  0.25 0 0  0.275 0 0  0.3 0 0  0.325 0 0  0.35 0 0  0.375 0 0  0.4 0 0  0.425 0 0  0.45 0 0  0.475 0 0  0.5 0 0  0.525 0 0  0.55 0 0  0.575 0 0  0.6 0 0  0.625 0 0  0.65 0 0  0.675 0 0  0.7 0 0  0.725 0 0  0.75 0 0  0.775 0 0  0.8 0 0  0.825 0 0  0.85 0 0  0.875 0 0  0.9 0 0  0.925 0 0  0.95 0 0  0.975 0 0  1 0 0  0 0.025 0  0.025 0.025 0  0.05 0.025 0  0.075 0.025 0  0.1 0.025 0  0.125 0.025 0  0.15 0.025 0  0.175 0.025 0  0.2 0.025 0  0.225 0.025 0  0.25 0.025 0  0.275 0.025 0  0.3 0.025 0  0.325 0.025 0  0.35 0.025 0  0.375 0.025 0  0.4 0.025 0  0.425 0.025 0  0.45 0.025 0  0.475 0.025 0  0.5 0.025 0  0.525 0.025 0  0.55 0.025 0  0.575 0.025 0  0.6 0.025 0  0.625 0.025 0  0.65 0.025 0  0.675 0.025 0  0.7 0.025 0  0.725 0.025 0  0.75 0.025 0  0.775 0.025 0  0.8 0.025 0  0.825 0.025 0  0.85 0.025 0  0.875 0.025 0  0.9 0.025 0  0.925 0.025 0  0.95 0.025 0  0.975 0.025 0  1 0.025 0  0 0.05 0  0.025 0.05 0  0.05 0.05 0  0.075 0.05 0  0.1 0.05 0  0.125 0.05 0  0.15 0.05 0  0.175 0.05 0  0.2 0.05 0  0.225 0.05 0  0.25 0.05 0  0.275 0.05 0  0.3 0.05 0  0.325 0.05 0  0.35 0.05 0  0.375 0.05 0  0.4 0.05 0  0.425 0.05 0  0.45 0.05 0  0.475 0.05 0  0.5 0.05 0  0.525 0.05 0  0.55 0.05 0  0.575 0.05 0  0.6 0.05 0  0.625 0.05 0  0.65 0.05 0  0.675 0.05 0  0.7 0.05 0  0.725 0.05 0  0.75 0.05 0  0.775 0.05 0  0.8 0.05 0  0.825 0.05 0  0.85 0.05 0  0.875 0.05 0  0.9 0.05 0  0.925 0.05 0  0.95 0.05 0  0.975 0.05 0  1 0.05 0  0 0.075 0  0.025 0.075 0  0.05 0.075 0  0.075 0.075 0  0.1 0.075 0  0.125 0.075 0  0.15 0.075 0  0.175 0.075 0  0.2 0.075 0  0.225 0.075 0  0.25 0.075 0  0.275 0.075 0  0.3 0.075 0  0.325 0.075 0  0.35 0.075 0  0.375 0.075 0  0.4 0.075 0  0.425 0.075 0  0.45 0.075 0  0.475 0.075 0  0.5 0.075 0  0.525 0.075 0  0.55 0.075 0  0.575 0.075 0  0.6 0.075 0  0.625 0.075 0  0.65 0.075 0  0.675 0.075 0  0.7 0.075 0  0.725 0.075 0  0.75 0.075 0  0.775 0.075 0  0.8 0.075 0  0.825 0.075 0  0.85 0.075 0  0.875 0.075 0  0.9 0.075 0  0.925 0.075 0  0.95 0.075 0  0.975 0.075 0  1 0.075 0  0 0.1 0  0.025 0.1 0  0.05 0.1 0  0.075 0.1 0  0.1 0.1 0  0.125 0.1 0  0.15 0.1 0  0.175 0.1 0  0.2 0.1 0  0.225 0.1 0  0.25 0.1 0  0.275 0.1 0  0.3 0.1 0  0.325 0.1 0  0.35 0.1 0  0.375 0.1 0  0.4 0.1 0  0.425 0.1 0  0.45 0.1 0  0.475 0.1 0  0.5 0.1 0  0.525 0.1 0  0.55 0.1 0  0.575 0.1 0  0.6 0.1 0  0.625 0.1 0  0.65 0.1 0  0.675 0.1 0  0.7 0.1 0  0.725 0.1 0  0.75 0.1 0  0.775 0.1 0  0.8 0.1 0  0.825 0.1 0  0.85 0.1 0  0.875 0.1 0  0.9 0.1 0  0.925 0.1 0  0.95 0.1 0  0.975 0.1 0  1 0.1 0  0 0.125 0  0.025 0.125 0  0.05 0.125 0  0.075 0.125 0  0.1 0.125 0  0.125 0.125 0  0.15 0.125 0  0.175 0.125 0  0.2 0.125 0  0.225 0.125 0  0.25 0.125 0  0.275 0.125 0  0.3 0.125 0  0.325 0.125 0  0.35 0.125 0  0.375 0.125 0  0.4 0.125 0  0.425 0.125 0  0.45 0.125 0  0.475 0.125 0  0.5 0.125 0  0.525 0.125 0  0.55 0.125 0  0.575 0.125 0  0.6 0.125 0  0.625 0.125 0  0.65 0.125 0  0.675 0.125 0  0.7 0.125 0  0.725 0.125 0  0.75 0.125 0  0.775 0.125 0  0.8 0.125 0  0.825 0.125 0  0.85 0.125 0  0.875 0.125 0  0.9 0.125 0  0.925 0.125 0  0.95 0.125 0  0.975 0.125 0  1 0.125 0  0 0.15 0  0.025 0.15 0  0.05 0.15 0  0.075 0.15 0  0.1 0.15 0  0.125 0.15 0  0.15 0.15 0  0.175 0.15 0  0.2 0.15 0  0.225 0.15 0  0.25 0.15 0  0.275 0.15 0  0.3 0.15 0  0.325 0.15 0  0.35 0.15 0  0.375 0.15 0  0.4 0.15 0  0.425 0.15 0  0.45 0.15 0  0.475 0.15 0  0.5 0.15 0  0.525 0.15 0  0.55 0.15 0  0.575 0.15 0  0.6 0.15 0  0.625 0.15 0  0.65 0.15 0  0.675 0.15 0  0.7 0.15 0  0.725 0.15 0  0.75 0.15 0  0.775 0.15 0  0.8 0.15 0  0.825 0.15 0  0.85 0.15 0  0.875 0.15 0  0.9 0.15 0  0.925 0.15 0  0.95 0.15 0  0.975 0.15 0  1 0.15 0  0 0.175 0  0.025 0.175 0  0.05 0.175 0  0.075 0.175 0  0.1 0.175 0  0.125 0.175 0  0.15 0.175 0  0.175 0.175 0  0.2 0.175 0  0.225 0.175 0  0.25 0.175 0  0.275 0.175 0  0.3 0.175 0  0.325 0.175 0  0.35 0.175 0  0.375 0.175 0  0.4 0.175 0  0.425 0.175 0  0.45 0.175 0  0.475 0.175 0  0.5 0.175 0  0.525 0.175 0  0.55 0.175 0  0.575 0.175 0  0.6 0.175 0  0.625 0.175 0  0.65 0.175 0  0.675 0.175 0  0.7 0.175 0  0.725 0.175 0  0.75 0.175 0  0.775 0.175 0  0.8 0.175 0  0.825 0.175 0  0.85 0.175 0  0.875 0.175 0  0.9 0.175 0  0.925 0.175 0  0.95 0.175 0  0.975 0.175 0  1 0.175 0  0 0.2 0  0.025 0.2 0  0.05 0.2 0  0.075 0.2 0  0.1 0.2 0  0.125 0.2 0  0.15 0.2 0  0.175 0.2 0  0.2 0.2 0  0.225 0.2 0  0.25 0.2 0  0.275 0.2 0  0.3 0.2 0  0.325 0.2 0  0.35 0.2 0  0.375 0.2 0  0.4 0.2 0  0.425 0.2 0  0.45 0.2 0  0.475 0.2 0  0.5 0.2 0  0.525 0.2 0  0.55 0.2 0  0.575 0.2 0  0.6 0.2 0  0.625 0.2 0  0.65 0.2 0  0.675 0.2 0  0.7 0.2 0  0.725 0.2 0  0.75 0.2 0  0.775 0.2 0  0.8 0.2 0  0.825 0.2 0  0.85 0.2 0  0.875 0.2 0  0.9 0.2 0  0.925 0.2 0  0.95 0.2 0  0.975 0.2 0  1 0.2 0  0 0.225 0  0.025 0.225 0  0.05 0.225 0  0.075 0.225 0  0.1 0.225 0  0.125 0.225 0  0.15 0.225 0  0.175 0.225 0  0.2 0.225 0  0.225 0.225 0  0.25 0.225 0  0.275 0.225 0  0.3 0.225 0  0.325 0.225 0  0.35 0.225 0  0.375 0.225 0  0.4 0.225 0  0.425 0.225 0  0.45 0.225 0  0.475 0.225 0  0.5 0.225 0  0.525 0.225 0  0.55 0.225 0  0.575 0.225 0  0.6 0.225 0  0.625 0.225 0  0.65 0.225 0  0.675 0.225 0  0.7 0.225 0  0.725 0.225 0  0.75 0.225 0  0.775 0.225 0  0.8 0.225 0  0.825 0.225 0  0.85 0.225 0  0.875 0.225 0  0.9 0.225 0  0.925 0.225 0  0.95 0.225 0  0.975 0.225 0  1 0.225 0  0 0.25 0  0.025 0.25 0  0.05 0.25 0  0.075 0.25 0  0.1 0.25 0  0.125 0.25 0  0.15 0.25 0  0.175 0.25 0  0.2 0.25 0  0.225 0.25 0  0.25 0.25 0  0.275 0.25 0  0.3 0.25 0  0.325 0.25 0  0.35 0.25 0  0.375 0.25 0  0.4 0.25 0  0.425 0.25 0  0.45 0.25 0  0.475 0.25 0  0.5 0.25 0  0.525 0.25 0  0.55 0.25 0  0.575 0.25 0  0.6 0.25 0  0.625 0.25 0  0.65 0.25 0  0.675 0.25 0  0.7 0.25 0  0.725 0.25 0  0.75 0.25 0  0.775 0.25 0  0.8 0.25 0  0.825 0.25 0  0.85 0.25 0  0.875 0.25 0  0.9 0.25 0  0.925 0.25 0  0.95 0.25 0  0.975 0.25 0  1 0.25 0  0 0.275 0  0.025 0.275 0  0.05 0.275 0  0.075 0.275 0  0.1 0.275 0  0.125 0.275 0  0.15 0.275 0  0.175 0.275 0  0.2 0.275 0  0.225 0.275 0  0.25 0.275 0  0.275 0.275 0  0.3 0.275 0  0.325 0.275 0  0.35 0.275 0  0.375 0.275 0  0.4 0.275 0  0.425 0.275 0  0.45 0.275 0  0.475 0.275 0  0.5 0.275 0  0.525 0.275 0  0.55 0.275 0  0.575 0.275 0  0.6 0.275 0  0.625 0.275 0  0.65 0.275 0  0.675 0.275 0  0.7 0.275 0  0.725 0.275 0  0.75 0.275 0  0.775 0.275 0  0.8 0.275 0  0.825 0.275 0  0.85 0.275 0  0.875 0.275 0  0.9 0.275 0  0.925 0.275 0  0.95 0.275 0  0.975 0.275 0  1 0.275 0  0 0.3 0  0.025 0.3 0  0.05 0.3 0  0.075 0.3 0  0.1 0.3 0  0.125 0.3 0  0.15 0.3 0  0.175 0.3 0  0.2 0.3 0  0.225 0.3 0  0.25 0.3 0  0.275 0.3 0  0.3 0.3 0  0.325 0.3 0  0.35 0.3 0  0.375 0.3 0  0.4 0.3 0  0.425 0.3 0  0.45 0.3 0  0.475 0.3 0  0.5 0.3 0  0.525 0.3 0  0.55 0.3 0  0.575 0.3 0  0.6 0.3 0  0.625 0.3 0  0.65 0.3 0  0.675 0.3 0  0.7 0.3 0  0.725 0.3 0  0.75 0.3 0  0.775 0.3 0  0.8 0.3 0  0.825 0.3 0  0.85 0.3 0  0.875 0.3 0  0.9 0.3 0  0.925 0.3 0  0.95 0.3 0  0.975 0.3 0  1 0.3 0  0 0.325 0  0.025 0.325 0  0.05 0.325 0  0.075 0.325 0  0.1 0.325 0  0.125 0.325 0  0.15 0.325 0  0.175 0.325 0  0.2 0.325 0  0.225 0.325 0  0.25 0.325 0  0.275 0.325 0  0.3 0.325 0  0.325 0.325 0  0.35 0.325 0  0.375 0.325 0  0.4 0.325 0  0.425 0.325 0  0.45 0.325 0  0.475 0.325 0  0.5 0.325 0  0.525 0.325 0  0.55 0.325 0  0.575 0.325 0  0.6 0.325 0  0.625 0.325 0  0.65 0.325 0  0.675 0.325 0  0.7 0.325 0  0.725 0.325 0  0.75 0.325 0  0.775 0.325 0  0.8 0.325 0  0.825 0.325 0  0.85 0.325 0  0.875 0.325 0  0.9 0.325 0  0.925 0.325 0  0.95 0.325 0  0.975 0.325 0  1 0.325 0  0 0.35 0  0.025 0.35 0  0.05 0.35 0  0.075 0.35 0  0.1 0.35 0  0.125 0.35 0  0.15 0.35 0  0.175 0.35 0  0.2 0.35 0  0.225 0.35 0  0.25 0.35 0  0.275 0.35 0  0.3 0.35 0  0.325 0.35 0  0.35 0.35 0  0.375 0.35 0  0.4 0.35 0  0.425 0.35 0  0.45 0.35 0  0.475 0.35 0  0.5 0.35 0  0.525 0.35 0  0.55 0.35 0  0.575 0.35 0  0.6 0.35 0  0.625 0.35 0  0.65 0.35 0  0.675 0.35 0  0.7 0.35 0  0.725 0.35 0  0.75 0.35 0  0.775 0.35 0  0.8 0.35 0  0.825 0.35 0  0.85 0.35 0  0.875 0.35 0  0.9 0.35 0  0.925 0.35 0  0.95 0.35 0  0.975 0.35 0  1 0.35 0  0 0.375 0  0.025 0.375 0  0.05 0.375 0  0.075 0.375 0  0.1 0.375 0  0.125 0.375 0  0.15 0.375 0  0.175 0.375 0  0.2 0.375 0  0.225 0.375 0  0.25 0.375 0  0.275 0.375 0  0.3 0.375 0  0.325 0.375 0  0.35 0.375 0  0.375 0.375 0  0.4 0.375 0  0.425 0.375 0  0.45 0.375 0  0.475 0.375 0  0.5 0.375 0  0.525 0.375 0  0.55 0.375 0  0.575 0.375 0  0.6 0.375 0  0.625 0.375 0  0.65 0.375 0  0.675 0.375 0  0.7 0.375 0  0.725 0.375 0  0.75 0.375 0  0.775 0.375 0  0.8 0.375 0  0.825 0.375 0  0.85 0.375 0  0.875 0.375 0  0.9 0.375 0  0.925 0.375 0  0.95 0.375 0  0.975 0.375 0  1 0.375 0  0 0.4 0  0.025 0.4 0  0.05 0.4 0  0.075 0.4 0  0.1 0.4 0  0.125 0.4 0  0.15 0.4 0  0.175 0.4 0  0.2 0.4 0  0.225 0.4 0  0.25 0.4 0  0.275 0.4 0  0.3 0.4 0  0.325 0.4 0  0.35 0.4 0  0.375 0.4 0  0.4 0.4 0  0.425 0.4 0  0.45 0.4 0  0.475 0.4 0  0.5 0.4 0  0.525 0.4 0  0.55 0.4 0  0.575 0.4 0  0.6 0.4 0  0.625 0.4 0  0.65 0.4 0  0.675 0.4 0  0.7 0.4 0  0.725 0.4 0  0.75 0.4 0  0.775 0.4 0  0.8 0.4 0  0.825 0.4 0  0.85 0.4 0  0.875 0.4 0  0.9 0.4 0  0.925 0.4 0  0.95 0.4 0  0.975 0.4 0  1 0.4 0  0 0.425 0  0.025 0.425 0  0.05 0.425 0  0.075 0.425 0  0.1 0.425 0  0.125 0.425 0  0.15 0.425 0  0.175 0.425 0  0.2 0.425 0  0.225 0.425 0  0.25 0.425 0  0.275 0.425 0  0.3 0.425 0  0.325 0.425 0  0.35 0.425 0  0.375 0.425 0  0.4 0.425 0  0.425 0.425 0  0.45 0.425 0  0.475 0.425 0  0.5 0.425 0  0.525 0.425 0  0.55 0.425 0  0.575 0.425 0  0.6 0.425 0  0.625 0.425 0  0.65 0.425 0  0.675 0.425 0  0.7 0.425 0  0.725 0.425 0  0.75 0.425 0  0.775 0.425 0  0.8 0.425 0  0.825 0.425 0  0.85 0.425 0  0.875 0.425 0  0.9 0.425 0  0.925 0.425 0  0.95 0.425 0  0.975 0.425 0  1 0.425 0  0 0.45 0  0.02
[...]
<PointData  Scalars="ControlVisualisation"> 
<DataArray  type="Float64"  Name="ControlVisualisation"  format="ascii">1.4759874846230370e-01  1.0704009022024541e-01  1.0717739191642395e-01  1.0752621944875231e-01  1.0807304069620313e-01  1.0876055011142746e-01  1.0951886672816763e-01  1.1028764231877744e-01  1.1102566436991301e-01  1.1170996269155722e-01  1.1233080729674755e-01  1.1288642874563655e-01  1.1337889521497607e-01  1.1381130995844504e-01  1.1418612720248225e-01  1.1450435287519256e-01  1.1476542605856122e-01  1.1496758440212454e-01  1.1510850759855813e-01  1.1518603481376299e-01  1.1519877831353770e-01  1.1514650254002158e-01  1.1503019492011285e-01  1.1485181423596785e-01  1.1461376238650142e-01  1.1431818509726147e-01  1.1396626098828887e-01  1.1355767702477089e-01  1.1309049827892323e-01  1.1256163923540652e-01  1.1196813278645559e-01  1.1130942110435980e-01  1.1059099401941366e-01  1.0982931817336920e-01  1.0905755856573437e-01  1.0832981661422875e-01  1.0771564247983402e-01  1.0728210889862647e-01  1.0706319289081728e-01  1.0702346517515965e-01  2.3493596523890664e-01  1.0703674019452081e-01  5.8560639031663406e-02  5.9140349536339121e-02  6.0333763578403865e-02  6.2152760660307185e-02  6.4451255953567821e-02  6.7035952976362806e-02  6.9735914483446765e-02  7.2428281109026896e-02  7.5037994980118233e-02  7.7525286092452017e-02  7.9871129419424938e-02  8.2065306477857813e-02  8.4097961062936766e-02  8.5954148893643417e-02  8.7610944301446281e-02  8.9037133614231143e-02  9.0195609667541324e-02  9.1048125995943932e-02  9.1561391376045159e-02  9.1713006446824175e-02  9.1495709713046797e-02  9.0918819554217600e-02  9.0006486436197866e-02  8.8793201059396171e-02  8.7317723103834441e-02  8.5616992570450329e-02  8.3721519271832412e-02  8.1653231035793514e-02  7.9426100645862696e-02  7.7049402472024700e-02  7.4533684917989840e-02  7.1899897101262933e-02  6.9191937034741052e-02  6.6492406132029641e-02  6.3935227443217321e-02  6.1702724321010996e-02  5.9995185786307206e-02  5.8935805493604679e-02  5.8457955092680758e-02  1.0702305813644401e-01  1.0713971143965548e-01  5.9113554071475498e-02  6.0638985385099195e-02  6.3143477208368382e-02  6.6830820049846557e-02  7.1532242002470922e-02  7.7010977049183041e-02  8.3093170766300545e-02  8.9655398419153848e-02  9.6580687544348176e-02  1.0375961004911924e-01  1.1113417689784956e-01  1.1872641749320965e-01  1.2660343881235264e-01  1.3478082410442196e-01  1.4311273217098305e-01  1.5123008165487839e-01  1.5856356889066758e-01  1.6444595405870005e-01  1.6825549385348484e-01  1.6955388497370355e-01  1.6818266843107596e-01  1.6429832082104912e-01  1.5833970003293429e-01  1.5093278757798884e-01  1.4275168584882339e-01  1.3437222908488827e-01  1.2616643008857448e-01  1.1827796862321070e-01  1.1068544507130214e-01  1.0331562585706842e-01  9.6143211084265767e-02  8.9225920652285587e-02  8.2674523131080091e-02  7.6607772607614685e-02  7.1150379578585748e-02  6.6486808202552802e-02  6.2867648412910621e-02  6.0424568764861047e-02  5.8906064980251617e-02  1.0705072282143330e-01  1.0738125739144758e-01  6.0284992858781375e-02  6.3400568110451000e-02  6.7496965491608926e-02  7.3094867594251628e-02  8.0162187029966719e-02  8.8565419452040800e-02  9.8138944978444873e-02  1.0868005786872149e-01  1.2022294266971689e-01  1.3344159040692916e-01  1.4974779648108316e-01  1.7077233001750020e-01  1.9738223778722019e-01  2.2885780643404610e-01  2.6283640519978502e-01  2.9603569688797032e-01  3.2520485365226071e-01  3.4776590509631816e-01  3.6200622196411730e-01  3.6698933280607970e-01  3.6240646944096605e-01  3.4851209365023006e-01  3.2619039968081792e-01  2.9711107191376501e-01  2.6383356491599891e-01  2.2963224429839660e-01  1.9785918541630471e-01  1.7096766170776168e-01  1.4974244270461495e-01  1.3332434093681922e-01  1.2004475836183590e-01  1.0844751674076120e-01  9.7842622213628161e-02  8.8204928840090624e-02  7.9755646027960356e-02  7.2675819338693881e-02  6.7077328476260772e-02  6.2988338551891732e-02  5.9858503546909442e-02  1.0720223313515670e-01  1.0774112727792839e-01  6.2295430496849241e-02  6.9281171838129540e-02  7.7436897225053702e-02  8.7832914423467481e-02  1.0070272017562369e-01  1.1581949655628258e-01  1.3327827497159106e-01  1.5480976345073105e-01  1.8429350876274120e-01  2.2618939466140925e-01  2.8219164854261580e-01  3.4886287051023845e-01  4.1889247555444120e-01  4.8478780075655153e-01  5.4158371621798651e-01  5.8721560863334987e-01  6.2155750951341271e-01  6.4534031432515260e-01  6.5943023468318240e-01  6.6445695908937574e-01  6.6065630935996644e-01  6.4782546733885649e-01  6.2535407583708125e-01  5.9236067770891543e-01  5.4803163107532693e-01  4.9230484682765319e-01  4.2694796440951938e-01  3.5662746272775603e-01  2.8877958467455705e-01  2.3107929376017916e-01  1.8755131957609578e-01  1.5685854746325628e-01  1.3450289539822996e-01  1.1638500549975241e-01  1.0068838751559031e-01  8.7345953546254351e-02  7.6700376805713663e-02  6.8590444337488857e-02  6.1718625636645603e-02  1.0748908216693059e-01  1.0859692950302580e-01  6.8154231187798855e-02  8.8340450929790620e-02  1.1473179596124314e-01  1.4956424825283732e-01  1.9454878628268407e-01  2.5164169620752352e-01  3.2209774290410237e-01  4.0314882154328557e-01  4.8749087457329610e-01  5.6691836207816870e-01  6.3600510241509201e-01  6.9289616670991894e-01  7.3813239573689104e-01  7.7328335536047688e-01  8.0009835691666120e-01  8.2012821518219048e-01  8.3460859679282506e-01  8.4445531166310062e-01  8.5029525682074580e-01  8.5250016889130664e-01  8.5121065150265118e-01  8.4634620134666894e-01  8.3759994140801974e-01  8.2441803919906120e-01  8.0596577000237257e-01  7.8108810853738320e-01  7.4828886135807626e-01  7.0579019357898221e-01  6.5180733701914106e-01  5.8526226206594734e-01  5.0711168025666764e-01  4.2185271215557740e-01  3.3752437132488111e-01  2.6238219503363580e-01  2.0070596979140901e-01  1.5185448043282468e-01  1.1473902254916668e-01  8.6538093774831029e-02  6.5558598395703327e-02  1.0775048780284570e-01  1.2301683176923858e-01  1.0762196408086742e-01  2.7423833767160732e-01  5.3129321241593142e-01  6.8360702466317891e-01  7.6080591266019670e-01  8.0225584182184051e-01  8.2731172672959785e-01  8.4492421817807939e-01  8.5921525448008351e-01  8.7196678297089747e-01  8.8379558812832004e-01  8.9477318736129019e-01  9.0476174864134284e-01  9.1358654752590396e-01  9.2111260756902336e-01  9.2726704010991190e-01  9.3203281519886916e-01  9.3542997591220012e-01  9.3749425535326081e-01  9.3825905369840346e-01  9.3774394683917695e-01  9.3595095479459378e-01  9.3286840936823123e-01  9.2848108715415179e-01  9.2278404490680754e-01  9.1579630271449186e-01  9.0756944476330637e-01  8.9818556111679038e-01  8.8773814681364593e-01  8.7628598608691533e-01  8.6375764996861215e-01  8.4974585341671471e-01  8.3304089360498845e-01  8.1051088368039792e-01  7.7448936932331680e-01  7.0541025717555628e-01  5.5871701812790597e-01  2.6814243482359451e-01  9.9854556369619873e-02  1.1166309648735148e-01  8.6225609986776741e-01  9.3162832313873645e-01  9.6325952532610759e-01  9.4901256561020675e-01  9.3722868462788866e-01  9.2952246826855078e-01  9.2541984251268394e-01  9.2481761251400740e-01  9.2679818385273038e-01  9.3021969638631241e-01  9.3436480498420971e-01  9.3895047062190362e-01  9.4387547587549570e-01  9.4902640125217452e-01  9.5420765397974516e-01  9.5915637402410459e-01  9.6359183427541950e-01  9.6726342325666892e-01  9.6997941831519452e-01  9.7161448336694622e-01  9.7210367359782435e-01  9.7143356031474171e-01  9.6963839643036565e-01  9.6680358782129794e-01  9.6307245323102142e-01  9.5864749821108131e-01  9.5377671760843175e-01  9.4872125897524029e-01  9.4371364096054156e-01  9.3893199625698553e-01  9.3452674478087594e-01  9.3072592267397858e-01  9.2798692573759201e-01  9.2704458505711218e-01  9.2866791325731379e-01  9.3332656989857321e-01  9.4151170767449865e-01  9.5457943875599038e-01  9.7289610044402508e-01  9.5346998736191890e-01  5.4321541242007054e-01  9.7890859993242463e-01  9.8762902718235590e-01  9.8258036603816667e-01  9.7475685757130270e-01  9.6999573894945923e-01  9.6906869521312300e-01  9.6743665486764141e-01  9.6314654661411669e-01  9.5811417031286450e-01  9.5432982950782574e-01  9.5249226959855837e-01  9.5257025850066201e-01  9.5435572096221899e-01  9.5760308060746802e-01  9.6197812690359252e-01  9.6701549613670978e-01  9.7214986319888486e-01  9.7679936060971795e-01  9.8045359911759578e-01  9.8273323282730418e-01  9.8341540247081083e-01  9.8243813986214468e-01  9.7989948340897515e-01  9.7605730908169941e-01  9.7132211640921340e-01  9.6622651994053677e-01  9.6136005176163219e-01  9.5727852386005607e-01  9.5442372695234778e-01  9.5309760669510279e-01  9.5349805319818781e-01  9.5573297345818942e-01  9.5963660970139875e-01  9.6431828768000727e-01  9.6803854947260803e-01  9.6974575436562982e-01  9.7157710021809107e-01  9.7621417094258156e-01  9.8333552266138546e-01  9.8939890648110917e-01  9.7238872137520060e-01  9.9030657002172795e-01  9.9224764298199108e-01  9.9177882353898983e-01  9.8685794386861603e-01  9.7903112447431606e-01  9.7318164978178545e-01  9.7323100682317631e-01  9.7486035742422639e-01  9.7370303510862299e-01  9.6987062779073652e-01  9.6530625669349868e-01  9.6166457142206074e-01  9.5992751423852885e-01  9.6052066918725532e-01  9.6338880933768511e-01  9.6804097344260087e-01  9.7365911531093852e-01  9.7927942727533523e-01  9.8398697263326573e-01  9.8706310406031150e-01  9.8806508925996372e-01  9.8685461198088076e-01  9.8360231226230832e-01  9.7878053410375254e-01  9.7313169768744656e-01  9.6758487835072415e-01  9.6310401085000696e-01  9.6048884376833188e-01  9.6018993201803327e-01  9.6219748496240032e-01  9.6599691081613914e-01  9.7051131439975391e-01  9.7406317312016044e-01  9.7491215072686566e-01  9.7334805610048736e-01  9.7371300596616306e-01  9.7965382571949078e-01  9.8691652612523484e-01  9.9143305585490582e-01  9.9233966075882196e-01  9.8779266055863413e-01  9.9199897536328219e-01  9.9262876404205969e-01  9.9120577442659807e-01  9.8828823986477787e-01  9.8294504426392959e-01  9.7598745546225141e-01  9.7325074781243315e-01  9.7515297713130300e-01  9.7640090059653917e-01  9.7425481245522361e-01  9.6967042031836836e-01  9.6484360079971521e-01  9.6165869813427951e-01  9.6121773300950653e-01  9.6377882301221363e-01  9.6884937066024324e-01  9.7540330711419909e-01  9.8217920936405934e-01  9.8796996340416654e-01  9.9182821903865170e-01  9.9316878121075791e-01  9.9179882051997992e-01  9.8791938659542511e-01  9.8211891016137765e-01  9.7534205497163950e-01  9.6879174512665556e-01  9.6373019736343191e-01  9.6119097190198444e-01  9.6167281389179016e-01  9.6490840894123853e-01  9.6976518486568308e-01  9.7432487955021574e-01  9.7639740175410361e-01  9.7509816355556467e-01  9.7324115264415068e-01  9.7610068871105848e-01  9.8313096768796515e-01  9.8829392081142386e-01  9.9107249414547360e-01  9.9262689272471494e-01  9.9199414125527441e-01  9.8807576065358871e-01  9.9237489833300196e-01  9.9103634182357558e-01  9.8624996543313703e-01  9.7993998901708967e-01  9.7346383914018375e-01  9.7105749293906640e-01  9.7245710034322896e-01  9.7290265258521158e-01  9.7003130939215332e-01  9.6505720975052156e-01  9.6045225826004499e-01  9.5821666640269820e-01  9.5930293491995011e-01  9.6363743156810766e-01  9.7037835539551276e-01  9.7826331062587735e-01  9.8595299547785786e-01  9.9229143252943197e-01  9.9644343299530913e-01  9.9792531355722480e-01  9.9658217999895315e-01  9.9256684226986924e-01  9.8634644831515794e-01  9.7872112399776234e-01  9.7080539325723669e-01  9.6391582786155283e-01  9.5933510118514376e-01  9.5797354953497893e-01  9.5999842799163748e-01  9.6453311756447535e-01  9.6959236861961340e-01  9.7262807086268266e-01  9.7226900302679564e-01  9.7077845729470424e-01  9.7308722235666989e-01  9.7970706768164362e-01  9.8629733806705466e-01  9.9108102230742723e-01  9.9218203237024749e-01  9.9040038779104678e-01  9.7323298368162348e-01  9.9077941911900924e-01  9.8522645664769581e-01  9.7703273422227721e-01  9.7006864856102704e-01  9.6567673176735824e-01  9.6465847855633047e-01  9.6403504867582213e-01  9.6106789121611091e-01  9.5619099352477777e-01  9.5166232903535386e-01  9.4947235351576920e-01  9.5044506633079240e-01  9.5431773831453071e-01  9.6018074224318162e-01  9.6691160019386357e-01  9.7347959937887529e-01  9.7910865211827214e-01  9.8331995002423023e-01  9.8588699125503365e-01  9.8674532238427803e-01  9.8590457315897129e-01  9.8340273189436500e-01  9.7932172359657188e-01  9.7385677688941674e-01  9.6740922453453726e-01  9.6065900539303684e-01  9.5456814410100499e-01  9.5026482675320778e-01  9.4876254263228055e-01  9.5050625458102134e-01  9.5485967974533914e-01  9.5990340684763820e-01  9.6320873886424230e-01  9.6396136745332528e-01  9.6471248704101620e-01  9.6884054969464717e-01  9.7631757033388133e-01  9.8479665162769170e-01  9.8891103924069368e-01  9.7914621580321248e-01  5.7881518189284242e-01  9.8019617020277061e-01  9.8125318685962515e-01  9.6177528336008622e-01  9.5314043975891460e-01  9.4777786071499459e-01  9.4309426545299113e-01  9.3792961966784583e-01  9.3294372357234123e-01  9.2950339778517799e-01  9.2829713706484451e-01  9.2888186735746037e-01  9.3012663882351032e-01  9.3090312150666710e-01  9.3052926627324017e-01  9.2886696573417815e-01  9.2620571275134367e-01  9.2308248110161495e-01  9.2011614972370070e-01  9.1787529108969212e-01  9.1677772890171205e-01  9.1702175201315073e-01  9.1855247863888390e-01  9.2106606010960257e-01  9.2405202120590069e-01  9.2687474916835111e-01  9.2890017210421849e-01  9.2967528077004180e-01  9.2914685286219634e-01  9.2784309211581106e-01  9.2685803136211675e-01  9.2746941014795348e-01  9.3042093871795462e-01  9.3530617065341437e-01  9.4075422233252259e-01  9.4567763757995715e-01  9.5073580798603952e-01  9.5914594765899552e-01  9.7587778122289548e-01  9.7353322182208346e-01  8.6756181574315117e-01  1.1728940301640949e-01  1.4381608672238577e-01  7.2522093998483850e-01  8.5255258377293630e-01  8.7178918623381141e-01  8.7583350344963284e-01  8.7644504313299598e-01  8.7615928716769420e-01  8.7511715476959295e-01  8.7238476108467888e-01  8.6655481744183960e-01  8.5656296196153958e-01  8.4228725935101323e-01  8.2460350757218903e-01  8.0502510011174044e-01  7.8525117599878025e-01  7.6683826033541413e-01  7.5104287968572736e-01  7.3879032775038023e-01  7.3070710911361481e-01  7.2717011673327425e-01  7.2834548342713201e-01  7.3420399922864721e-01  7.4450803790167575e-01  7.5877089837054490e-01  7.7619784224672128e-01  7.9563253430166125e-01  8.1555363515286061e-01  8.3418658790909994e-01  8.4979182250188845e-01  8.6112139626705697e-01  8.6787789337028465e-01  8.7085075506549048e-01  8.7148170629840749e-01  8.7101380514215776e-01  8.6957088346307809e-01  8.6455823111244212e-01  8.4368269642665461e-01  7.3190654908442798e-01  1.6052747771926740e-01  1.3100966641552508e-01  1.1129127133587757e-01  8.3032953298938006e-02  1.3358585694284597e-01  2.8899452940284898e-01  4.8491595478041244e-01  5.9302194701399091e-01  6.4450221487067993e-01  6.6553105676836977e-01  6.6757818900959320e-01  6.5640310569792260e-01  6.3587496701491064e-01  6.0940328981175163e-01  5.8013207295698765e-01  5.5073460059142909e-01  5.2322630654543589e-01  4.9893416122306955e-01  4.7859546514004769e-01  4.6251992637464712e-01  4.5075847619542908e-01  4.4324474390504431e-01  4.3989549487027313e-01  4.4066974559988026e-01  4.4559126389107978e-01  4.5473748576266787e-01  4.6819334497808085e-01  4.8596543546000193e-01  5.0785396314564069e-01  5.3328899214351433e-01  5.6115319679153042e-01  5.8963366384173799e-01  6.1616325145243167e-01  6.3749813125533372e-01  6.4986225892300131e-01  6.4880852340307960e-01  6.2804270408594409e-01  5.7592483095574554e-01  4.6866202489295472e-01  2.8184283501797958e-01  1.3340857220074812e-01  8.6927238819718533e-02  1.1240363066016142e-01  1.1091134339972372e-01  7.5540592686276511e-02  1.0178590375427501e-01  1.2361079192159344e-01  1.5850802899285973e-01  2.0398429280211947e-01  2.4615992967972469e-01  2.7640657270517249e-01  2.9319255369304797e-01  2.9870082845182733e-01  2.9617126753442852e-01  2.8874820372995641e-01  2.7897625858198916e-01  2.6867202884679092e-01  2.5898224911592160e-01  2.5052897842739841e-01  2.4357354661207939e-01  2.3816222790586242e-01  2.3423728832175847e-01  2.3171150802240242e-01  2.3051216973359567e-01  2.3060296483150228e-01  2.3199070400816596e-01  2.3471992776625755e-01  2.3885403751270168e-01  2.4443766281437379e-01  2.5143291055937250e-01  2.5962331306812592e-01  2.6848498171620444e-01  2.7703570128325250e-01  2.8369086250586395e-01  2.8618175134362200e-01  2.8162644351825750e-01  2.6690010666823882e-01  2.3963130227435658e-01  2.0054369855555870e-01  1.5721085176021415e-01  1.2348113093582463e-01  1.0226550875701584e-01  7.6215000239595460e-02  1.1122405846522322e-01  1.1051066832761333e-01  7.2412480127945461e-02  9.0751725602352784e-02  1.0461384044942168e-01  1.1731789252048458e-01  1.2953086919565246e-01  1.4072196565750750e-01  1.4990072450981545e-01  1.5646453558558276e-01  1.6034148516940547e-01  1.6189264208153448e-01  1.6172307732996155e-01  1.6047698126176363e-01  1.5870338749859414e-01  1.5679941738810044e-01  1.5501337532294307e-01  1.5347735242885641e-01  1.5224673790375895e-01  1.5133419782260546e-01  1.5073393036473887e-01  1.5043658509272229e-01  1.5043692380965545e-01  1.5073615986046102e-01  1.5133988333806186e-01  1.5225119724333339e-01  1.5345763368375490e-01  1.5491012775497007e-01  1.5649355596491563e-01  1.5799201385106418e-01  1.5905870092291774e-01  1.5920899987651560e-01  1.5786121452901283e-01  1.5444209332695610e-01  1.4854470498848765e-01  1.4009198826129060e-01  1.2946090765109555e-01  1.1747995078947815e-01  1.0494777006435646e-01  9.1327793432614129e-02  7.3029321947123374e-02  1.1073253333535631e-01  1.1019836659518926e-01  7.0691822356727663e-02  8.4786400026189659e-02  9.4127978267462983e-02  1.0178119242520897e-01  1.0824471231496043e-01  1.1365131982619919e-01  1.1799688135045622e-01  1.2125682182717165e-01  1.2345364007159279e-01  1.2470409450583807e-01  1.2520028025557378e-01  1.2516346415293692e-01  1.2480064809139130e-01  1.2427834845357105e-01  1.2371548398053432e-01  1.2318848282855839e-01  1.2274168003919153e-01  1.2239810360534252e-01  1.2216824022486733e-01  1.2205605746283384e-01  1.2206240343181338e-01  1.2218611885643478e-01  1.2242306372739434e-01  1.2276301440357831e-01  1.2318422867703650e-01  1.2364561470142940e-01  1.2407711098911267e-01  1.2437029023215762e-01  1.2437327529148159e-01  1.2389599681900443e-01  1.2273147597499534e-01  1.2069276067660231e-01  1.1765148673960960e-01  1.1355015314706024e-01  1.0836774290607290e-01  1.0205970568363629e-01  9.4497219109479474e-02  8.5196902824627163e-02  7.1070469242391188e-02  1.1039113749048954e-01  1.0987211857477774e-01  6.9204326484613221e-02  8.0505680892472106e-02  8.6902535189480684e-02  9.1666095502315845e-02  9.5512056935643616e-02  9.8724209382510114e-02  1.0140024655050214e-01  1.0354833701379004e-01  1.0517055755397565e-01  1.0630147280850008e-01  1.0701027119342978e-01  1.0738717917731513e-01  1.0752562633905287e-01  1.0750918631522441e-01  1.0740521536841227e-01  1.0726375182802034e-01  1.0711952900324612e-01  1.0699517620511759e-01  1.0690438160459580e-01  1.0685437518024615e-01  1.0684747952959135e-01  1.0688167060996362e-01  1.0695016024461886e-01  1.0704003479784982e-01  1.0713003759033107e-01  1.0718773991243609e-01  1.0716666773984244e-01  1.0700445387491324e-01  1.0662366268884226e-01  1.0593723442451472e-01  1.0485978342168686e-01  1.0332319620028171e-01  1.0128934856650898e-01  9.8745841795754893e-02  9.5668520239814397e-02  9.1944832211648869e-02  8.7266357823549676e-02  8.0855270433624171e-02  6.9524386009137129e-02  1.1007175729150201e-01  1.0953898658100703e-01  6.7832649477952700e-02  7.7106992241843517e-02  8.1641829757880230e-02  8.4673998069868500e-02  8.7037119684391651e-02  8.9043143214598580e-02  9.0784279280572755e-02  9.226710938