<?xml version="1.0"?>
<VTKFile type="UnstructuredGrid"  version="0.1"  >
<UnstructuredGrid>
<Piece  NumberOfPoints="1681" NumberOfCells="3200">
<Points>
<DataArray  type="Float64"  NumberOfComponents="3"  format="ascii">0 0 0  0.025 0 0  0.05 0 0  0.075 0 0  0.1 0 0  0.125 0 0  0.15 0 0  0.175 0 0  0.2 0 0  0.225 0 0  0.25 0 0  0.275 0 0  0.3 0 0  0.325 0 0  0.35 0 0  0.375 0 0  0.4 0 0  0.425 0 0  0.45 0 0  0.475 0 0  0.5 0 0  0.525 0 0  0.55 0 0  0.575 0 0  0.6 0 0  0.625 0 0  0.65 0 0  0.675 0 0  0.7 0 0  0.725 0 0  0.75 0 0  0.775 0 0  0.8 0 0  0.825 0 0  0.85 0 0  0.875 0 0  0.9 0 0  0.925 0 0  0.95 0 0  0.975 0 0  1 0 0  0 0.025 0  0.025 0.025 0  0.05 0.025 0  0.075 0.025 0  0.1 0.025 0  0.125 0.025 0  0.15 0.025 0  0.175 0.025 0  0.2 0.025 0  0.225 0.025 0  0.25 0.025 0  0.275 0.025 0  0.3 0.025 0  0.325 0.025 0  0.35 0.025 0  0.375 0.025 0  0.4 0.025 0  0.425 0.025 0  0.45 0.025 0  0.475 0.025 0  0.5 0.025 0  0.525 0.025 0  0.55 0.025 0  0.575 0.025 0  0.6 0.025 0  0.625 0.025 0  0.65 0.025 0  0.675 0.025 0  0.7 0.025 0  0.725 0.025 0  0.75 0.025 0  0.775 0.025 0  0.8 0.025 0  0.825 0.025 0  0.85 0.025 0  0.875 0.025 0  0.9 0.025 0  0.925 0.025 0  0.95 0.025 0  0.975 0.025 0  1 0.025 0  0 0.05 0  0.025 0.05 0  0.05 0.05 0  0.075 0.05 0  0.1 0.05 0  0.125 0.05 0  0.15 0.05 0  0.175 0.05 0  0.2 0.05 0  0.225 0.05 0  0.25 0.05 0  0.275 0.05 0  0.3 0.05 0  0.325 0.05 0  0.35 0.05 0  0.375 0.05 0  0.4 0.05 0  0.425 0.05 0  0.45 0.05 0  0.475 0.05 0  0.5 0.05 0  0.525 0.05 0  0.55 0.05 0  0.575 0.05 0  0.6 0.05 0  0.625 0.05 0  0.65 0.05 0  0.675 0.05 0  0.7 0.05 0  0.725 0.05 0  0.75 0.05 0  0.775 0.05 0  0.8 0.05 0  0.825 0.05 0  0.85 0.05 0  0.875 0.05 0  0.9 0.05 0  0.925 0.05 0  0.95 0.05 0  0.975 0.05 0  1 0.05 0  0 0.075 0  0.025 0.075 0  0.05 0.075 0  0.075 0.075 0  0.1 0.075 0  0.125 0.075 0  0.15 0.075 0  0.175 0.075 0  0.2 0.075 0  0.225 0.075 0  0.25 0.075 0  0.275 0.075 0  0.3 0.075 0  0.325 0.075 0  0.35 0.075 0  0.375 0.075 0  0.4 0.075 0  0.425 0.075 0  0.45 0.075 0  0.475 0.075 0  0.5 0.075 0  0.525 0.075 0  0.55 0.075 0  0.575 0.075 0  0.6 0.075 0  0.625 0.075 0  0.65 0.075 0  0.675 0.075 0  0.7 0.075 0  0.725 0.075 0  0.75 0.075 0  0.775 0.075 0  0.8 0.075 0  0.825 0.075 0  0.85 0.075 0  0.875 0.075 0  0.9 0.075 0  0.925 0.075 0  0.95 0.075 0  0.975 0.075 0  1 0.075 0  0 0.1 0  0.025 0.1 0  0.05 0.1 0  0.075 0.1 0  0.1 0.1 0  0.125 0.1 0  0.15 0.1 0  0.175 0.1 0  0.2 0.1 0  0.225 0.1 0  0.25 0.1 0  0.275 0.1 0  0.3 0.1 0  0.325 0.1 0  0.35 0.1 0  0.375 0.1 0  0.4 0.1 0  0.425 0.1 0  0.45 0.1 0  0.475 0.1 0  0.5 0.1 0  0.525 0.1 0  0.55 0.1 0  0.575 0.1 0  0.6 0.1 0  0.625 0.1 0  0.65 0.1 0  0.675 0.1 0  0.7 0.1 0  0.725 0.1 0  0.75 0.1 0  0.775 0.1 0  0.8 0.1 0  0.825 0.1 0  0.85 0.1 0  0.875 0.1 0  0.9 0.1 0  0.925 0.1 0  0.95 0.1 0  0.975 0.1 0  1 0.1 0  0 0.125 0  0.025 0.125 0  0.05 0.125 0  0.075 0.125 0  0.1 0.125 0  0.125 0.125 0  0.15 0.125 0  0.175 0.125 0  0.2 0.125 0  0.225 0.125 0  0.25 0.125 0  0.275 0.125 0  0.3 0.125 0  0.325 0.125 0  0.35 0.125 0  0.375 0.125 0  0.4 0.125 0  0.425 0.125 0  0.45 0.125 0  0.475 0.125 0  0.5 0.125 0  0.525 0.125 0  0.55 0.125 0  0.575 0.125 0  0.6 0.125 0  0.625 0.125 0  0.65 0.125 0  0.675 0.125 0  0.7 0.125 0  0.725 0.125 0  0.75 0.125 0  0.775 0.125 0  0.8 0.125 0  0.825 0.125 0  0.85 0.125 0  0.875 0.125 0  0.9 0.125 0  0.925 0.125 0  0.95 0.125 0  0.975 0.125 0  1 0.125 0  0 0.15 0  0.025 0.15 0  0.05 0.15 0  0.075 0.15 0  0.1 0.15 0  0.125 0.15 0  0.15 0.15 0  0.175 0.15 0  0.2 0.15 0  0.225 0.15 0  0.25 0.15 0  0.275 0.15 0  0.3 0.15 0  0.325 0.15 0  0.35 0.15 0  0.375 0.15 0  0.4 0.15 0  0.425 0.15 0  0.45 0.15 0  0.475 0.15 0  0.5 0.15 0  0.525 0.15 0  0.55 0.15 0  0.575 0.15 0  0.6 0.15 0  0.625 0.15 0  0.65 0.15 0  0.675 0.15 0  0.7 0.15 0  0.725 0.15 0  0.75 0.15 0  0.775 0.15 0  0.8 0.15 0  0.825 0.15 0  0.85 0.15 0  0.875 0.15 0  0.9 0.15 0  0.925 0.15 0  0.95 0.15 0  0.975 0.15 0  1 0.15 0  0 0.175 0  0.025 0.175 0  0.05 0.175 0  0.075 0.175 0  0.1 0.175 0  0.125 0.175 0  0.15 0.175 0  0.175 0.175 0  0.2 0.175 0  0.225 0.175 0  0.25 0.175 0  0.275 0.175 0  0.3 0.175 0  0.325 0.175 0  0.35 0.175 0  0.375 0.175 0  0.4 0.175 0  0.425 0.175 0  0.45 0.175 0  0.475 0.175 0  0.5 0.175 0  0.525 0.175 0  0.55 0.175 0  0.575 0.175 0  0.6 0.175 0  0.625 0.175 0  0.65 0.175 0  0.675 0.175 0  0.7 0.175 0  0.725 0.175 0  0.75 0.175 0  0.775 0.175 0  0.8 0.175 0  0.825 0.175 0  0.85 0.175 0  0.875 0.175 0  0.9 0.175 0  0.925 0.175 0  0.95 0.175 0  0.975 0.175 0  1 0.175 0  0 0.2 0  0.025 0.2 0  0.05 0.2 0  0.075 0.2 0  0.1 0.2 0  0.125 0.2 0  0.15 0.2 0  0.175 0.2 0  0.2 0.2 0  0.225 0.2 0  0.25 0.2 0  0.275 0.2 0  0.3 0.2 0  0.325 0.2 0  0.35 0.2 0  0.375 0.2 0  0.4 0.2 0  0.425 0.2 0  0.45 0.2 0  0.475 0.2 0  0.5 0.2 0  0.525 0.2 0  0.55 0.2 0  0.575 0.2 0  0.6 0.2 0  0.625 0.2 0  0.65 0.2 0  0.675 0.2 0  0.7 0.2 0  0.725 0.2 0  0.75 0.2 0  0.775 0.2 0  0.8 0.2 0  0.825 0.2 0  0.85 0.2 0  0.875 0.2 0  0.9 0.2 0  0.925 0.2 0  0.95 0.2 0  0.975 0.2 0  1 0.2 0  0 0.225 0  0.025 0.225 0  0.05 0.225 0  0.075 0.225 0  0.1 0.225 0  0.125 0.225 0  0.15 0.225 0  0.175 0.225 0  0.2 0.225 0  0.225 0.225 0  0.25 0.225 0  0.275 0.225 0  0.3 0.225 0  0.325 0.225 0  0.35 0.225 0  0.375 0.225 0  0.4 0.225 0  0.425 0.225 0  0.45 0.225 0  0.475 0.225 0  0.5 0.225 0  0.525 0.225 0  0.55 0.225 0  0.575 0.225 0  0.6 0.225 0  0.625 0.225 0  0.65 0.225 0  0.675 0.225 0  0.7 0.225 0  0.725 0.225 0  0.75 0.225 0  0.775 0.225 0  0.8 0.225 0  0.825 0.225 0  0.85 0.225 0  0.875 0.225 0  0.9 0.225 0  0.925 0.225 0  0.95 0.225 0  0.975 0.225 0  1 0.225 0  0 0.25 0  0.025 0.25 0  0.05 0.25 0  0.075 0.25 0  0.1 0.25 0  0.125 0.25 0  0.15 0.25 0  0.175 0.25 0  0.2 0.25 0  0.225 0.25 0  0.25 0.25 0  0.275 0.25 0  0.3 0.25 0  0.325 0.25 0  0.35 0.25 0  0.375 0.25 0  0.4 0.25 0  0.425 0.25 0  0.45 0.25 0  0.475 0.25 0  0.5 0.25 0  0.525 0.25 0  0.55 0.25 0  0.575 0.25 0  0.6 0.25 0  0.625 0.25 0  0.65 0.25 0  0.675 0.25 0  0.7 0.25 0  0.725 0.25 0  0.75 0.25 0  0.775 0.25 0  0.8 0.25 0  0.825 0.25 0  0.85 0.25 0  0.875 0.25 0  0.9 0.25 0  0.925 0.25 0  0.95 0.25 0  0.975 0.25 0  1 0.25 0  0 0.275 0  0.025 0.275 0  0.05 0.275 0  0.075 0.275 0  0.1 0.275 0  0.125 0.275 0  0.15 0.275 0  0.175 0.275 0  0.2 0.275 0  0.225 0.275 0  0.25 0.275 0  0.275 0.275 0  0.3 0.275 0  0.325 0.275 0  0.35 0.275 0  0.375 0.275 0  0.4 0.275 0  0.425 0.275 0  0.45 0.275 0  0.475 0.275 0  0.5 0.275 0  0.525 0.275 0  0.55 0.275 0  0.575 0.275 0  0.6 0.275 0  0.625 0.275 0  0.65 0.275 0  0.675 0.275 0  0.7 0.275 0  0.725 0.275 0  0.75 0.275 0  0.775 0.275 0  0.8 0.275 0  0.825 0.275 0  0.85 0.275 0  0.875 0.275 0  0.9 0.275 0  0.925 0.275 0  0.95 0.275 0  0.975 0.275 0  1 0.275 0  0 0.3 0  0.025 0.3 0  0.05 0.3 0  0.075 0.3 0  0.1 0.3 0  0.125 0.3 0  0.15 0.3 0  0.175 0.3 0  0.2 0.3 0  0.225 0.3 0  0.25 0.3 0  0.275 0.3 0  0.3 0.3 0  0.325 0.3 0  0.35 0.3 0  0.375 0.3 0  0.4 0.3 0  0.425 0.3 0  0.45 0.3 0  0.475 0.3 0  0.5 0.3 0  0.525 0.3 0  0.55 0.3 0  0.575 0.3 0  0.6 0.3 0  0.625 0.3 0  0.65 0.3 0  0.675 0.3 0  0.7 0.3 0  0.725 0.3 0  0.75 0.3 0  0.775 0.3 0  0.8 0.3 0  0.825 0.3 0  0.85 0.3 0  0.875 0.3 0  0.9 0.3 0  0.925 0.3 0  0.95 0.3 0  0.975 0.3 0  1 0.3 0  0 0.325 0  0.025 0.325 0  0.05 0.325 0  0.075 0.325 0  0.1 0.325 0  0.125 0.325 0  0.15 0.325 0  0.175 0.325 0  0.2 0.325 0  0.225 0.325 0  0.25 0.325 0  0.275 0.325 0  0.3 0.325 0  0.325 0.325 0  0.35 0.325 0  0.375 0.325 0  0.4 0.325 0  0.425 0.325 0  0.45 0.325 0  0.475 0.325 0  0.5 0.325 0  0.525 0.325 0  0.55 0.325 0  0.575 0.325 0  0.6 0.325 0  0.625 0.325 0  0.65 0.325 0  0.675 0.325 0  0.7 0.325 0  0.725 0.325 0  0.75 0.325 0  0.775 0.325 0  0.8 0.325 0  0.825 0.325 0  0.85 0.325 0  0.875 0.325 0  0.9 0.325 0  0.925 0.325 0  0.95 0.325 0  0.975 0.325 0  1 0.325 0  0 0.35 0  0.025 0.35 0  0.05 0.35 0  0.075 0.35 0  0.1 0.35 0  0.125 0.35 0  0.15 0.35 0  0.175 0.35 0  0.2 0.35 0  0.225 0.35 0  0.25 0.35 0  0.275 0.35 0  0.3 0.35 0  0.325 0.35 0  0.35 0.35 0  0.375 0.35 0  0.4 0.35 0  0.425 0.35 0  0.45 0.35 0  0.475 0.35 0  0.5 0.35 0  0.525 0.35 0  0.55 0.35 0  0.575 0.35 0  0.6 0.35 0  0.625 0.35 0  0.65 0.35 0  0.675 0.35 0  0.7 0.35 0  0.725 0.35 0  0.75 0.35 0  0.775 0.35 0  0.8 0.35 0  0.825 0.35 0  0.85 0.35 0  0.875 0.35 0  0.9 0.35 0  0.925 0.35 0  0.95 0.35 0  0.975 0.35 0  1 0.35 0  0 0.375 0  0.025 0.375 0  0.05 0.375 0  0.075 0.375 0  0.1 0.375 0  0.125 0.375 0  0.15 0.375 0  0.175 0.375 0  0.2 0.375 0  0.225 0.375 0  0.25 0.375 0  0.275 0.375 0  0.3 0.375 0  0.325 0.375 0  0.35 0.375 0  0.375 0.375 0  0.4 0.375 0  0.425 0.375 0  0.45 0.375 0  0.475 0.375 0  0.5 0.375 0  0.525 0.375 0  0.55 0.375 0  0.575 0.375 0  0.6 0.375 0  0.625 0.375 0  0.65 0.375 0  0.675 0.375 0  0.7 0.375 0  0.725 0.375 0  0.75 0.375 0  0.775 0.375 0  0.8 0.375 0  0.825 0.375 0  0.85 0.375 0  0.875 0.375 0  0.9 0.375 0  0.925 0.375 0  0.95 0.375 0  0.975 0.375 0  1 0.375 0  0 0.4 0  0.025 0.4 0  0.05 0.4 0  0.075 0.4 0  0.1 0.4 0  0.125 0.4 0  0.15 0.4 0  0.175 0.4 0  0.2 0.4 0  0.225 0.4 0  0.25 0.4 0  0.275 0.4 0  0.3 0.4 0  0.325 0.4 0  0.35 0.4 0  0.375 0.4 0  0.4 0.4 0  0.425 0.4 0  0.45 0.4 0  0.475 0.4 0  0.5 0.4 0  0.525 0.4 0  0.55 0.4 0  0.575 0.4 0  0.6 0.4 0  0.625 0.4 0  0.65 0.4 0  0.675 0.4 0  0.7 0.4 0  0.725 0.4 0  0.75 0.4 0  0.775 0.4 0  0.8 0.4 0  0.825 0.4 0  0.85 0.4 0  0.875 0.4 0  0.9 0.4 0  0.925 0.4 0  0.95 0.4 0  0.975 0.4 0  1 0.4 0  0 0.425 0  0.025 0.425 0  0.05 0.425 0  0.075 0.425 0  0.1 0.425 0  0.125 0.425 0  0.15 0.425 0  0.175 0.425 0  0.2 0.425 0  0.225 0.425 0  0.25 0.425 0  0.275 0.425 0  0.3 0.425 0  0.325 0.425 0  0.35 0.425 0  0.375 0.425 0  0.4 0.425 0  0.425 0.425 0  0.45 0.425 0  0.475 0.425 0  0.5 0.425 0  0.525 0.425 0  0.55 0.425 0  0.575 0.425 0  0.6 0.425 0  0.625 0.425 0  0.65 0.425 0  0.675 0.425 0  0.7 0.425 0  0.725 0.425 0  0.75 0.425 0  0.775 0.425 0  0.8 0.425 0  0.825 0.425 0  0.85 0.425 0  0.875 0.425 0  0.9 0.425 0  0.925 0.425 0  0.95 0.425 0  0.975 0.425 0  1 0.425 0  0 0.45 0  0.02
[...]
<PointData  Scalars="ControlVisualisation"> 
<DataArray  type="Float64"  Name="ControlVisualisation"  format="ascii">4.4328101790688129e-01  4.2755085005730742e-01  4.2755146107636294e-01  4.2755922986807821e-01  4.2757616761278572e-01  4.2760211324815584e-01  4.2763654776131566e-01  4.2767898812904198e-01  4.2772898958648076e-01  4.2778610750700646e-01  4.2784988946389407e-01  4.2791988402422665e-01  4.2799565448260007e-01  4.2807679094628948e-01  4.2816291738262380e-01  4.2825369161889926e-01  4.2834879651573743e-01  4.2844792024422002e-01  4.2855072292126417e-01  4.2865678581284877e-01  4.2876553788609217e-01  4.2887615270099666e-01  4.2898740663824081e-01  4.2909748773010409e-01  4.2920374400856176e-01  4.2930236372063918e-01  4.2938799160997332e-01  4.2945331461724096e-01  4.2948871016664530e-01  4.2948216228022956e-01  4.2941983323804089e-01  4.2928790599767674e-01  4.2907654078810059e-01  4.2878648511447537e-01  4.2843752832557686e-01  4.2807528084519475e-01  4.2776648171187859e-01  4.2757573107735941e-01  4.2752222358808267e-01  4.2754279622279229e-01  4.5906981875994768e-01  4.2755084436432034e-01  3.8082665532333776e-01  3.8087428903067555e-01  3.8099854219260942e-01  3.8122212972519465e-01  3.8154847055452334e-01  3.8197334573880376e-01  3.8249121229540284e-01  3.8309639839138765e-01  3.8378313542123110e-01  3.8454557118790894e-01  3.8537787444540661e-01  3.8627438006089571e-01  3.8722971538194356e-01  3.8823887281971770e-01  3.8929720640012822e-01  3.9040033388369733e-01  3.9154392464934412e-01  3.9272334819607541e-01  3.9393314936840546e-01  3.9516630441441353e-01  3.9641319725588875e-01  3.9766023959279712e-01  3.9888804601412764e-01  4.0006907573054834e-01  4.0116468551908357e-01  4.0212164082216229e-01  4.0286837078885462e-01  4.0331173008321497e-01  4.0333591061471019e-01  4.0280653760915308e-01  4.0158492651030780e-01  3.9955939243002042e-01  3.9669934418753061e-01  3.9313138914869111e-01  3.8921156835973197e-01  3.8552483408072769e-01  3.8273317155198611e-01  3.8121123689999054e-01  3.8076616935607871e-01  4.2754249800726196e-01  4.2755141307016070e-01  3.8087434748944954e-01  3.8106405473040755e-01  3.8141181854370809e-01  3.8196276097799226e-01  3.8273781619321046e-01  3.8373525676542836e-01  3.8494508128429927e-01  3.8635463259526787e-01  3.8795035824046364e-01  3.8971837699866346e-01  3.9164486599943560e-01  3.9371641543941993e-01  3.9592031298700370e-01  3.9824470677952611e-01  4.0067860273318001e-01  4.0321165777429424e-01  4.0583372844596000e-01  4.0853412480939966e-01  4.1130050327197132e-01  4.1411730946557274e-01  4.1696365500305727e-01  4.1981048359397244e-01  4.2261686123095327e-01  4.2532522998097050e-01  4.2785553052505404e-01  4.3009828834405373e-01  4.3190718311704157e-01  4.3309244324443330e-01  4.3341788625656796e-01  4.3260671653935784e-01  4.3036463981652351e-01  4.2643210815542143e-01  4.2067885976233138e-01  4.1324721166987843e-01  4.0470717836884995e-01  3.9612854556983601e-01  3.8884904854145541e-01  3.8378318920819554e-01  3.8114687388080093e-01  4.2751297475870109e-01  4.2755911012501119e-01  3.8099958620581031e-01  3.8141507523159179e-01  3.8197759192588299e-01  3.8275060540127476e-01  3.8379033543423086e-01  3.8511127986941024e-01  3.8670723906737015e-01  3.8856402395151635e-01  3.9066463049610012e-01  3.9299114093869680e-01  3.9552565761253805e-01  3.9825089874323577e-01  4.0115061759546988e-01  4.0420984498243112e-01  4.0741492089041187e-01  4.1075327503172271e-01  4.1421291052432413e-01  4.1778153375602567e-01  4.2144525503537827e-01  4.2518675909308784e-01  4.2898281353989187e-01  4.3280095129504970e-01  4.3659513918781434e-01  4.4030024825821457e-01  4.4382520688985927e-01  4.4704490634919919e-01  4.4979133992915676e-01  4.5184522733650934e-01  4.5293072445581090e-01  4.5271782841554514e-01  4.5084028452609193e-01  4.4693960096423141e-01  4.4075127989237317e-01  4.3224256839090147e-01  4.2178946023050939e-01  4.1032596262822379e-01  3.9914520919033725e-01  3.8941384568333071e-01  3.8250427760498867e-01  4.2751483807072005e-01  4.2757611108632732e-01  3.8122769483184937e-01  3.8197907272066245e-01  3.8276817952588410e-01  3.8369019884006789e-01  3.8486010924718578e-01  3.8632114988671107e-01  3.8807753230462277e-01  3.9011779562286397e-01  3.9242477890735233e-01  3.9497948584601306e-01  3.9776278755123962e-01  4.0075633432320873e-01  4.0394313241477292e-01  4.0730788573865989e-01  4.1083710806289653e-01  4.1451898183687119e-01  4.1834292865543227e-01  4.2229884524167449e-01  4.2637594255184280e-01  4.3056110350809795e-01  4.3483664831692803e-01  4.3917736916686007e-01  4.4354667618379595e-01  4.4789169852666216e-01  4.5213723364039504e-01  4.5617857366556414e-01  4.5987351727674142e-01  4.6303435574808904e-01  4.6542138505104158e-01  4.6674040630902364e-01  4.6664808008869546e-01  4.6476907981951882e-01  4.6073302579782466e-01  4.5422547934045410e-01  4.4506654198016360e-01  4.3322535149846630e-01  4.1867611680981115e-01  4.0172459975442504e-01  3.8587096945580518e-01  4.2759449597073818e-01  4.2760261325068816e-01  3.8156699192946425e-01  3.8278876506825982e-01  3.8385495144886128e-01  3.8491140668664597e-01  3.8615966432495658e-01  3.8768410434901696e-01  3.8950419743014142e-01  3.9161339395309480e-01  3.9399570611527585e-01  3.9663212895612088e-01  3.9950329960059144e-01  4.0259080349041948e-01  4.0587794387223503e-01  4.0935021107965924e-01  4.1299551316652627e-01  4.1680417286386107e-01  4.2076867931713158e-01  4.2488317375155704e-01  4.2914263804419112e-01  4.3354174251471889e-01  4.3807329557428082e-01  4.4272622705153519e-01  4.4748303584894655e-01  4.5231665196343190e-01  4.5718671853224396e-01  4.6203541037753632e-01  4.6678308371370564e-01  4.7132427669242088e-01  4.7552475185286297e-01  4.7921996538198097e-01  4.8221425891300695e-01  4.8427492671128447e-01  4.8510908484997572e-01  4.8427625457076912e-01  4.8098734945637478e-01  4.7350788042017689e-01  4.5838071314662210e-01  4.3028824174209396e-01  3.9371672434538674e-01  4.2764734338860022e-01  4.2763864606592084e-01  3.8202048182923543e-01  3.8385975184234089e-01  3.8527526776221505e-01  3.8648186822969655e-01  3.8779656189040401e-01  3.8935819241166386e-01  3.9120622632204599e-01  3.9334051831960204e-01  3.9574675007179766e-01  3.9840613691841403e-01  4.0129927458962755e-01  4.0440791441736396e-01  4.0771595398915444e-01  4.1121005319534049e-01  4.1488000430018473e-01  4.1871889871042967e-01  4.2272311075199764e-01  4.2689211299281382e-01  4.3122813672341859e-01  4.3573569301351184e-01  4.4042097703020650e-01  4.4529119668614192e-01  4.5035390508650242e-01  4.5561648756518730e-01  4.6108607531940721e-01  4.6677034647691718e-01  4.7267993656219526e-01  4.7883346961818785e-01  4.8526633080699394e-01  4.9204361446255962e-01  4.9927477775317902e-01  5.0711698846960407e-01  5.1573237635764313e-01  5.2508763445027684e-01  5.3440274196585547e-01  5.4075443621382580e-01  5.3703381721366317e-01  5.0745190395394280e-01  4.3533267286962257e-01  4.2982976224692804e-01  4.2768446385208414e-01  3.8259214543219910e-01  3.8520481501805387e-01  3.8705327534937767e-01  3.8843907876477202e-01  3.8982400449093396e-01  3.9141541149023729e-01  3.9327791422436015e-01  3.9541934644558763e-01  3.9782743230994522e-01  4.0048364217601529e-01  4.0336852169127962e-01  4.0646402418718919e-01  4.0975474782823940e-01  4.1322870457319427e-01  4.1687783220872865e-01  4.2069833732690420e-01  4.2469092658614610e-01  4.2886098185736560e-01  4.3321874466262400e-01  4.3777959472583616e-01  4.4256454154215147e-01  4.4760110630796845e-01  4.5292486963636192e-01  4.5858212145682892e-01  4.6463430766051639e-01  4.7116537057028651e-01  4.7829368185251120e-01  4.8619109411272526e-01  4.9511255229323381e-01  5.0544003482649524e-01  5.1774167669114313e-01  5.3283273967730560e-01  5.5178065619302319e-01  5.7565517098856578e-01  6.0463857090011364e-01  6.3592361955744670e-01  6.6182815829346031e-01  6.6631528511196003e-01  6.5002007638502179e-01  5.0311853374306603e-01  4.2774055344987166e-01  3.8328819039446288e-01  3.8683961075361983e-01  3.8921255607289684e-01  3.9081324392345640e-01  3.9227820834678762e-01  3.9389801524882179e-01  3.9576809118419420e-01  3.9790613217822945e-01  4.0030241649961956e-01  4.0293876270277929e-01  4.0579568510091940e-01  4.0885539098418894e-01  4.1210328842156579e-01  4.1552890204596749e-01  4.1912651158314312e-01  4.2289565368455007e-01  4.2684158459996274e-01  4.3097580177550709e-01  4.3531674227876049e-01  4.3989081326542756e-01  4.4473397244812568e-01  4.4989417992772213e-01  4.5543521167601236e-01  4.6144259947337990e-01  4.6803290668130593e-01  4.7536826567167279e-01  4.8367924208022128e-01  4.9330083481571418e-01  5.0472883449848882e-01  5.1870613614361838e-01  5.3634695849795166e-01  5.5928734122817003e-01  5.8976531893887341e-01  6.3027291976039146e-01  6.8194402770731821e-01  7.4082037134122047e-01  7.9656871810490848e-01  8.3262942391458217e-01  8.8449457525739450e-01  7.5987305713835562e-01  4.2780760771682702e-01  3.8411722950190019e-01  3.8878476434757714e-01  3.9178168954773274e-01  3.9363747138089911e-01  3.9519470839114257e-01  3.9684271055822962e-01  3.9871394245844360e-01  4.0083820495278827e-01  4.0320906928974443e-01  4.0580895136094097e-01  4.0861847206185969e-01  4.1162024119285695e-01  4.1480065679953410e-01  4.1815094949282094e-01  4.2166791450745583e-01  4.2535453302888820e-01  4.2922062198301647e-01  4.3328365017107090e-01  4.3756988532298646e-01  4.4211608877446817e-01  4.4697206243722282e-01  4.5220449715641692e-01  4.5790280704252068e-01  4.6418801856967529e-01  4.7122641269380228e-01  4.7925065299307235e-01  4.8859282534434928e-01  4.9973650655300966e-01  5.1339890671432309e-01  5.3065837034147767e-01  5.5314106406635077e-01  5.8324861965564578e-01  6.2425954858780763e-01  6.7966462280142115e-01  7.5007951041504961e-01  8.2640641875809662e-01  8.8886215796959189e-01  9.2017323936270412e-01  9.4036655249290391e-01  8.7175152644982046e-01  4.2788653852326070e-01  3.8509056228166438e-01  3.9106708428405451e-01  3.9479702846485137e-01  3.9695251983768165e-01  3.9861542407190331e-01  4.0029049567094377e-01  4.0215417131938835e-01  4.0425104025250608e-01  4.0657900331415714e-01  4.0912154847718507e-01  4.1185972756173284e-01  4.1477685602767433e-01  4.1786061759602311e-01  4.2110420550240518e-01  4.2450709889769978e-01  4.2807574587475072e-01  4.3182433350416011e-01  4.3577581592373932e-01  4.3996339976798265e-01  4.4443274695000584e-01  4.4924525934075005e-01  4.5448298209912041e-01  4.6025594311865609e-01  4.6671320420587886e-01  4.7405965184789195e-01  4.8258179635876752e-01  4.9268788441282213e-01  5.0497086672570746e-01  5.2030740609671111e-01  5.4001068134592689e-01  5.6605032174638115e-01  6.0130233660505206e-01  6.4957255990102003e-01  7.1444034460707706e-01  7.9457736654544575e-01  8.7454555204186679e-01  9.2652562169605279e-01  9.4224438027235857e-01  9.5458685611392435e-01  8.9307451127911608e-01  4.2797852038944545e-01  3.8622272346682329e-01  3.9372102553019511e-01  3.9830511808174379e-01  4.0081011399538868e-01  4.0259277790619308e-01  4.0429156822754087e-01  4.0613478377996448e-01  4.0818508319940205e-01  4.1044614846995825e-01  4.1290334199040329e-01  4.1553874716372002e-01  4.1833691643350990e-01  4.2128728491109418e-01  4.2438536383300635e-01  4.2763349979707571e-01  4.3104155033102731e-01  4.3462769460995848e-01  4.3841957318662944e-01  4.4245597370430068e-01  4.4678934071824955e-01  4.5148949668546212e-01  4.5664914131022549e-01  4.6239198855579289e-01  4.6888487354435271e-01  4.7635593027436207e-01  4.8512219259515194e-01  4.9563198456567681e-01  5.0853055748278397e-01  5.2476152196386361e-01  5.4571937764829725e-01  5.7345827785274195e-01  6.1089512592293482e-01  6.6168405766742988e-01  7.2867059526362687e-01  8.0860399357324153e-01  8.8323210491460569e-01  9.2417630622430580e-01  9.3070634157838550e-01  9.4437826407834924e-01  8.7926328455325053e-01  4.2808505847601619e-01  3.8753231822161960e-01  3.9679071869670146e-01  4.0236561471149812e-01  4.0527642098442473e-01  4.0719342756639643e-01  4.0890908195207915e-01  4.1071274743406727e-01  4.1268929462758308e-01  4.1485025847545864e-01  4.1718417371441341e-01  4.1967516800106897e-01  4.2230989266816982e-01  4.2508023923487759e-01  4.2798453172651463e-01  4.3102820395139380e-01  4.3422439956402098e-01  4.3759474649916213e-01  4.4117050876490116e-01  4.4499432997790728e-01  4.4912283649688545e-01  4.5363046867350648e-01  4.5861507542369545e-01  4.6420607399991981e-01  4.7057639999027079e-01  4.7796014302040640e-01  4.8667881898396137e-01  4.9718084603713752e-01  5.1010106758974350e-01  5.2634958135428567e-01  5.4723851964873804e-01  5.7463909074137376e-01  6.1108658104570734e-01  6.5949862255876190e-01  7.2152719252202580e-01  7.9282777189550224e-01  8.5631871883822219e-01  8.8810547544344653e-01  8.8919111974553933e-01  8.9134670836343510e-01  7.9467619476365803e-01  4.2820808070246202e-01  3.8904317285752349e-01  4.0033275335111196e-01  4.0705519296431769e-01  4.1043650988301106e-01  4.1250275369455580e-01  4.1422325453343461e-01  4.1595947193389970e-01  4.1782391444274447e-01  4.1983899955679405e-01  4.2199849381050336e-01  4.2429019223551162e-01  4.2670417107952041e-01  4.2923579862418515e-01  4.3188687791729308e-01  4.3466619184772370e-01  4.3758998081398648e-01  4.4068262771234618e-01  4.4397774589507188e-01  4.4751986088895418e-01  4.5136691670387985e-01  4.5559392015667727e-01  4.6029817274250073e-01  4.6560675141511276e-01  4.7168722308871008e-01  4.7876306534367569e-01  4.8713598268011726e-01  4.9721829230959852e-01  5.0957965336675681e-01  5.2501270125251887e-01  5.4461803200157555e-01  5.6988858752963645e-01  6.0270218511142337e-01  6.4492587501732701e-01  6.9689792002152740e-01  7.5374805307043047e-01  8.0077983917462126e-01  8.1701551371748427e-01  7.8984895080508066e-01  6.9531234568055567e-01  5.6923231238103067e-01  4.2835005774066975e-01  3.9078587844236851e-01  4.0441997115541456e-01  4.1247290935140629e-01  4.1640043290774215e-01  4.1863083560931830e-01  4.2033659544672614e-01  4.2196490820311378e-01  4.2366330742871905e-01  4.2546962441890551e-01  4.2738608485131796e-01  4.2940665798811911e-01  4.3152678928226951e-01  4.3374671856848007e-01  4.3607256024745966e-01  4.3851671250490853e-01  4.4109821676635474e-01  4.4384335058213475e-01  4.4678662432477434e-01  4.4997233042073081e-01  4.5345681893767570e-01  4.5731173341942288e-01  4.6162853757687639e-01  4.6652480579108102e-01  4.7215295205389607e-01  4.7871234632505777e-01  4.8646610979089411e-01  4.9576421071080140e-01  5.0707446407498491e-01  5.2102154543957169e-01  5.3842774287539741e-01  5.6032828123601108e-01  5.8787447317202723e-01  6.2189248475741954e-01  6.6160785706706193e-01  7.0196919540522051e-01  7.3041166112419398e-01  7.2729474306171438e-01  6.6841002237292457e-01  5.2555369845563948e-01  4.4615904724809158e-01  4.2851415606480148e-01  3.9279985000096190e-01  4.0914665807318118e-01  4.1874768331533208e-01  4.2331174682513201e-01  4.2572071116760934e-01  4.2738088819456233e-01  4.2884269430789773e-01  4.3029915269856683e-01  4.3181041321292485e-01  4.3339215562143163e-01  4.3504826021463705e-01  4.3678224336414317e-01  4.3860097837999767e-01  4.4051579722933931e-01  4.4254286012201666e-01  4.4470349325814629e-01  4.4702476740918834e-01  4.4954044648002839e-01  4.5229240140405447e-01  4.5533259806994053e-01  4.5872580679493213e-01  4.6255323847574648e-01  4.6691738694880930e-01  4.7194844440377354e-01  4.7781274136954649e-01  4.8472369443377461e-01  4.9295557817231628e-01  5.0285967476883464e-01  5.1487993493340345e-01  5.2955846331936263e-01  5.4750320064370650e-01  5.6924656957703568e-01  5.9483223937959517e-01  6.2283294305053138e-01  6.4852038719326621e-01  6.6170222737173412e-01  6.4627663850040806e-01  5.8216194267628529e-01  4.6411787847939218e-01  4.3307950070811324e-01  4.2870442595282399e-01  3.9513606916709521e-01  4.1463574306125023e-01  4.2604895004125048e-01  4.3135973640354502e-01  4.3396004283651718e-01  4.3552666565663023e-01  4.3673664544588842e-01  4.3784392286573282e-01  4.3894163308136430e-01  4.4006651574056271e-01  4.4123770473121426e-01  4.4247028422041784e-01  4.4377972412851480e-01  4.4518329725295275e-01  4.4670068622581510e-01  4.4835453884620324e-01  4.5017121771787383e-01  4.5218182645193761e-01  4.5442355747353191e-01  4.5694141382948666e-01  4.5979037952939272e-01  4.6303813796948312e-01  4.6676845762577890e-01  4.7108536516892313e-01  4.7611817939232925e-01  4.8202731883444694e-01  4.8901037076004389e-01  4.9730687091836934e-01  5.0719778390226211e-01  5.1898994090721406e-01  5.3296266865036779e-01  5.4922606468165747e-01  5.6738949717330855e-01  5.8587914958414888e-01  6.0079108754677280e-01  6.0461164507730070e-01  5.8597051203620487e-01  5.3177500969048719e-01  4.4172429789995971e-01  4.3204017654669968e-01  4.2892601580412959e-01  3.9786073685289014e-01  4.2104898350181302e-01  4.3460227858595640e-01  4.4079743836600443e-01  4.4359791408418714e-01  4.4499612082647677e-01  4.4582872894051712e-01  4.4643423019854078e-01  4.4695533850109759e-01  4.4746115075677545e-01  4.4799326207250861e-01  4.4858237140826074e-01  4.4925422861160597e-01  4.5003205590072393e-01  4.5093795665001729e-01  4.5199411842098380e-01  4.5322403763851005e-01  4.5465382294859069e-01  4.5631360014278000e-01  4.5823904541281041e-01  4.6047308181538343e-01  4.6306777339863481e-01  4.6608643320487536e-01  4.6960591057916184e-01  4.7371891091912199e-01  4.7853596923975622e-01  4.8418623054326210e-01  4.9081524375701990e-01  4.9857604732769950e-01  5.0760586478227998e-01  5.1797268649476436e-01  5.2956057982448690e-01  5.4183743329661194e-01  5.5342521794477839e-01  5.6142881669265310e-01  5.6069626632895597e-01  5.4353672336779446e-01  5.0038428072871599e-01  4.3010534806222850e-01  4.3132783050811130e-01  4.2918537502544807e-01  4.0106006989028736e-01  4.2860187952345291e-01  4.4471323419911757e-01  4.5196910953880259e-01  4.5496943116095950e-01  4.5608053893434231e-01  4.5634821442167972e-01  4.5623292806489080e-01  4.5595268876677431e-01  4.5562505017265437e-01  4.5532291567921440e-01  4.5509632901091052e-01  4.5498168980482073e-01  4.5500652332363162e-01  4.5519264871280563e-01  4.5555866582153964e-01  4.5612204868657175e-01  4.5690095429415434e-01  4.5791581382914537e-01  4.5919076331031450e-01  4.6075495844071790e-01  4.6264379434808034e-01  4.6490000766308676e-01  4.6757456460282870e-01  4.7072711295868791e-01  4.7442555906738476e-01  4.7874395164207256e-01  4.8375717915610722e-01  4.8952975787655040e-01  4.9609369758904465e-01  5.0340613455565963e-01  5.1126964427070076e-01  5.1918587950487061e-01  5.2610064686098801e-01  5.3000615007126772e-01  5.2742730652293612e-01  5.1286415567601584e-01  4.7840310977523343e-01  4.2152471027640870e-01  4.3075771194305063e-01  4.2949026176008681e-01  4.0484671807240796e-01  4.3758695588347302e-01  4.5680589485909684e-01  4.6535365836601028e-01  4.6853208860118772e-01  4.6916298468571754e-01  4.6858043932251797e-01  4.6742748561965347e-01  4.6603641855368244e-01  4.6459454408100792e-01  4.6321506645352339e-01  4.6196874103255253e-01  4.6089978458632896e-01  4.6003525938159429e-01  4.5939137810047731e-01  4.5897803995603770e-01  4.5880217279672703e-01  4.5887020669330653e-01  4.5918990470926158e-01  4.5977171605596467e-01  4.6062976365667518e-01  4.6178252278908294e-01  4.6325318397244286e-01  4.6506961314940193e-01  4.6726371201159000e-01  4.6986981990853183e-01  4.7292155226551524e-01  4.7644608045565429e-01  4.8045421353839024e-01  4.8492351296352648e-01  4.8976956969914537e-01  4.9479654306763587e-01  4.9961058766071631e-01  5.0346751807444934e-01  5.0500954660522623e-01  5.0182213414301025e-01  4.8968484150630187e-01  4.6168682986214471e-01  4.1482730632329057e-01  4.3027164742808022e-01  4.2984947075120650e-01  4.0936979187764716e-01  4.4841332184328525e-01  4.7148971247423405e-01  4.8163562389421594e-01  4.8491876564823949e-01  4.8474484797743944e-01  4.8287053075122721e-01  4.802195792