<?xml version="1.0"?>
<VTKFile type="UnstructuredGrid"  version="0.1"  >
<UnstructuredGrid>
<Piece  NumberOfPoints="1681" NumberOfCells="3200">
<Points>
<DataArray  type="Float64"  NumberOfComponents="3"  format="ascii">0 0 0  0.025 0 0  0.05 0 0  0.075 0 0  0.1 0 0  0.125 0 0  0.15 0 0  0.175 0 0  0.2 0 0  0.225 0 0  0.25 0 0  0.275 0 0  0.3 0 0  0.325 0 0  0.35 0 0  0.375 0 0  0.4 0 0  0.425 0 0  0.45 0 0  0.475 0 0  0.5 0 0  0.525 0 0  0.55 0 0  0.575 0 0  0.6 0 0  0.625 0 0  0.65 0 0  0.675 0 0  0.7 0 0  0.725 0 0  0.75 0 0  0.775 0 0  0.8 0 0  0.825 0 0  0.85 0 0  0.875 0 0  0.9 0 0  0.925 0 0  0.95 0 0  0.975 0 0  1 0 0  0 0.025 0  0.025 0.025 0  0.05 0.025 0  0.075 0.025 0  0.1 0.025 0  0.125 0.025 0  0.15 0.025 0  0.175 0.025 0  0.2 0.025 0  0.225 0.025 0  0.25 0.025 0  0.275 0.025 0  0.3 0.025 0  0.325 0.025 0  0.35 0.025 0  0.375 0.025 0  0.4 0.025 0  0.425 0.025 0  0.45 0.025 0  0.475 0.025 0  0.5 0.025 0  0.525 0.025 0  0.55 0.025 0  0.575 0.025 0  0.6 0.025 0  0.625 0.025 0  0.65 0.025 0  0.675 0.025 0  0.7 0.025 0  0.725 0.025 0  0.75 0.025 0  0.775 0.025 0  0.8 0.025 0  0.825 0.025 0  0.85 0.025 0  0.875 0.025 0  0.9 0.025 0  0.925 0.025 0  0.95 0.025 0  0.975 0.025 0  1 0.025 0  0 0.05 0  0.025 0.05 0  0.05 0.05 0  0.075 0.05 0  0.1 0.05 0  0.125 0.05 0  0.15 0.05 0  0.175 0.05 0  0.2 0.05 0  0.225 0.05 0  0.25 0.05 0  0.275 0.05 0  0.3 0.05 0  0.325 0.05 0  0.35 0.05 0  0.375 0.05 0  0.4 0.05 0  0.425 0.05 0  0.45 0.05 0  0.475 0.05 0  0.5 0.05 0  0.525 0.05 0  0.55 0.05 0  0.575 0.05 0  0.6 0.05 0  0.625 0.05 0  0.65 0.05 0  0.675 0.05 0  0.7 0.05 0  0.725 0.05 0  0.75 0.05 0  0.775 0.05 0  0.8 0.05 0  0.825 0.05 0  0.85 0.05 0  0.875 0.05 0  0.9 0.05 0  0.925 0.05 0  0.95 0.05 0  0.975 0.05 0  1 0.05 0  0 0.075 0  0.025 0.075 0  0.05 0.075 0  0.075 0.075 0  0.1 0.075 0  0.125 0.075 0  0.15 0.075 0  0.175 0.075 0  0.2 0.075 0  0.225 0.075 0  0.25 0.075 0  0.275 0.075 0  0.3 0.075 0  0.325 0.075 0  0.35 0.075 0  0.375 0.075 0  0.4 0.075 0  0.425 0.075 0  0.45 0.075 0  0.475 0.075 0  0.5 0.075 0  0.525 0.075 0  0.55 0.075 0  0.575 0.075 0  0.6 0.075 0  0.625 0.075 0  0.65 0.075 0  0.675 0.075 0  0.7 0.075 0  0.725 0.075 0  0.75 0.075 0  0.775 0.075 0  0.8 0.075 0  0.825 0.075 0  0.85 0.075 0  0.875 0.075 0  0.9 0.075 0  0.925 0.075 0  0.95 0.075 0  0.975 0.075 0  1 0.075 0  0 0.1 0  0.025 0.1 0  0.05 0.1 0  0.075 0.1 0  0.1 0.1 0  0.125 0.1 0  0.15 0.1 0  0.175 0.1 0  0.2 0.1 0  0.225 0.1 0  0.25 0.1 0  0.275 0.1 0  0.3 0.1 0  0.325 0.1 0  0.35 0.1 0  0.375 0.1 0  0.4 0.1 0  0.425 0.1 0  0.45 0.1 0  0.475 0.1 0  0.5 0.1 0  0.525 0.1 0  0.55 0.1 0  0.575 0.1 0  0.6 0.1 0  0.625 0.1 0  0.65 0.1 0  0.675 0.1 0  0.7 0.1 0  0.725 0.1 0  0.75 0.1 0  0.775 0.1 0  0.8 0.1 0  0.825 0.1 0  0.85 0.1 0  0.875 0.1 0  0.9 0.1 0  0.925 0.1 0  0.95 0.1 0  0.975 0.1 0  1 0.1 0  0 0.125 0  0.025 0.125 0  0.05 0.125 0  0.075 0.125 0  0.1 0.125 0  0.125 0.125 0  0.15 0.125 0  0.175 0.125 0  0.2 0.125 0  0.225 0.125 0  0.25 0.125 0  0.275 0.125 0  0.3 0.125 0  0.325 0.125 0  0.35 0.125 0  0.375 0.125 0  0.4 0.125 0  0.425 0.125 0  0.45 0.125 0  0.475 0.125 0  0.5 0.125 0  0.525 0.125 0  0.55 0.125 0  0.575 0.125 0  0.6 0.125 0  0.625 0.125 0  0.65 0.125 0  0.675 0.125 0  0.7 0.125 0  0.725 0.125 0  0.75 0.125 0  0.775 0.125 0  0.8 0.125 0  0.825 0.125 0  0.85 0.125 0  0.875 0.125 0  0.9 0.125 0  0.925 0.125 0  0.95 0.125 0  0.975 0.125 0  1 0.125 0  0 0.15 0  0.025 0.15 0  0.05 0.15 0  0.075 0.15 0  0.1 0.15 0  0.125 0.15 0  0.15 0.15 0  0.175 0.15 0  0.2 0.15 0  0.225 0.15 0  0.25 0.15 0  0.275 0.15 0  0.3 0.15 0  0.325 0.15 0  0.35 0.15 0  0.375 0.15 0  0.4 0.15 0  0.425 0.15 0  0.45 0.15 0  0.475 0.15 0  0.5 0.15 0  0.525 0.15 0  0.55 0.15 0  0.575 0.15 0  0.6 0.15 0  0.625 0.15 0  0.65 0.15 0  0.675 0.15 0  0.7 0.15 0  0.725 0.15 0  0.75 0.15 0  0.775 0.15 0  0.8 0.15 0  0.825 0.15 0  0.85 0.15 0  0.875 0.15 0  0.9 0.15 0  0.925 0.15 0  0.95 0.15 0  0.975 0.15 0  1 0.15 0  0 0.175 0  0.025 0.175 0  0.05 0.175 0  0.075 0.175 0  0.1 0.175 0  0.125 0.175 0  0.15 0.175 0  0.175 0.175 0  0.2 0.175 0  0.225 0.175 0  0.25 0.175 0  0.275 0.175 0  0.3 0.175 0  0.325 0.175 0  0.35 0.175 0  0.375 0.175 0  0.4 0.175 0  0.425 0.175 0  0.45 0.175 0  0.475 0.175 0  0.5 0.175 0  0.525 0.175 0  0.55 0.175 0  0.575 0.175 0  0.6 0.175 0  0.625 0.175 0  0.65 0.175 0  0.675 0.175 0  0.7 0.175 0  0.725 0.175 0  0.75 0.175 0  0.775 0.175 0  0.8 0.175 0  0.825 0.175 0  0.85 0.175 0  0.875 0.175 0  0.9 0.175 0  0.925 0.175 0  0.95 0.175 0  0.975 0.175 0  1 0.175 0  0 0.2 0  0.025 0.2 0  0.05 0.2 0  0.075 0.2 0  0.1 0.2 0  0.125 0.2 0  0.15 0.2 0  0.175 0.2 0  0.2 0.2 0  0.225 0.2 0  0.25 0.2 0  0.275 0.2 0  0.3 0.2 0  0.325 0.2 0  0.35 0.2 0  0.375 0.2 0  0.4 0.2 0  0.425 0.2 0  0.45 0.2 0  0.475 0.2 0  0.5 0.2 0  0.525 0.2 0  0.55 0.2 0  0.575 0.2 0  0.6 0.2 0  0.625 0.2 0  0.65 0.2 0  0.675 0.2 0  0.7 0.2 0  0.725 0.2 0  0.75 0.2 0  0.775 0.2 0  0.8 0.2 0  0.825 0.2 0  0.85 0.2 0  0.875 0.2 0  0.9 0.2 0  0.925 0.2 0  0.95 0.2 0  0.975 0.2 0  1 0.2 0  0 0.225 0  0.025 0.225 0  0.05 0.225 0  0.075 0.225 0  0.1 0.225 0  0.125 0.225 0  0.15 0.225 0  0.175 0.225 0  0.2 0.225 0  0.225 0.225 0  0.25 0.225 0  0.275 0.225 0  0.3 0.225 0  0.325 0.225 0  0.35 0.225 0  0.375 0.225 0  0.4 0.225 0  0.425 0.225 0  0.45 0.225 0  0.475 0.225 0  0.5 0.225 0  0.525 0.225 0  0.55 0.225 0  0.575 0.225 0  0.6 0.225 0  0.625 0.225 0  0.65 0.225 0  0.675 0.225 0  0.7 0.225 0  0.725 0.225 0  0.75 0.225 0  0.775 0.225 0  0.8 0.225 0  0.825 0.225 0  0.85 0.225 0  0.875 0.225 0  0.9 0.225 0  0.925 0.225 0  0.95 0.225 0  0.975 0.225 0  1 0.225 0  0 0.25 0  0.025 0.25 0  0.05 0.25 0  0.075 0.25 0  0.1 0.25 0  0.125 0.25 0  0.15 0.25 0  0.175 0.25 0  0.2 0.25 0  0.225 0.25 0  0.25 0.25 0  0.275 0.25 0  0.3 0.25 0  0.325 0.25 0  0.35 0.25 0  0.375 0.25 0  0.4 0.25 0  0.425 0.25 0  0.45 0.25 0  0.475 0.25 0  0.5 0.25 0  0.525 0.25 0  0.55 0.25 0  0.575 0.25 0  0.6 0.25 0  0.625 0.25 0  0.65 0.25 0  0.675 0.25 0  0.7 0.25 0  0.725 0.25 0  0.75 0.25 0  0.775 0.25 0  0.8 0.25 0  0.825 0.25 0  0.85 0.25 0  0.875 0.25 0  0.9 0.25 0  0.925 0.25 0  0.95 0.25 0  0.975 0.25 0  1 0.25 0  0 0.275 0  0.025 0.275 0  0.05 0.275 0  0.075 0.275 0  0.1 0.275 0  0.125 0.275 0  0.15 0.275 0  0.175 0.275 0  0.2 0.275 0  0.225 0.275 0  0.25 0.275 0  0.275 0.275 0  0.3 0.275 0  0.325 0.275 0  0.35 0.275 0  0.375 0.275 0  0.4 0.275 0  0.425 0.275 0  0.45 0.275 0  0.475 0.275 0  0.5 0.275 0  0.525 0.275 0  0.55 0.275 0  0.575 0.275 0  0.6 0.275 0  0.625 0.275 0  0.65 0.275 0  0.675 0.275 0  0.7 0.275 0  0.725 0.275 0  0.75 0.275 0  0.775 0.275 0  0.8 0.275 0  0.825 0.275 0  0.85 0.275 0  0.875 0.275 0  0.9 0.275 0  0.925 0.275 0  0.95 0.275 0  0.975 0.275 0  1 0.275 0  0 0.3 0  0.025 0.3 0  0.05 0.3 0  0.075 0.3 0  0.1 0.3 0  0.125 0.3 0  0.15 0.3 0  0.175 0.3 0  0.2 0.3 0  0.225 0.3 0  0.25 0.3 0  0.275 0.3 0  0.3 0.3 0  0.325 0.3 0  0.35 0.3 0  0.375 0.3 0  0.4 0.3 0  0.425 0.3 0  0.45 0.3 0  0.475 0.3 0  0.5 0.3 0  0.525 0.3 0  0.55 0.3 0  0.575 0.3 0  0.6 0.3 0  0.625 0.3 0  0.65 0.3 0  0.675 0.3 0  0.7 0.3 0  0.725 0.3 0  0.75 0.3 0  0.775 0.3 0  0.8 0.3 0  0.825 0.3 0  0.85 0.3 0  0.875 0.3 0  0.9 0.3 0  0.925 0.3 0  0.95 0.3 0  0.975 0.3 0  1 0.3 0  0 0.325 0  0.025 0.325 0  0.05 0.325 0  0.075 0.325 0  0.1 0.325 0  0.125 0.325 0  0.15 0.325 0  0.175 0.325 0  0.2 0.325 0  0.225 0.325 0  0.25 0.325 0  0.275 0.325 0  0.3 0.325 0  0.325 0.325 0  0.35 0.325 0  0.375 0.325 0  0.4 0.325 0  0.425 0.325 0  0.45 0.325 0  0.475 0.325 0  0.5 0.325 0  0.525 0.325 0  0.55 0.325 0  0.575 0.325 0  0.6 0.325 0  0.625 0.325 0  0.65 0.325 0  0.675 0.325 0  0.7 0.325 0  0.725 0.325 0  0.75 0.325 0  0.775 0.325 0  0.8 0.325 0  0.825 0.325 0  0.85 0.325 0  0.875 0.325 0  0.9 0.325 0  0.925 0.325 0  0.95 0.325 0  0.975 0.325 0  1 0.325 0  0 0.35 0  0.025 0.35 0  0.05 0.35 0  0.075 0.35 0  0.1 0.35 0  0.125 0.35 0  0.15 0.35 0  0.175 0.35 0  0.2 0.35 0  0.225 0.35 0  0.25 0.35 0  0.275 0.35 0  0.3 0.35 0  0.325 0.35 0  0.35 0.35 0  0.375 0.35 0  0.4 0.35 0  0.425 0.35 0  0.45 0.35 0  0.475 0.35 0  0.5 0.35 0  0.525 0.35 0  0.55 0.35 0  0.575 0.35 0  0.6 0.35 0  0.625 0.35 0  0.65 0.35 0  0.675 0.35 0  0.7 0.35 0  0.725 0.35 0  0.75 0.35 0  0.775 0.35 0  0.8 0.35 0  0.825 0.35 0  0.85 0.35 0  0.875 0.35 0  0.9 0.35 0  0.925 0.35 0  0.95 0.35 0  0.975 0.35 0  1 0.35 0  0 0.375 0  0.025 0.375 0  0.05 0.375 0  0.075 0.375 0  0.1 0.375 0  0.125 0.375 0  0.15 0.375 0  0.175 0.375 0  0.2 0.375 0  0.225 0.375 0  0.25 0.375 0  0.275 0.375 0  0.3 0.375 0  0.325 0.375 0  0.35 0.375 0  0.375 0.375 0  0.4 0.375 0  0.425 0.375 0  0.45 0.375 0  0.475 0.375 0  0.5 0.375 0  0.525 0.375 0  0.55 0.375 0  0.575 0.375 0  0.6 0.375 0  0.625 0.375 0  0.65 0.375 0  0.675 0.375 0  0.7 0.375 0  0.725 0.375 0  0.75 0.375 0  0.775 0.375 0  0.8 0.375 0  0.825 0.375 0  0.85 0.375 0  0.875 0.375 0  0.9 0.375 0  0.925 0.375 0  0.95 0.375 0  0.975 0.375 0  1 0.375 0  0 0.4 0  0.025 0.4 0  0.05 0.4 0  0.075 0.4 0  0.1 0.4 0  0.125 0.4 0  0.15 0.4 0  0.175 0.4 0  0.2 0.4 0  0.225 0.4 0  0.25 0.4 0  0.275 0.4 0  0.3 0.4 0  0.325 0.4 0  0.35 0.4 0  0.375 0.4 0  0.4 0.4 0  0.425 0.4 0  0.45 0.4 0  0.475 0.4 0  0.5 0.4 0  0.525 0.4 0  0.55 0.4 0  0.575 0.4 0  0.6 0.4 0  0.625 0.4 0  0.65 0.4 0  0.675 0.4 0  0.7 0.4 0  0.725 0.4 0  0.75 0.4 0  0.775 0.4 0  0.8 0.4 0  0.825 0.4 0  0.85 0.4 0  0.875 0.4 0  0.9 0.4 0  0.925 0.4 0  0.95 0.4 0  0.975 0.4 0  1 0.4 0  0 0.425 0  0.025 0.425 0  0.05 0.425 0  0.075 0.425 0  0.1 0.425 0  0.125 0.425 0  0.15 0.425 0  0.175 0.425 0  0.2 0.425 0  0.225 0.425 0  0.25 0.425 0  0.275 0.425 0  0.3 0.425 0  0.325 0.425 0  0.35 0.425 0  0.375 0.425 0  0.4 0.425 0  0.425 0.425 0  0.45 0.425 0  0.475 0.425 0  0.5 0.425 0  0.525 0.425 0  0.55 0.425 0  0.575 0.425 0  0.6 0.425 0  0.625 0.425 0  0.65 0.425 0  0.675 0.425 0  0.7 0.425 0  0.725 0.425 0  0.75 0.425 0  0.775 0.425 0  0.8 0.425 0  0.825 0.425 0  0.85 0.425 0  0.875 0.425 0  0.9 0.425 0  0.925 0.425 0  0.95 0.425 0  0.975 0.425 0  1 0.425 0  0 0.45 0  0.02
[...]
<PointData  Scalars="ControlVisualisation"> 
<DataArray  type="Float64"  Name="ControlVisualisation"  format="ascii">-9.7942115002387387e-09  -9.8628053748244367e-09  -9.8627985842079482e-09  -9.8627872187026698e-09  -9.8627716357859595e-09  -9.8627522540028527e-09  -9.8627296019529720e-09  -9.8627042904178062e-09  -9.8626769984968854e-09  -9.8626484277525175e-09  -9.8626193477008968e-09  -9.8625904727108506e-09  -9.8625625649785558e-09  -9.8625362769276412e-09  -9.8625122786366516e-09  -9.8624911677363764e-09  -9.8624733651318337e-09  -9.8624593718612562e-09  -9.8624494860520758e-09  -9.8624439365089317e-09  -9.8624428691331630e-09  -9.8624462767936242e-09  -9.8624541121468843e-09  -9.8624662067565111e-09  -9.8624821925913328e-09  -9.8625017560560154e-09  -9.8625244257221813e-09  -9.8625496899937425e-09  -9.8625768800654430e-09  -9.8626054023164435e-09  -9.8626344699736081e-09  -9.8626633615301597e-09  -9.8626913543935752e-09  -9.8627176931343047e-09  -9.8627417055910717e-09  -9.8627627401627926e-09  -9.8627802125394904e-09  -9.8627936536768641e-09  -9.8628026608657034e-09  -9.8628071400985167e-09  -9.5884239622093594e-09  -9.8628053573003424e-09  -9.9314002554443910e-09  -9.9313935519210098e-09  -9.9313817510137990e-09  -9.9313650479401642e-09  -9.9313438986412121e-09  -9.9313188729162957e-09  -9.9312906560861920e-09  -9.9312599871439009e-09  -9.9312276742175905e-09  -9.9311945565242213e-09  -9.9311614871003664e-09  -9.9311293130677890e-09  -9.9310988176860957e-09  -9.9310707479333835e-09  -9.9310457964116486e-09  -9.9310245733062655e-09  -9.9310075427757599e-09  -9.9309951564705763e-09  -9.9309876748131535e-09  -9.9309852849373752e-09  -9.9309880308584517e-09  -9.9309958617245995e-09  -9.9310086036030904e-09  -9.9310259293650819e-09  -9.9310474111894177e-09  -9.9310725844368314e-09  -9.9311008354324524e-09  -9.9311314559509700e-09  -9.9311637229923990e-09  -9.9311968245873957e-09  -9.9312298981915501e-09  -9.9312621185590748e-09  -9.9312926388696491e-09  -9.9313206625463283e-09  -9.9313454426412903e-09  -9.9313663090559459e-09  -9.9313826955107032e-09  -9.9313941694923991e-09  -9.9314007764757676e-09  -9.8628071380391082e-09  -9.8627983931569406e-09  -9.9313934104384579e-09  -9.9313849836325839e-09  -9.9313714964918682e-09  -9.9313523785469430e-09  -9.9313281182515137e-09  -9.9312993603051617e-09  -9.9312669009085789e-09  -9.9312315829626394e-09  -9.9311943482573038e-09  -9.9311561607778067e-09  -9.9311179984779076e-09  -9.9310808416942495e-09  -9.9310456249585233e-09  -9.9310131612729892e-09  -9.9309842349092847e-09  -9.9309596207432100e-09  -9.9309398623666773e-09  -9.9309254150006234e-09  -9.9309166012007664e-09  -9.9309136588457631e-09  -9.9309166776383265e-09  -9.9309255365800848e-09  -9.9309400473962948e-09  -9.9309598746193759e-09  -9.9309845315168434e-09  -9.9310134515182733e-09  -9.9310459347767619e-09  -9.9310811923396929e-09  -9.9311183636091347e-09  -9.9311565199544915e-09  -9.9311946872697571e-09  -9.9312319046956074e-09  -9.9312671920907808e-09  -9.9312996214785512e-09  -9.9313283337556180e-09  -9.9313525536103593e-09  -9.9313716335008718e-09  -9.9313851288350844e-09  -9.9313940515360848e-09  -9.8628026013549040e-09  -9.8627863078321779e-09  -9.9313809629766849e-09  -9.9313707825276298e-09  -9.9313571295018840e-09  -9.9313378740121672e-09  -9.9313134567272874e-09  -9.9312845096782492e-09  -9.9312518386082967e-09  -9.9312163125384112e-09  -9.9311788322735704e-09  -9.9311404259379254e-09  -9.9311020553952525e-09  -9.9310646997772705e-09  -9.9310292944215262e-09  -9.9309966736305726e-09  -9.9309676144930176e-09  -9.9309428733611394e-09  -9.9309230284427526e-09  -9.9309085019698764e-09  -9.9308996418082219e-09  -9.9308966468460007e-09  -9.9308996643502849e-09  -9.9309085625454707e-09  -9.9309231075262683e-09  -9.9309429790948014e-09  -9.9309677471102729e-09  -9.9309967755299332e-09  -9.9310294007394225e-09  -9.9310648308338593e-09  -9.9311021987331688e-09  -9.9311405622142770e-09  -9.9311789613595271e-09  -9.9312164127128289e-09  -9.9312519404290420e-09  -9.9312845993920382e-09  -9.9313135234780762e-09  -9.9313379347979679e-09  -9.9313571820453345e-09  -9.9313709225467652e-09  -9.9313819829119862e-09  -9.8627932207036200e-09  -9.8627688007357402e-09  -9.9313624247297087e-09  -9.9313495969784402e-09  -9.9313358097053209e-09  -9.9313165452148169e-09  -9.9312921240673594e-09  -9.9312632023967782e-09  -9.9312305566625424e-09  -9.9311950710675754e-09  -9.9311576684860320e-09  -9.9311193374745472e-09  -9.9310810745979542e-09  -9.9310438289892316e-09  -9.9310085463051678e-09  -9.9309760578844370e-09  -9.9309471279170589e-09  -9.9309224993287543e-09  -9.9309027619029149e-09  -9.9308883086814563e-09  -9.9308794889628441e-09  -9.9308765169326949e-09  -9.9308795086097270e-09  -9.9308883377947314e-09  -9.9309028154808392e-09  -9.9309225977231075e-09  -9.9309472402801913e-09  -9.9309761442359834e-09  -9.9310086340812880e-09  -9.9310439547608443e-09  -9.9310811981610443e-09  -9.9311194604077790e-09  -9.9311577743099245e-09  -9.9311951672684953e-09  -9.9312306493304350e-09  -9.9312632847285031e-09  -9.9312921936081357e-09  -9.9313166052267456e-09  -9.9313358667762354e-09  -9.9313497895471886e-09  -9.9313638644728308e-09  -9.8627785754803162e-09  -9.8627453450126215e-09  -9.9313372483317046e-09  -9.9313207781007021e-09  -9.9313068063939770e-09  -9.9312875557333786e-09  -9.9312631577929480e-09  -9.9312342734523082e-09  -9.9312017088848722e-09  -9.9311663282630292e-09  -9.9311290386722251e-09  -9.9310908480301584e-09  -9.9310527596681126e-09  -9.9310157188044058e-09  -9.9309806203579192e-09  -9.9309483382006911e-09  -9.9309196218536326e-09  -9.9308951787535510e-09  -9.9308755651412820e-09  -9.9308612231306071e-09  -9.9308524884719815e-09  -9.9308495502508944e-09  -9.9308525103576006e-09  -9.9308612662146170e-09  -9.9308756146009287e-09  -9.9308952557677917e-09  -9.9309197022650263e-09  -9.9309484306370492e-09  -9.9309807247189693e-09  -9.9310158261153970e-09  -9.9310528793088430e-09  -9.9310909768445451e-09  -9.9311291451440879e-09  -9.9311664194591293e-09  -9.9312018100728674e-09  -9.9312343751810909e-09  -9.9312632406308214e-09  -9.9312876294015910e-09  -9.9313068915880578e-09  -9.9313210436051845e-09  -9.9313391618268161e-09  -9.8627582793962191e-09  -9.8627152653081235e-09  -9.9313046938129364e-09  -9.9312834746731085e-09  -9.9312692707753991e-09  -9.9312500378270554e-09  -9.9312256911552693e-09  -9.9311968931121990e-09  -9.9311644345366790e-09  -9.9311292074124246e-09  -9.9310921200749862e-09  -9.9310541580130388e-09  -9.9310163022154907e-09  -9.9309795317189286e-09  -9.9309447272305975e-09  -9.9309127392229889e-09  -9.9308842862485748e-09  -9.9308600982906228e-09  -9.9308406849029714e-09  -9.9308265024090352e-09  -9.9308178607337144e-09  -9.9308149614983096e-09  -9.9308178790234354e-09  -9.9308265420853124e-09  -9.9308407176298446e-09  -9.9308601542357477e-09  -9.9308843614023291e-09  -9.9309128115179524e-09  -9.9309448353033211e-09  -9.9309796387495370e-09  -9.9310164224457957e-09  -9.9310542727723348e-09  -9.9310922354698431e-09  -9.9311293183593808e-09  -9.9311645614987833e-09  -9.9311970152301186e-09  -9.9312258092578374e-09  -9.9312501440687883e-09  -9.9312693912607239e-09  -9.9312838266441501e-09  -9.9313071441841717e-09  -9.8627317434650251e-09  -9.8626776574426446e-09  -9.9312637846143242e-09  -9.9312365788192553e-09  -9.9312220951926225e-09  -9.9312029162398631e-09  -9.9311786638669183e-09  -9.9311499854482349e-09  -9.9311177108581112e-09  -9.9310827056131331e-09  -9.9310458990981079e-09  -9.9310082609423851e-09  -9.9309707868832799e-09  -9.9309343781887282e-09  -9.9308999661387273e-09  -9.9308683781777867e-09  -9.9308403079307133e-09  -9.9308164404977478e-09  -9.9307973066028084e-09  -9.9307833241846437e-09  -9.9307748192619336e-09  -9.9307719680056265e-09  -9.9307748373182805e-09  -9.9307833515026622e-09  -9.9307973167620124e-09  -9.9308164724503369e-09  -9.9308403704901597e-09  -9.9308684318528634e-09  -9.9309000562347400e-09  -9.9309344840858759e-09  -9.9309708873803228e-09  -9.9310083844501252e-09  -9.9310460290419634e-09  -9.9310828369954491e-09  -9.9311178511948823e-09  -9.9311501337030088e-09  -9.9311788002698499e-09  -9.9312030411658392e-09  -9.9312222469232292e-09  -9.9312370253557584e-09  -9.9312668516769098e-09  -9.8626981786384496e-09  -9.8626313795884369e-09  -9.9312132593751632e-09  -9.9311786356613944e-09  -9.9311638427453000e-09  -9.9311447474489787e-09  -9.9311206742778132e-09  -9.9310922263204712e-09  -9.9310602092695802e-09  -9.9310255409540773e-09  -9.9309891572715384e-09  -9.9309519754057211e-09  -9.9309149927006629e-09  -9.9308791361173518e-09  -9.9308452566529037e-09  -9.9308142003449294e-09  -9.9307866475514895e-09  -9.9307632018387980e-09  -9.9307444231849107e-09  -9.9307307290393532e-09  -9.9307224069757172e-09  -9.9307196033882109e-09  -9.9307223950297386e-09  -9.9307307357760594e-09  -9.9307444389884180e-09  -9.9307632191980765e-09  -9.9307866690074280e-09  -9.9308142304724421e-09  -9.9308453232439622e-09  -9.9308792191618383e-09  -9.9309150998945518e-09  -9.9309520949140545e-09  -9.9309892731350527e-09  -9.9310256865418604e-09  -9.9310603724268185e-09  -9.9310923863564840e-09  -9.9311208366968043e-09  -9.9311449225843878e-09  -9.9311640466567228e-09  -9.9311792213547302e-09  -9.9312170617581659e-09  -9.8626565829354444e-09  -9.8625750177463433e-09  -9.9311515671419294e-09  -9.9311078576589151e-09  -9.9310927043697283e-09  -9.9310737869158491e-09  -9.9310499533833969e-09  -9.9310218626291546e-09  -9.9309902945841523e-09  -9.9309561162072515e-09  -9.9309203150023655e-09  -9.9308838118163436e-09  -9.9308475193023265e-09  -9.9308124066510941e-09  -9.9307792748009076e-09  -9.9307489253547690e-09  -9.9307220396968910e-09  -9.9306991869248799e-09  -9.9306808906530979e-09  -9.9306675456063529e-09  -9.9306594457821609e-09  -9.9306567248252051e-09  -9.9306594368088179e-09  -9.9306675607267645e-09  -9.9306808956541045e-09  -9.9306991645434686e-09  -9.9307220191761067e-09  -9.9307489337544705e-09  -9.9307793064050982e-09  -9.9308124705672325e-09  -9.9308476099055631e-09  -9.9308839022994719e-09  -9.9309204321693857e-09  -9.9309562684915662e-09  -9.9309904631091476e-09  -9.9310220580048825e-09  -9.9310501802927189e-09  -9.9310740255292986e-09  -9.9310930001355728e-09  -9.9311086081814776e-09  -9.9311562146806542e-09  -9.8626056903662646e-09  -9.8625067657901776e-09  -9.9310766920237730e-09  -9.9310219659917563e-09  -9.9310064239964617e-09  -9.9309877919373655e-09  -9.9309643883869698e-09  -9.9309367959763514e-09  -9.9309058539679195e-09  -9.9308724492637807e-09  -9.9308375011992043e-09  -9.9308019381022744e-09  -9.9307666479137452e-09  -9.9307325380131219e-09  -9.9307004340215599e-09  -9.9306710356490681e-09  -9.9306450273697958e-09  -9.9306229810157884e-09  -9.9306053106088474e-09  -9.9305924306303166e-09  -9.9305846285702026e-09  -9.9305820120394439e-09  -9.9305846117607940e-09  -9.9305924102067938e-09  -9.9306053013875918e-09  -9.9306229176836196e-09  -9.9306449703388011e-09  -9.9306709987612614e-09  -9.9307003994031430e-09  -9.9307325559184422e-09  -9.9307666946481462e-09  -9.9308020008530129e-09  -9.9308376208740459e-09  -9.9308726201472002e-09  -9.9309060771376787e-09  -9.9309370462705110e-09  -9.9309646598860119e-09  -9.9309881058242160e-09  -9.9310068184696827e-09  -9.9310229100366195e-09  -9.9310823591477229e-09  -9.8625438930157623e-09  -9.8624243847755561e-09  -9.9309861484744435e-09  -9.9309180727597051e-09  -9.9309021539448367e-09  -9.9308839817760969e-09  -9.9308612165726713e-09  -9.9308344654666784e-09  -9.9308044699369911e-09  -9.9307721381658486e-09  -9.9307384089566727e-09  -9.9307041590861263e-09  -9.9306702826480740e-09  -9.9306375674231327e-09  -9.9306068379438253e-09  -9.9305787329959545e-09  -9.9305539082953640e-09  -9.9305329009903384e-09  -9.9305160905017557e-09  -9.9305038043540607e-09  -9.9304963884968108e-09  -9.9304938755877351e-09  -9.9304963350645200e-09  -9.9305037718553670e-09  -9.9305160172816750e-09  -9.9305327982832409e-09  -9.9305538013403219e-09  -9.9305786316915369e-09  -9.9306067455950888e-09  -9.9306375091009504e-09  -9.9306702746453778e-09  -9.9307042226428927e-09  -9.9307385311048455e-09  -9.9307723136942231e-09  -9.9308046928746930e-09  -9.9308347446851702e-09  -9.9308615846631172e-09  -9.9308844028551753e-09  -9.9309026907950449e-09  -9.9309193065963043e-09  -9.9309930813651784e-09  -9.8624692305624409e-09  -9.8623250797751514e-09  -9.9308768296311946e-09  -9.9307926602175986e-09  -9.9307763506042343e-09  -9.9307588765966507e-09  -9.9307371000667571e-09  -9.9307115462007607e-09  -9.9306829994759178e-09  -9.9306522773792553e-09  -9.9306202893030801e-09  -9.9305879058237410e-09  -9.9305559410308604e-09  -9.9305251818453333e-09  -9.9304962995514030e-09  -9.9304699452174240e-09  -9.9304467128874991e-09  -9.9304270451953742e-09  -9.9304113466240574e-09  -9.9303998980956271e-09  -9.9303929352049092e-09  -9.9303905843129637e-09  -9.9303928664099818e-09  -9.9303998118297799e-09  -9.9304112059231449e-09  -9.9304268805260316e-09  -9.9304465371452124e-09  -9.9304697724904522e-09  -9.9304961180449661e-09  -9.9305250135443253e-09  -9.9305558627712861e-09  -9.9305879108561854e-09  -9.9306203652291068e-09  -9.9306524199717694e-09  -9.9306832366172770e-09  -9.9307119066459137e-09  -9.9307375844320411e-09  -9.9307594767295656e-09  -9.9307771169405281e-09  -9.9307942619610725e-09  -9.9308853187922973e-09  -9.8623792458543116e-09  -9.8622053578144457e-09  -9.9307447966018869e-09  -9.9306411927930511e-09  -9.9306246021255374e-09  -9.9306081636167012e-09  -9.9305878543497192e-09  -9.9305640831928461e-09  -9.9305376372813557e-09  -9.9305092734384948e-09  -9.9304797768847299e-09  -9.9304500192990003e-09  -9.9304207471219933e-09  -9.9303926472643322e-09  -9.9303663280706003e-09  -9.9303423191216548e-09  -9.9303211437436931e-09  -9.9303032990099369e-09  -9.9302890147716720e-09  -9.9302786653464955e-09  -9.9302723042588744e-09  -9.9302701646051471e-09  -9.9302722402823353e-09  -9.9302784942229422e-09  -9.9302887916280848e-09  -9.9303030287720822e-09  -9.9303208984912291e-09  -9.9303419826841221e-09  -9.9303659693560895e-09  -9.9303923350802397e-09  -9.9304205434776539e-09  -9.9304499125007254e-09  -9.9304797520049205e-09  -9.9305093357028925e-09  -9.9305378732875302e-09  -9.9305645129126333e-09  -9.9305884483435279e-09  -9.9306089520779935e-09  -9.9306256120806729e-09  -9.9306432498095757e-09  -9.9307551992510652e-09  -9.8622707915199126e-09  -9.8620607861339073e-09  -9.9305850247962507e-09  -9.9304578648089382e-09  -9.9304411970685483e-09  -9.9304263599758161e-09  -9.9304082147759584e-09  -9.9303870978085103e-09  -9.9303636908078797e-09  -9.9303387350173006e-09  -9.9303128987037640e-09  -9.9302868451152601e-09  -9.9302612971454320e-09  -9.9302368074015671e-09  -9.9302139246482756e-09  -9.9301931256493262e-09  -9.9301747340492766e-09  -9.9301592079762476e-09  -9.9301468134635067e-09  -9.9301378122420989e-09  -9.9301323206697242e-09  -9.9301304318405811e-09  -9.9301322131354356e-09  -9.9301375773990263e-09  -9.9301464958693435e-09  -9.9301587956941374e-09  -9.9301742585902032e-09  -9.9301925347503493e-09  -9.9302133716998008e-09  -9.9302362910184194e-09  -9.9302608416260932e-09  -9.9302864939026620e-09  -9.9303126414232370e-09  -9.9303386719557059e-09  -9.9303638818254296e-09  -9.9303875494159796e-09  -9.9304089464975509e-09  -9.9304273792868424e-09  -9.9304425420820782e-09  -9.9304605822510928e-09  -9.9305978257301533e-09  -9.8621399963595872e-09  -9.8618856849375978e-09  -9.9303911341687607e-09  -9.9302353538991772e-09  -9.9302188117521112e-09  -9.9302064463398324e-09  -9.9301914869503408e-09  -9.9301742672662839e-09  -9.9301553582081770e-09  -9.9301353330662625e-09  -9.9301146453252628e-09  -9.9300938962923966e-09  -9.9300735720200257e-09  -9.9300540658205903e-09  -9.9300357976319342e-09  -9.9300192116501802e-09  -9.9300046094772366e-09  -9.9299921612301417e-09  -9.9299822357411156e-09  -9.9299749545111582e-09  -9.9299705245056202e-09  -9.9299689864546679e-09  -9.9299703867425107e-09  -9.9299746326093825e-09  -9.9299817152581945e-09  -9.9299915154878825e-09  -9.9300038078870313e-09  -9.9300183803491064e-09  -9.9300349768561596e-09  -9.9300532008380852e-09  -9.9300727284287950e-09  -9.9300932040078408e-09  -9.9301141213295405e-09  -9.9301350452217179e-09  -9.9301554365164706e-09  -9.9301747470197929e-09  -9.9301923898716436e-09  -9.9302077767471476e-09  -9.9302207176927806e-09  -9.9302390118798740e-09  -9.9304070145642477e-09  -9.8619819259641043e-09  -9.8616728744144078e-09  -9.9301548190521185e-09  -9.9299641996480400e-09  -9.9299481144803759e-09  -9.9299392402575791e-09  -9.9299290943155726e-09  -9.9299176589458422e-09  -9.9299052879194654e-09  -9.9298924551913043e-09  -9.9298793063394111e-09  -9.9298659880767876e-09  -9.9298529069425431e-09  -9.9298402760061430e-09  -9.9298282986932781e-09  -9.9298172935612343e-09  -9.9298075667239617e-09  -9.9297992373775100e-09  -9.9297924577945869e-09  -9.9297875092992045e-09  -9.9297843976658545e-09  -9.9297832733726332e-09  -9.9297841455064341e-09  -9.9297869880837620e-09  -9.9297917554268897e-09  -9.9297982741105939e-09  -9.9298064680924622e-09  -9.9298161178007642e-09  -9.9298270212484482e-09  -9.9298389047356787e-09  -9.9298515506891011e-09  -9.9298647767532322e-09  -9.9298782519902167e-09  -9.9298918099422879e-09  -9.9299051861684233e-09  -9.9299181024465196e-09  -9.9299302275310866e-09  -9.9299411258136034e-09  -9.9299508275930258e-09  -9.9299691160593860e-09  -9.9301747326374100e-09  -9.8617903607797725e-09  -9.8614130804569621e-09  -9.9298653040282839e-09  -9.9296317357347090e-09  -9.9296168118135029e-09  -9.9296130391965317e-09  -9.9296098993122837e-09  -9.9296071126641872e-09  -9.9296045391253782e-09  -9.9296020813966129e-09  -9.9295996877127416e-09  -9.9295970586991094e-09  -9.9295940759355225e-09  -9.9295907988801981e-09  -9.9295873342339361e-09  -9.9295837701107450e-09  -9.9295803778475627e-09  -9.9295773253264831e-09  -9.9295746411930853e-09  -9.9295725760824379e-09  -9.9295712148971994e-09  -9.9295706159370083e-09  -9.9295708713923166e-09  -9.9295718819495056e-09  -9.9295736567854875e-09  -9.9295760009088919e-09  -9.9295788419654384e-09  -9.9295820161627859e-09  -9.9295853381063550e-09  -9.9295886776786799e-09  -9.9295918907026380e-09  -9.9295949738891161e-09  -9.9295978847457781e-09  -9.9296007814312796e-09  -9.9296038568382431e-09  -9.9296072962199111e-09  -9.9296112316446566e-09  -9.9296155775398081e-09  -9.9296206654914857e-09  -9.9296386718278703e-09  -9.9298906340257686e-09  -9.8615572920627756e-09  -9.8610944794474967e-09  -9.9295084827636628e-09  -9.9292213369196252e-09  -9.9292081551985110e-09  -9.9292118579096644e-09  -9.9292191342280897e-09  -9.9292292159391544e-09  -9.9292413554437392e-09  -9.9292544408822842e-09  -9.9292675384468238e-09  -9.9292799344489563e-09  -9.9292910608440765e-09  -9.9293005252622189e-09  -9.9293084520431765e-09  -9.9293147662690737e-09  -9.9293196117481336e-09  -9.9293232364389765e-09  -9.9293257947432825e-09  -9.9293274145105074e-09  -9.9293282397125453e-09  -9.9293283345064493e-09  -9.9293277775076747e-09  -9.9293264982741015e-09  -9.9293244427384701e-09  -9.9293214904525762e-09  -9.9293174352563710e-09  -9.9293121741654118e-09  -9.9293055235830968e-09  -9.9292973774007470e-09  -9.9292876643532204e-09  -9.9292765900362319e-09  -9.9292644285224124e-09  -9.9292517914995727e-09  -9.9292395784744735e-09  -9.9292287854373125e-09  -9.9292204417397354e-09  -9.9292151918069860e-09  -9.9292138286915911e-09  -9.9292313494726236e-09  -9.9295411835875616e-09  -9.8612725387455127e-09  -9.8607020695759719e-09  -9.9290658277441376e-09  -9.9287106559103150e-09  -9.9286993573375288e-09  -9.9287134805276675e-09  -9.9287364451499806e-09  -9.9287662719592695e-09  -9.9288006834684696e-09  -9.9288369958418227e-09  -9.9288728501926892e-09  -9.9289065833331866e-09  -9.9289372436264822e-09  -9.9289641149977532e-09  -9.9289870319282468e-09  -9.9290062137599454e-09  -9.9290217524044075e-09  -9.92903