<?xml version="1.0"?>
<VTKFile type="UnstructuredGrid"  version="0.1"  >
<UnstructuredGrid>
<Piece  NumberOfPoints="1681" NumberOfCells="3200">
<Points>
<DataArray  type="Float64"  NumberOfComponents="3"  format="ascii">0 0 0  0.025 0 0  0.05 0 0  0.075 0 0  0.1 0 0  0.125 0 0  0.15 0 0  0.175 0 0  0.2 0 0  0.225 0 0  0.25 0 0  0.275 0 0  0.3 0 0  0.325 0 0  0.35 0 0  0.375 0 0  0.4 0 0  0.425 0 0  0.45 0 0  0.475 0 0  0.5 0 0  0.525 0 0  0.55 0 0  0.575 0 0  0.6 0 0  0.625 0 0  0.65 0 0  0.675 0 0  0.7 0 0  0.725 0 0  0.75 0 0  0.775 0 0  0.8 0 0  0.825 0 0  0.85 0 0  0.875 0 0  0.9 0 0  0.925 0 0  0.95 0 0  0.975 0 0  1 0 0  0 0.025 0  0.025 0.025 0  0.05 0.025 0  0.075 0.025 0  0.1 0.025 0  0.125 0.025 0  0.15 0.025 0  0.175 0.025 0  0.2 0.025 0  0.225 0.025 0  0.25 0.025 0  0.275 0.025 0  0.3 0.025 0  0.325 0.025 0  0.35 0.025 0  0.375 0.025 0  0.4 0.025 0  0.425 0.025 0  0.45 0.025 0  0.475 0.025 0  0.5 0.025 0  0.525 0.025 0  0.55 0.025 0  0.575 0.025 0  0.6 0.025 0  0.625 0.025 0  0.65 0.025 0  0.675 0.025 0  0.7 0.025 0  0.725 0.025 0  0.75 0.025 0  0.775 0.025 0  0.8 0.025 0  0.825 0.025 0  0.85 0.025 0  0.875 0.025 0  0.9 0.025 0  0.925 0.025 0  0.95 0.025 0  0.975 0.025 0  1 0.025 0  0 0.05 0  0.025 0.05 0  0.05 0.05 0  0.075 0.05 0  0.1 0.05 0  0.125 0.05 0  0.15 0.05 0  0.175 0.05 0  0.2 0.05 0  0.225 0.05 0  0.25 0.05 0  0.275 0.05 0  0.3 0.05 0  0.325 0.05 0  0.35 0.05 0  0.375 0.05 0  0.4 0.05 0  0.425 0.05 0  0.45 0.05 0  0.475 0.05 0  0.5 0.05 0  0.525 0.05 0  0.55 0.05 0  0.575 0.05 0  0.6 0.05 0  0.625 0.05 0  0.65 0.05 0  0.675 0.05 0  0.7 0.05 0  0.725 0.05 0  0.75 0.05 0  0.775 0.05 0  0.8 0.05 0  0.825 0.05 0  0.85 0.05 0  0.875 0.05 0  0.9 0.05 0  0.925 0.05 0  0.95 0.05 0  0.975 0.05 0  1 0.05 0  0 0.075 0  0.025 0.075 0  0.05 0.075 0  0.075 0.075 0  0.1 0.075 0  0.125 0.075 0  0.15 0.075 0  0.175 0.075 0  0.2 0.075 0  0.225 0.075 0  0.25 0.075 0  0.275 0.075 0  0.3 0.075 0  0.325 0.075 0  0.35 0.075 0  0.375 0.075 0  0.4 0.075 0  0.425 0.075 0  0.45 0.075 0  0.475 0.075 0  0.5 0.075 0  0.525 0.075 0  0.55 0.075 0  0.575 0.075 0  0.6 0.075 0  0.625 0.075 0  0.65 0.075 0  0.675 0.075 0  0.7 0.075 0  0.725 0.075 0  0.75 0.075 0  0.775 0.075 0  0.8 0.075 0  0.825 0.075 0  0.85 0.075 0  0.875 0.075 0  0.9 0.075 0  0.925 0.075 0  0.95 0.075 0  0.975 0.075 0  1 0.075 0  0 0.1 0  0.025 0.1 0  0.05 0.1 0  0.075 0.1 0  0.1 0.1 0  0.125 0.1 0  0.15 0.1 0  0.175 0.1 0  0.2 0.1 0  0.225 0.1 0  0.25 0.1 0  0.275 0.1 0  0.3 0.1 0  0.325 0.1 0  0.35 0.1 0  0.375 0.1 0  0.4 0.1 0  0.425 0.1 0  0.45 0.1 0  0.475 0.1 0  0.5 0.1 0  0.525 0.1 0  0.55 0.1 0  0.575 0.1 0  0.6 0.1 0  0.625 0.1 0  0.65 0.1 0  0.675 0.1 0  0.7 0.1 0  0.725 0.1 0  0.75 0.1 0  0.775 0.1 0  0.8 0.1 0  0.825 0.1 0  0.85 0.1 0  0.875 0.1 0  0.9 0.1 0  0.925 0.1 0  0.95 0.1 0  0.975 0.1 0  1 0.1 0  0 0.125 0  0.025 0.125 0  0.05 0.125 0  0.075 0.125 0  0.1 0.125 0  0.125 0.125 0  0.15 0.125 0  0.175 0.125 0  0.2 0.125 0  0.225 0.125 0  0.25 0.125 0  0.275 0.125 0  0.3 0.125 0  0.325 0.125 0  0.35 0.125 0  0.375 0.125 0  0.4 0.125 0  0.425 0.125 0  0.45 0.125 0  0.475 0.125 0  0.5 0.125 0  0.525 0.125 0  0.55 0.125 0  0.575 0.125 0  0.6 0.125 0  0.625 0.125 0  0.65 0.125 0  0.675 0.125 0  0.7 0.125 0  0.725 0.125 0  0.75 0.125 0  0.775 0.125 0  0.8 0.125 0  0.825 0.125 0  0.85 0.125 0  0.875 0.125 0  0.9 0.125 0  0.925 0.125 0  0.95 0.125 0  0.975 0.125 0  1 0.125 0  0 0.15 0  0.025 0.15 0  0.05 0.15 0  0.075 0.15 0  0.1 0.15 0  0.125 0.15 0  0.15 0.15 0  0.175 0.15 0  0.2 0.15 0  0.225 0.15 0  0.25 0.15 0  0.275 0.15 0  0.3 0.15 0  0.325 0.15 0  0.35 0.15 0  0.375 0.15 0  0.4 0.15 0  0.425 0.15 0  0.45 0.15 0  0.475 0.15 0  0.5 0.15 0  0.525 0.15 0  0.55 0.15 0  0.575 0.15 0  0.6 0.15 0  0.625 0.15 0  0.65 0.15 0  0.675 0.15 0  0.7 0.15 0  0.725 0.15 0  0.75 0.15 0  0.775 0.15 0  0.8 0.15 0  0.825 0.15 0  0.85 0.15 0  0.875 0.15 0  0.9 0.15 0  0.925 0.15 0  0.95 0.15 0  0.975 0.15 0  1 0.15 0  0 0.175 0  0.025 0.175 0  0.05 0.175 0  0.075 0.175 0  0.1 0.175 0  0.125 0.175 0  0.15 0.175 0  0.175 0.175 0  0.2 0.175 0  0.225 0.175 0  0.25 0.175 0  0.275 0.175 0  0.3 0.175 0  0.325 0.175 0  0.35 0.175 0  0.375 0.175 0  0.4 0.175 0  0.425 0.175 0  0.45 0.175 0  0.475 0.175 0  0.5 0.175 0  0.525 0.175 0  0.55 0.175 0  0.575 0.175 0  0.6 0.175 0  0.625 0.175 0  0.65 0.175 0  0.675 0.175 0  0.7 0.175 0  0.725 0.175 0  0.75 0.175 0  0.775 0.175 0  0.8 0.175 0  0.825 0.175 0  0.85 0.175 0  0.875 0.175 0  0.9 0.175 0  0.925 0.175 0  0.95 0.175 0  0.975 0.175 0  1 0.175 0  0 0.2 0  0.025 0.2 0  0.05 0.2 0  0.075 0.2 0  0.1 0.2 0  0.125 0.2 0  0.15 0.2 0  0.175 0.2 0  0.2 0.2 0  0.225 0.2 0  0.25 0.2 0  0.275 0.2 0  0.3 0.2 0  0.325 0.2 0  0.35 0.2 0  0.375 0.2 0  0.4 0.2 0  0.425 0.2 0  0.45 0.2 0  0.475 0.2 0  0.5 0.2 0  0.525 0.2 0  0.55 0.2 0  0.575 0.2 0  0.6 0.2 0  0.625 0.2 0  0.65 0.2 0  0.675 0.2 0  0.7 0.2 0  0.725 0.2 0  0.75 0.2 0  0.775 0.2 0  0.8 0.2 0  0.825 0.2 0  0.85 0.2 0  0.875 0.2 0  0.9 0.2 0  0.925 0.2 0  0.95 0.2 0  0.975 0.2 0  1 0.2 0  0 0.225 0  0.025 0.225 0  0.05 0.225 0  0.075 0.225 0  0.1 0.225 0  0.125 0.225 0  0.15 0.225 0  0.175 0.225 0  0.2 0.225 0  0.225 0.225 0  0.25 0.225 0  0.275 0.225 0  0.3 0.225 0  0.325 0.225 0  0.35 0.225 0  0.375 0.225 0  0.4 0.225 0  0.425 0.225 0  0.45 0.225 0  0.475 0.225 0  0.5 0.225 0  0.525 0.225 0  0.55 0.225 0  0.575 0.225 0  0.6 0.225 0  0.625 0.225 0  0.65 0.225 0  0.675 0.225 0  0.7 0.225 0  0.725 0.225 0  0.75 0.225 0  0.775 0.225 0  0.8 0.225 0  0.825 0.225 0  0.85 0.225 0  0.875 0.225 0  0.9 0.225 0  0.925 0.225 0  0.95 0.225 0  0.975 0.225 0  1 0.225 0  0 0.25 0  0.025 0.25 0  0.05 0.25 0  0.075 0.25 0  0.1 0.25 0  0.125 0.25 0  0.15 0.25 0  0.175 0.25 0  0.2 0.25 0  0.225 0.25 0  0.25 0.25 0  0.275 0.25 0  0.3 0.25 0  0.325 0.25 0  0.35 0.25 0  0.375 0.25 0  0.4 0.25 0  0.425 0.25 0  0.45 0.25 0  0.475 0.25 0  0.5 0.25 0  0.525 0.25 0  0.55 0.25 0  0.575 0.25 0  0.6 0.25 0  0.625 0.25 0  0.65 0.25 0  0.675 0.25 0  0.7 0.25 0  0.725 0.25 0  0.75 0.25 0  0.775 0.25 0  0.8 0.25 0  0.825 0.25 0  0.85 0.25 0  0.875 0.25 0  0.9 0.25 0  0.925 0.25 0  0.95 0.25 0  0.975 0.25 0  1 0.25 0  0 0.275 0  0.025 0.275 0  0.05 0.275 0  0.075 0.275 0  0.1 0.275 0  0.125 0.275 0  0.15 0.275 0  0.175 0.275 0  0.2 0.275 0  0.225 0.275 0  0.25 0.275 0  0.275 0.275 0  0.3 0.275 0  0.325 0.275 0  0.35 0.275 0  0.375 0.275 0  0.4 0.275 0  0.425 0.275 0  0.45 0.275 0  0.475 0.275 0  0.5 0.275 0  0.525 0.275 0  0.55 0.275 0  0.575 0.275 0  0.6 0.275 0  0.625 0.275 0  0.65 0.275 0  0.675 0.275 0  0.7 0.275 0  0.725 0.275 0  0.75 0.275 0  0.775 0.275 0  0.8 0.275 0  0.825 0.275 0  0.85 0.275 0  0.875 0.275 0  0.9 0.275 0  0.925 0.275 0  0.95 0.275 0  0.975 0.275 0  1 0.275 0  0 0.3 0  0.025 0.3 0  0.05 0.3 0  0.075 0.3 0  0.1 0.3 0  0.125 0.3 0  0.15 0.3 0  0.175 0.3 0  0.2 0.3 0  0.225 0.3 0  0.25 0.3 0  0.275 0.3 0  0.3 0.3 0  0.325 0.3 0  0.35 0.3 0  0.375 0.3 0  0.4 0.3 0  0.425 0.3 0  0.45 0.3 0  0.475 0.3 0  0.5 0.3 0  0.525 0.3 0  0.55 0.3 0  0.575 0.3 0  0.6 0.3 0  0.625 0.3 0  0.65 0.3 0  0.675 0.3 0  0.7 0.3 0  0.725 0.3 0  0.75 0.3 0  0.775 0.3 0  0.8 0.3 0  0.825 0.3 0  0.85 0.3 0  0.875 0.3 0  0.9 0.3 0  0.925 0.3 0  0.95 0.3 0  0.975 0.3 0  1 0.3 0  0 0.325 0  0.025 0.325 0  0.05 0.325 0  0.075 0.325 0  0.1 0.325 0  0.125 0.325 0  0.15 0.325 0  0.175 0.325 0  0.2 0.325 0  0.225 0.325 0  0.25 0.325 0  0.275 0.325 0  0.3 0.325 0  0.325 0.325 0  0.35 0.325 0  0.375 0.325 0  0.4 0.325 0  0.425 0.325 0  0.45 0.325 0  0.475 0.325 0  0.5 0.325 0  0.525 0.325 0  0.55 0.325 0  0.575 0.325 0  0.6 0.325 0  0.625 0.325 0  0.65 0.325 0  0.675 0.325 0  0.7 0.325 0  0.725 0.325 0  0.75 0.325 0  0.775 0.325 0  0.8 0.325 0  0.825 0.325 0  0.85 0.325 0  0.875 0.325 0  0.9 0.325 0  0.925 0.325 0  0.95 0.325 0  0.975 0.325 0  1 0.325 0  0 0.35 0  0.025 0.35 0  0.05 0.35 0  0.075 0.35 0  0.1 0.35 0  0.125 0.35 0  0.15 0.35 0  0.175 0.35 0  0.2 0.35 0  0.225 0.35 0  0.25 0.35 0  0.275 0.35 0  0.3 0.35 0  0.325 0.35 0  0.35 0.35 0  0.375 0.35 0  0.4 0.35 0  0.425 0.35 0  0.45 0.35 0  0.475 0.35 0  0.5 0.35 0  0.525 0.35 0  0.55 0.35 0  0.575 0.35 0  0.6 0.35 0  0.625 0.35 0  0.65 0.35 0  0.675 0.35 0  0.7 0.35 0  0.725 0.35 0  0.75 0.35 0  0.775 0.35 0  0.8 0.35 0  0.825 0.35 0  0.85 0.35 0  0.875 0.35 0  0.9 0.35 0  0.925 0.35 0  0.95 0.35 0  0.975 0.35 0  1 0.35 0  0 0.375 0  0.025 0.375 0  0.05 0.375 0  0.075 0.375 0  0.1 0.375 0  0.125 0.375 0  0.15 0.375 0  0.175 0.375 0  0.2 0.375 0  0.225 0.375 0  0.25 0.375 0  0.275 0.375 0  0.3 0.375 0  0.325 0.375 0  0.35 0.375 0  0.375 0.375 0  0.4 0.375 0  0.425 0.375 0  0.45 0.375 0  0.475 0.375 0  0.5 0.375 0  0.525 0.375 0  0.55 0.375 0  0.575 0.375 0  0.6 0.375 0  0.625 0.375 0  0.65 0.375 0  0.675 0.375 0  0.7 0.375 0  0.725 0.375 0  0.75 0.375 0  0.775 0.375 0  0.8 0.375 0  0.825 0.375 0  0.85 0.375 0  0.875 0.375 0  0.9 0.375 0  0.925 0.375 0  0.95 0.375 0  0.975 0.375 0  1 0.375 0  0 0.4 0  0.025 0.4 0  0.05 0.4 0  0.075 0.4 0  0.1 0.4 0  0.125 0.4 0  0.15 0.4 0  0.175 0.4 0  0.2 0.4 0  0.225 0.4 0  0.25 0.4 0  0.275 0.4 0  0.3 0.4 0  0.325 0.4 0  0.35 0.4 0  0.375 0.4 0  0.4 0.4 0  0.425 0.4 0  0.45 0.4 0  0.475 0.4 0  0.5 0.4 0  0.525 0.4 0  0.55 0.4 0  0.575 0.4 0  0.6 0.4 0  0.625 0.4 0  0.65 0.4 0  0.675 0.4 0  0.7 0.4 0  0.725 0.4 0  0.75 0.4 0  0.775 0.4 0  0.8 0.4 0  0.825 0.4 0  0.85 0.4 0  0.875 0.4 0  0.9 0.4 0  0.925 0.4 0  0.95 0.4 0  0.975 0.4 0  1 0.4 0  0 0.425 0  0.025 0.425 0  0.05 0.425 0  0.075 0.425 0  0.1 0.425 0  0.125 0.425 0  0.15 0.425 0  0.175 0.425 0  0.2 0.425 0  0.225 0.425 0  0.25 0.425 0  0.275 0.425 0  0.3 0.425 0  0.325 0.425 0  0.35 0.425 0  0.375 0.425 0  0.4 0.425 0  0.425 0.425 0  0.45 0.425 0  0.475 0.425 0  0.5 0.425 0  0.525 0.425 0  0.55 0.425 0  0.575 0.425 0  0.6 0.425 0  0.625 0.425 0  0.65 0.425 0  0.675 0.425 0  0.7 0.425 0  0.725 0.425 0  0.75 0.425 0  0.775 0.425 0  0.8 0.425 0  0.825 0.425 0  0.85 0.425 0  0.875 0.425 0  0.9 0.425 0  0.925 0.425 0  0.95 0.425 0  0.975 0.425 0  1 0.425 0  0 0.45 0  0.02
[...]
<PointData  Scalars="ControlVisualisation"> 
<DataArray  type="Float64"  Name="ControlVisualisation"  format="ascii">2.7141288824623960e-01  2.1558686035309427e-01  2.1593363954753925e-01  2.1663669639124927e-01  2.1758329686856406e-01  2.1864352745885970e-01  2.1971010857204140e-01  2.2071447224533167e-01  2.2162262466675678e-01  2.2242325000505070e-01  2.2311752447149538e-01  2.2371268298090810e-01  2.2421849193796617e-01  2.2464533639678136e-01  2.2500309453638412e-01  2.2530040570636245e-01  2.2554417760269713e-01  2.2573928214122341e-01  2.2588842493259523e-01  2.2599217786600434e-01  2.2604915761266114e-01  2.2605632491999753e-01  2.2600937495094423e-01  2.2590318587187411e-01  2.2573228522065278e-01  2.2549128129734761e-01  2.2517517241840762e-01  2.2477940956887668e-01  2.2429956067252821e-01  2.2373043965313036e-01  2.2306484894420286e-01  2.2229285370152083e-01  2.2140388647072129e-01  2.2039460171775546e-01  2.1928498885002903e-01  2.1813828550756548e-01  2.1706764215199292e-01  2.1621318946057522e-01  2.1568985019621059e-01  2.1553170965274174e-01  3.4692231199199930e-01  2.1558499598001357e-01  1.2747819845681715e-01  1.2905403284714165e-01  1.3187469110483174e-01  1.3573853658754628e-01  1.4022167733929058e-01  1.4491315198712157e-01  1.4950944554676412e-01  1.5382261177437156e-01  1.5775510531320799e-01  1.6126870456511280e-01  1.6436053063382106e-01  1.6704731766204237e-01  1.6935540891572745e-01  1.7131419999123698e-01  1.7295163102195121e-01  1.7429100731340366e-01  1.7534883619461236e-01  1.7613359074680110e-01  1.7664540118512242e-01  1.7687667098767779e-01  1.7681355994149767e-01  1.7643820301749116e-01  1.7573144488101683e-01  1.7467575517500999e-01  1.7325784920385465e-01  1.7147035329314544e-01  1.6931183641166975e-01  1.6678455466663536e-01  1.6388984899451248e-01  1.6062265285222371e-01  1.5696936581432769e-01  1.5291711017990886e-01  1.4848381102797220e-01  1.4377239192980912e-01  1.3902226091653738e-01  1.3461553547142835e-01  1.3100379702716997e-01  1.2854014595135840e-01  1.2719403970923104e-01  2.1553122796156379e-01  2.1593217218640620e-01  1.2913696887089313e-01  1.3270423111873147e-01  1.3795652812388293e-01  1.4521859129094936e-01  1.5386313639118099e-01  1.6315419482007412e-01  1.7247941444662673e-01  1.8141060828711958e-01  1.8969242643103873e-01  1.9720053015496994e-01  2.0389801932765608e-01  2.0980004889396053e-01  2.1494832284716303e-01  2.1939398254497511e-01  2.2318646901455028e-01  2.2636611930871703e-01  2.2895910185349932e-01  2.3097422156296388e-01  2.3240166755850553e-01  2.3321387351706627e-01  2.3336850403330370e-01  2.3281336175032319e-01  2.3149278883619293e-01  2.2935491004132591e-01  2.2635872331319135e-01  2.2247966453643564e-01  2.1771212799003323e-01  2.1206710216099850e-01  2.0556535069318921e-01  1.9822890781969890e-01  1.9008092032494189e-01  1.8116989993147231e-01  1.7163397099772112e-01  1.6178980486801936e-01  1.5218286602334635e-01  1.4355537163140972e-01  1.3665349205461902e-01  1.3189782711005107e-01  1.2854387046352445e-01  2.1567936767805365e-01  2.1671332423215145e-01  1.3253581944183426e-01  1.3918193312757746e-01  1.4664134767765818e-01  1.5628914136471839e-01  1.6727755578140574e-01  1.7862486030453781e-01  1.8962706834837084e-01  1.9988900144746685e-01  2.0924712331085979e-01  2.1767549852499651e-01  2.2521410757557647e-01  2.3192667360356597e-01  2.3788131492121295e-01  2.4314283714597279e-01  2.4776804163637869e-01  2.5180040009285465e-01  2.5526425063862507e-01  2.5816009390005268e-01  2.6046232322735818e-01  2.6211993696823116e-01  2.6306012759890046e-01  2.6319432031798734e-01  2.6242615466783398e-01  2.6066092063777085e-01  2.5781568642284158e-01  2.5382907211523859e-01  2.4866836913770352e-01  2.4233055117677543e-01  2.3483450525993660e-01  2.2619821765758621e-01  2.1641386837427976e-01  2.0544412477195750e-01  1.9330389654792959e-01  1.8024191622561117e-01  1.6696428098168209e-01  1.5464680113184384e-01  1.4450010484504616e-01  1.3727614651184861e-01  1.3111000754647933e-01  2.1616079651567857e-01  2.1801823003751927e-01  1.3839251821634235e-01  1.5143258803186682e-01  1.6283465467299199e-01  1.7542876018263964e-01  1.8800087352904077e-01  1.9956200515108574e-01  2.0975555204561741e-01  2.1865156389597651e-01  2.2647720153433976e-01  2.3345414700767392e-01  2.3974502419713856e-01  2.4546189832243842e-01  2.5068906444488614e-01  2.5549636396998410e-01  2.5994041388758343e-01  2.6405931842374730e-01  2.6786636322538404e-01  2.7134584139201812e-01  2.7445217898001478e-01  2.7711229901913415e-01  2.7923053077497012e-01  2.8069525899568587e-01  2.8138684438113598e-01  2.8118691973627363e-01  2.7998931328214266e-01  2.7771270191715880e-01  2.7431174183068863e-01  2.6978320420365032e-01  2.6415481477842351e-01  2.5744198066920720e-01  2.4957094702275334e-01  2.4024097414392287e-01  2.2886156815193373e-01  2.1474232622324493e-01  1.9788340127907295e-01  1.7963346803472810e-01  1.6251169485911182e-01  1.4893664560675907e-01  1.3580842211177055e-01  2.1697568729619296e-01  2.1980804584411806e-01  1.4915056453621797e-01  1.7436664887319697e-01  1.9109807781007498e-01  2.0485296759684693e-01  2.1586726641694828e-01  2.2430557304860427e-01  2.3071110429717745e-01  2.3573664762585844e-01  2.3992471663814705e-01  2.4364736494566258e-01  2.4713218633760750e-01  2.5051435442337633e-01  2.5387975258463780e-01  2.5728794114567866e-01  2.6077828354584842e-01  2.6436743530545886e-01  2.6804511746924853e-01  2.7177205089851442e-01  2.7548137487669527e-01  2.7908320369568346e-01  2.8247106631708058e-01  2.8552877239781760e-01  2.8813675205312766e-01  2.9017802940302950e-01  2.9154528703338767e-01  2.9215184159305280e-01  2.9194737645602931e-01  2.9094337343021737e-01  2.8922858771965149e-01  2.8697830743742547e-01  2.8437147139717905e-01  2.8132398353303867e-01  2.7702682350886915e-01  2.6932152832207024e-01  2.5529338857698203e-01  2.3335988243425515e-01  2.0603929989602610e-01  1.7727978469148703e-01  1.4391298608461728e-01  2.1746429250611121e-01  2.2823915088065105e-01  1.7496933607029708e-01  2.2256024713833913e-01  2.3981555628548784e-01  2.4797622169956912e-01  2.5138735689086933e-01  2.5206858674082999e-01  2.5135482101777962e-01  2.5018267542555134e-01  2.4913000727851670e-01  2.4849108369968018e-01  2.4837800285196004e-01  2.4882094025770599e-01  2.4983010539089745e-01  2.5141407842914520e-01  2.5357364697472362e-01  2.5629097071974344e-01  2.5952359561628202e-01  2.6320479100046185e-01  2.6724848769663456e-01  2.7155647212751799e-01  2.7602568725123833e-01  2.8055413710564836e-01  2.8504515743780567e-01  2.8941161577864360e-01  2.9358311694875583e-01  2.9751912858232604e-01  3.0122705246953141e-01  3.0478724688623715e-01  3.0836841709744595e-01  3.1232143767942566e-01  3.1720894335866590e-01  3.2398750577871355e-01  3.3329979341583915e-01  3.4309305198214468e-01  3.4579888740341941e-01  3.3263155257372551e-01  3.0520687031976046e-01  2.6150281018447480e-01  1.8247132063181323e-01  2.2216240474006677e-01  3.0364130744298445e-01  2.6001103014078936e-01  3.2229052893052113e-01  3.2202253741088416e-01  3.1196335486697646e-01  2.9850801083919570e-01  2.8477670907491204e-01  2.7267004192484717e-01  2.6291885226945905e-01  2.5548039118774152e-01  2.5001197924857127e-01  2.4614895473132223e-01  2.4362186889135773e-01  2.4227188824425697e-01  2.4201222618116805e-01  2.4278195067024025e-01  2.4451542988954969e-01  2.4713054271714197e-01  2.5053104181214653e-01  2.5461623933206701e-01  2.5929183180488286e-01  2.6447758219719797e-01  2.7010969090919340e-01  2.7613825640772044e-01  2.8252354236995986e-01  2.8923816829273330e-01  2.9628374104311123e-01  3.0372716961520535e-01  3.1175798711088970e-01  3.2075929215560695e-01  3.3151822989734864e-01  3.4538775713674125e-01  3.6533719908453066e-01  3.9454340209719391e-01  4.3539241153560215e-01  4.8168610269511369e-01  5.2101893974341051e-01  5.4137447871962596e-01  5.3232168147672931e-01  4.8530101401383219e-01  3.4098917143904689e-01  4.9205514823313029e-01  4.7731440575342970e-01  4.5859701806744052e-01  4.1804819132924426e-01  3.8043744425247239e-01  3.4472835863720608e-01  3.1315531329229479e-01  2.8783512323917881e-01  2.6917971072910007e-01  2.5604920809660364e-01  2.4693566899322839e-01  2.4061136458641494e-01  2.3628869594537516e-01  2.3355423843932541e-01  2.3220601632745513e-01  2.3212176648863098e-01  2.3320056661598132e-01  2.3534347275249196e-01  2.3845008236940207e-01  2.4242607700506869e-01  2.4719531862105459e-01  2.5270878768986577e-01  2.5894620813997027e-01  2.6591069839425752e-01  2.7362050449592945e-01  2.8210538227574855e-01  2.9141816550393351e-01  3.0167145964905551e-01  3.1310372209714143e-01  3.2617964558528917e-01  3.4180799165341363e-01  3.6155412810822146e-01  3.8904879633618444e-01  4.2883429144466501e-01  4.9967991709778348e-01  5.6360822306121849e-01  5.9704357887081172e-01  6.2952942846893822e-01  6.8369142054490351e-01  7.9843573478988661e-01  7.2848183878379058e-01  6.1432574044817689e-01  6.3391103106935620e-01  5.4011344763735780e-01  4.6695113024078783e-01  4.1114345819438791e-01  3.6471576400167954e-01  3.2444933488819055e-01  2.9189610845935532e-01  2.6819364801987466e-01  2.5202945016422690e-01  2.4124292739767539e-01  2.3398771728297479e-01  2.2905630287690265e-01  2.2583929807253883e-01  2.2409016876332255e-01  2.2368316594082371e-01  2.2450638819363794e-01  2.2644884199086518e-01  2.2940705869718159e-01  2.3329231587519189e-01  2.3803872074824020e-01  2.4360890593518850e-01  2.4999443195164672e-01  2.5721040934955008e-01  2.6528569434671473e-01  2.7425522241732075e-01  2.8416870983817849e-01  2.9513060222399656e-01  3.0737490729609102e-01  3.2137139737224818e-01  3.3800158929586666e-01  3.5897935751619420e-01  3.8850161516071530e-01  4.3456908624149626e-01  5.2788889194210675e-01  5.2286165694870834e-01  5.6315130000631164e-01  7.2053430896435555e-01  8.2865674524239241e-01  8.8434144922788660e-01  8.3932303455366364e-01  6.4630535037325765e-01  6.7372047771999266e-01  5.6433261643688093e-01  4.7769255184626969e-01  4.1283576594888421e-01  3.6342471572969809e-01  3.2198216639037180e-01  2.8856091015352436e-01  2.6410018042191408e-01  2.4741544950736399e-01  2.3634154534508933e-01  2.2895873442313375e-01  2.2398562597303090e-01  2.2074784833737360e-01  2.1896452702077124e-01  2.1850939838411393e-01  2.1927868392445071e-01  2.2116174994544513e-01  2.2405094184163374e-01  2.2785714859843043e-01  2.3252276386271548e-01  2.3802832051233463e-01  2.4438848553172837e-01  2.5163253623683235e-01  2.5977248809594616e-01  2.6877982339117923e-01  2.7860379771399674e-01  2.8926238278193461e-01  3.0103465984104533e-01  3.1476477338507786e-01  3.3214218210417623e-01  3.5542275755536806e-01  3.8496717451753770e-01  4.1111936874111671e-01  4.4815177622543650e-01  2.4698960528646260e-01  6.4846115170762819e-01  7.5936535693778984e-01  8.4895403942236902e-01  8.9832763209128441e-01  8.6298303393526221e-01  6.0631724872857728e-01  6.3639856066081335e-01  5.2585082324302013e-01  4.4998085118732695e-01  3.9243874132943679e-01  3.4709360198550465e-01  3.0944446923244606e-01  2.7987072495343401e-01  2.5820490905287591e-01  2.4312199588859679e-01  2.3282622874194900e-01  2.2581652969236635e-01  2.2111111605196704e-01  2.1815993854421445e-01  2.1667897853965842e-01  2.1650368411848345e-01  2.1750116182068679e-01  2.1953721044211821e-01  2.2247905408818019e-01  2.2621895526273411e-01  2.3070750364546727e-01  2.3597983897136254e-01  2.4214421318355950e-01  2.4930886852091955e-01  2.5748351902926797e-01  2.6654066432670598e-01  2.7628319700480869e-01  2.8662833964655920e-01  2.9796449885465454e-01  3.1165563487747816e-01  3.3005064317747712e-01  3.5491359813403844e-01  3.8652932781952043e-01  4.2362306131410021e-01  4.6828049068624267e-01  5.6549169433660129e-01  7.0222613739077322e-01  7.8514934653611490e-01  8.4500465357022236e-01  8.8822291270931497e-01  8.5048124945171921e-01  4.5710676881755719e-01  4.8441233373267734e-01  4.2496444161378094e-01  3.8175280761246777e-01  3.4148397382629675e-01  3.0973501628122668e-01  2.8395550160449268e-01  2.6368605724708760e-01  2.4826664436873203e-01  2.3691853588673831e-01  2.2873037212437636e-01  2.2294773391446748e-01  2.1906306051680910e-01  2.1677203617102639e-01  2.1589517301527855e-01  2.1630369852260217e-01  2.1786519794929418e-01  2.2041460772173541e-01  2.2375520707149210e-01  2.2769620327957740e-01  2.3212640131516363e-01  2.3709614544704605e-01  2.4283539286781747e-01  2.4963238571403776e-01  2.5762735530430741e-01  2.6671692890582765e-01  2.7665686357456187e-01  2.8729990137008349e-01  2.9900831652836607e-01  3.1324258175481534e-01  3.3271548140133178e-01  3.6059007925282321e-01  4.0011079943378303e-01  4.5117136228853238e-01  5.0844275608888545e-01  5.8572533600848542e-01  7.0687740653213538e-01  7.7075036499007910e-01  8.0447936465535175e-01  8.2329275625163134e-01  7.5340621914870343e-01  2.6439520722223858e-01  2.5567275010646273e-01  2.8015821038440891e-01  2.7891318485945354e-01  2.6950525443249979e-01  2.5968705162683015e-01  2.5009798499973318e-01  2.4145425000223758e-01  2.3403382951378479e-01  2.2795404995413451e-01  2.2317401494704076e-01  2.1959755839662426e-01  2.1714517455100923e-01  2.1578998144379810e-01  2.1555333971509816e-01  2.1647100574664629e-01  2.1854219185922730e-01  2.2167588745001685e-01  2.2566014383125382e-01  2.3019433845891196e-01  2.3501061550829130e-01  2.4004316101996165e-01  2.4552303052511487e-01  2.5187943307342486e-01  2.5948390501502672e-01  2.6846766949460910e-01  2.7876689987483844e-01  2.9031977768898060e-01  3.0339502702054177e-01  3.1911859329655656e-01  3.3991579961178703e-01  3.6920168090923133e-01  4.0989815338538577e-01  4.6252105353881789e-01  5.2585863180942172e-01  6.0017128374480799e-01  6.7374370428117414e-01  7.0942608285465392e-01  7.0327328058531846e-01  5.5844740651867009e-01  4.2994920118060803e-01  2.2149603749549246e-01  1.6310995648982091e-01  1.9959079446882780e-01  2.1184039546156377e-01  2.1803453401145967e-01  2.2106407430642958e-01  2.2189016346340515e-01  2.2141921131753484e-01  2.2025613909445413e-01  2.1885220671736405e-01  2.1750100493049690e-01  2.1638149199433654e-01  2.1561495326262323e-01  2.1532173355433043e-01  2.1565312608378867e-01  2.1679307917022564e-01  2.1892450800440411e-01  2.2215660896387382e-01  2.2643175480782712e-01  2.3148067904706715e-01  2.3691929312319565e-01  2.4248674856644648e-01  2.4825383315412058e-01  2.5461090183345259e-01  2.6205064335678885e-01  2.7095842156556527e-01  2.8157413818264598e-01  2.9409065962960540e-01  3.0883201224321416e-01  3.2654439051137396e-01  3.4869199241971599e-01  3.7735873001499365e-01  4.1446713629259035e-01  4.6073070577569208e-01  5.1490202755623238e-01  5.7205266459997428e-01  6.2170651316256986e-01  6.4357309323519862e-01  5.4875528542860252e-01  2.9327716105088625e-01  2.4824932432939437e-01  2.1782721148851730e-01  1.4082999506624708e-01  1.6022574080059476e-01  1.7243288739704643e-01  1.8282470063625622e-01  1.9106588512172559e-01  1.9718772460065587e-01  2.0162968381352026e-01  2.0481565736397930e-01  2.0713991805070653e-01  2.0890885696141664e-01  2.1034831363288575e-01  2.1162605670680168e-01  2.1288898148164320e-01  2.1429796511319962e-01  2.1605242064997779e-01  2.1839271806071003e-01  2.2156141777577154e-01  2.2570976825382372e-01  2.3078696870228552e-01  2.3652725922174983e-01  2.4262441885381861e-01  2.4898762316757242e-01  2.5584608544275506e-01  2.6363482994445275e-01  2.7281936261957468e-01  2.8380963728453262e-01  2.9696434670900762e-01  3.1263353429412033e-01  3.3123167359430872e-01  3.5331152130176979e-01  3.7951020212073250e-01  4.1023787687084917e-01  4.4510274063579264e-01  4.8179425194669578e-01  5.1226918139962074e-01  5.1599010544491219e-01  4.7374507504282887e-01  3.8259446688238086e-01  2.2409268319756420e-01  2.2934005782408740e-01  2.1665274672598037e-01  1.3288183866120384e-01  1.4115133158741386e-01  1.4901987604536418e-01  1.5803062699667314e-01  1.6692162783720885e-01  1.7499267473543451e-01  1.8202145695263663e-01  1.8802254962263371e-01  1.9311623801894207e-01  1.9744673136913787e-01  2.0116363579243168e-01  2.0441209560909052e-01  2.0733542821995737e-01  2.1008549770510995e-01  2.1283991576302988e-01  2.1581599733711504e-01  2.1926140938922642e-01  2.2340057304889663e-01  2.2834478106858769e-01  2.3403574278818154e-01  2.4031337874919900e-01  2.4708923901444241e-01  2.5447480918679694e-01  2.6276398383765498e-01  2.7232678771371444e-01  2.8351146423249618e-01  2.9657726769429110e-01  3.1163680358915208e-01  3.2860855819147955e-01  3.4719897758211948e-01  3.6689064941081379e-01  3.8680573430906534e-01  4.0526625098503571e-01  4.1909887084667480e-01  4.2289923702865001e-01  4.0799896740586311e-01  3.6380031503564797e-01  2.9104231125842694e-01  1.9095273630752663e-01  2.2779056866544800e-01  2.1571779472562685e-01  1.2845422295393560e-01  1.3211579064819631e-01  1.3741383912975860e-01  1.4439475182053568e-01  1.5214541668430343e-01  1.5995691428838077e-01  1.6740561593503628e-01  1.7430491103784401e-01  1.8058707685550210e-01  1.8624560597666803e-01  1.9131523377310183e-01  1.9586277728320869e-01  1.9998274523707141e-01  2.0379558982825230e-01  2.0745215686503699e-01  2.1113938305075131e-01  2.1507303811797063e-01  2.1946361722187643e-01  2.2446104893417765e-01  2.3011632783574076e-01  2.3640661604153576e-01  2.4331897152851745e-01  2.5092326175686552e-01  2.5937499780641882e-01  2.6885561200718761e-01  2.7949035799562866e-01  2.9126911524802906e-01  3.0398508131527957e-01  3.1721553146732673e-01  3.3035676201367065e-01  3.4264796574628192e-01  3.5303153411083132e-01  3.5981761303044729e-01  3.6048203633868925e-01  3.5189954609907620e-01  3.3077738216198688e-01  2.9445398324681649e-01  2.4481294040930682e-01  1.7640268888545224e-01  2.2567712974537943e-01  2.1520369636980843e-01  1.2631458215987013e-01  1.2816471487510855e-01  1.3233585998734559e-01  1.3816456614279207e-01  1.4497159622722941e-01  1.5213767716004156e-01  1.5923448497720225e-01  1.6602217296811791e-01  1.7237871536020527e-01  1.7825282211738586e-01  1.8363685685871473e-01  1.8855921060829892e-01  1.9308413342308794e-01  1.9731285298761669e-01  2.0138414039837299e-01  2.0546982805353459e-01  2.0975854628132873e-01  2.1442544275894998e-01  2.1959839361400579e-01  2.2534198144285397e-01  2.3167349956777372e-01  2.3859934308311195e-01  2.4614063811647757e-01  2.5432587137407775e-01  2.6315316449999798e-01  2.7254005692215166e-01  2.8227920545768526e-01  2.9201244761779188e-01  3.0122335385238497e-01  3.0923199067238327e-01  3.1518574140747863e-01  3.1809614567018896e-01  3.1695673409490804e-01  3.1079120916705183e-01  2.9852420268403312e-01  2.7903553941805126e-01  2.5160859233083999e-01  2.1734130727067402e-01  1.6713413757578016e-01  2.2421582910939938e-01  2.1505284202312863e-01  1.2576617714192040e-01  1.2716944061890056e-01  1.3100690157960571e-01  1.3642565542195101e-01  1.4280917619287445e-01  1.4957677032896025e-01  1.5629560183341984e-01  1.6270586039536578e-01  1.6868198536944429e-01  1.7418205985160862e-01  1.7921168642953944e-01  1.8381271242257904e-01  1.8806521792782152e-01  1.9209035048548201e-01  1.9604537387126364e-01  2.0010749807009520e-01  2.0444817001083784e-01  2.0920509078238669e-01  2.1446283715960107e-01  2.2025010532258188e-01  2.2655201459974114e-01  2.3332627091198796e-01  2.4051016084410773e-01  2.4801216333586357e-01  2.5569108380337813e-01  2.6333075497382497e-01  2.7061847210140477e-01  2.7713373281492937e-01  2.8235508944051957e-01  2.8569704050504130e-01  2.8658166190849399e-01  2.8451921184318790e-01  2.7916213573709558e-01  2.7034441130308207e-01  2.5809645467654302e-01  2.4250027277762817e-01  2.2323739063647233e-01  1.9967520626101021e-01  1.6104631284799500e-01  2.2316444990777923e-01  2.1524045747744366e-01  1.2659021882837065e-01  1.2852803426181419e-01  1.3248270212508578e-01  1.3795104333706223e-01  1.4431897817207912e-01  1.5096378577038586e-01  1.5741179185413665e-01  1.633881203