<?xml version="1.0"?>
<VTKFile type="UnstructuredGrid"  version="0.1"  >
<UnstructuredGrid>
<Piece  NumberOfPoints="1681" NumberOfCells="3200">
<Points>
<DataArray  type="Float64"  NumberOfComponents="3"  format="ascii">0 0 0  0.025 0 0  0.05 0 0  0.075 0 0  0.1 0 0  0.125 0 0  0.15 0 0  0.175 0 0  0.2 0 0  0.225 0 0  0.25 0 0  0.275 0 0  0.3 0 0  0.325 0 0  0.35 0 0  0.375 0 0  0.4 0 0  0.425 0 0  0.45 0 0  0.475 0 0  0.5 0 0  0.525 0 0  0.55 0 0  0.575 0 0  0.6 0 0  0.625 0 0  0.65 0 0  0.675 0 0  0.7 0 0  0.725 0 0  0.75 0 0  0.775 0 0  0.8 0 0  0.825 0 0  0.85 0 0  0.875 0 0  0.9 0 0  0.925 0 0  0.95 0 0  0.975 0 0  1 0 0  0 0.025 0  0.025 0.025 0  0.05 0.025 0  0.075 0.025 0  0.1 0.025 0  0.125 0.025 0  0.15 0.025 0  0.175 0.025 0  0.2 0.025 0  0.225 0.025 0  0.25 0.025 0  0.275 0.025 0  0.3 0.025 0  0.325 0.025 0  0.35 0.025 0  0.375 0.025 0  0.4 0.025 0  0.425 0.025 0  0.45 0.025 0  0.475 0.025 0  0.5 0.025 0  0.525 0.025 0  0.55 0.025 0  0.575 0.025 0  0.6 0.025 0  0.625 0.025 0  0.65 0.025 0  0.675 0.025 0  0.7 0.025 0  0.725 0.025 0  0.75 0.025 0  0.775 0.025 0  0.8 0.025 0  0.825 0.025 0  0.85 0.025 0  0.875 0.025 0  0.9 0.025 0  0.925 0.025 0  0.95 0.025 0  0.975 0.025 0  1 0.025 0  0 0.05 0  0.025 0.05 0  0.05 0.05 0  0.075 0.05 0  0.1 0.05 0  0.125 0.05 0  0.15 0.05 0  0.175 0.05 0  0.2 0.05 0  0.225 0.05 0  0.25 0.05 0  0.275 0.05 0  0.3 0.05 0  0.325 0.05 0  0.35 0.05 0  0.375 0.05 0  0.4 0.05 0  0.425 0.05 0  0.45 0.05 0  0.475 0.05 0  0.5 0.05 0  0.525 0.05 0  0.55 0.05 0  0.575 0.05 0  0.6 0.05 0  0.625 0.05 0  0.65 0.05 0  0.675 0.05 0  0.7 0.05 0  0.725 0.05 0  0.75 0.05 0  0.775 0.05 0  0.8 0.05 0  0.825 0.05 0  0.85 0.05 0  0.875 0.05 0  0.9 0.05 0  0.925 0.05 0  0.95 0.05 0  0.975 0.05 0  1 0.05 0  0 0.075 0  0.025 0.075 0  0.05 0.075 0  0.075 0.075 0  0.1 0.075 0  0.125 0.075 0  0.15 0.075 0  0.175 0.075 0  0.2 0.075 0  0.225 0.075 0  0.25 0.075 0  0.275 0.075 0  0.3 0.075 0  0.325 0.075 0  0.35 0.075 0  0.375 0.075 0  0.4 0.075 0  0.425 0.075 0  0.45 0.075 0  0.475 0.075 0  0.5 0.075 0  0.525 0.075 0  0.55 0.075 0  0.575 0.075 0  0.6 0.075 0  0.625 0.075 0  0.65 0.075 0  0.675 0.075 0  0.7 0.075 0  0.725 0.075 0  0.75 0.075 0  0.775 0.075 0  0.8 0.075 0  0.825 0.075 0  0.85 0.075 0  0.875 0.075 0  0.9 0.075 0  0.925 0.075 0  0.95 0.075 0  0.975 0.075 0  1 0.075 0  0 0.1 0  0.025 0.1 0  0.05 0.1 0  0.075 0.1 0  0.1 0.1 0  0.125 0.1 0  0.15 0.1 0  0.175 0.1 0  0.2 0.1 0  0.225 0.1 0  0.25 0.1 0  0.275 0.1 0  0.3 0.1 0  0.325 0.1 0  0.35 0.1 0  0.375 0.1 0  0.4 0.1 0  0.425 0.1 0  0.45 0.1 0  0.475 0.1 0  0.5 0.1 0  0.525 0.1 0  0.55 0.1 0  0.575 0.1 0  0.6 0.1 0  0.625 0.1 0  0.65 0.1 0  0.675 0.1 0  0.7 0.1 0  0.725 0.1 0  0.75 0.1 0  0.775 0.1 0  0.8 0.1 0  0.825 0.1 0  0.85 0.1 0  0.875 0.1 0  0.9 0.1 0  0.925 0.1 0  0.95 0.1 0  0.975 0.1 0  1 0.1 0  0 0.125 0  0.025 0.125 0  0.05 0.125 0  0.075 0.125 0  0.1 0.125 0  0.125 0.125 0  0.15 0.125 0  0.175 0.125 0  0.2 0.125 0  0.225 0.125 0  0.25 0.125 0  0.275 0.125 0  0.3 0.125 0  0.325 0.125 0  0.35 0.125 0  0.375 0.125 0  0.4 0.125 0  0.425 0.125 0  0.45 0.125 0  0.475 0.125 0  0.5 0.125 0  0.525 0.125 0  0.55 0.125 0  0.575 0.125 0  0.6 0.125 0  0.625 0.125 0  0.65 0.125 0  0.675 0.125 0  0.7 0.125 0  0.725 0.125 0  0.75 0.125 0  0.775 0.125 0  0.8 0.125 0  0.825 0.125 0  0.85 0.125 0  0.875 0.125 0  0.9 0.125 0  0.925 0.125 0  0.95 0.125 0  0.975 0.125 0  1 0.125 0  0 0.15 0  0.025 0.15 0  0.05 0.15 0  0.075 0.15 0  0.1 0.15 0  0.125 0.15 0  0.15 0.15 0  0.175 0.15 0  0.2 0.15 0  0.225 0.15 0  0.25 0.15 0  0.275 0.15 0  0.3 0.15 0  0.325 0.15 0  0.35 0.15 0  0.375 0.15 0  0.4 0.15 0  0.425 0.15 0  0.45 0.15 0  0.475 0.15 0  0.5 0.15 0  0.525 0.15 0  0.55 0.15 0  0.575 0.15 0  0.6 0.15 0  0.625 0.15 0  0.65 0.15 0  0.675 0.15 0  0.7 0.15 0  0.725 0.15 0  0.75 0.15 0  0.775 0.15 0  0.8 0.15 0  0.825 0.15 0  0.85 0.15 0  0.875 0.15 0  0.9 0.15 0  0.925 0.15 0  0.95 0.15 0  0.975 0.15 0  1 0.15 0  0 0.175 0  0.025 0.175 0  0.05 0.175 0  0.075 0.175 0  0.1 0.175 0  0.125 0.175 0  0.15 0.175 0  0.175 0.175 0  0.2 0.175 0  0.225 0.175 0  0.25 0.175 0  0.275 0.175 0  0.3 0.175 0  0.325 0.175 0  0.35 0.175 0  0.375 0.175 0  0.4 0.175 0  0.425 0.175 0  0.45 0.175 0  0.475 0.175 0  0.5 0.175 0  0.525 0.175 0  0.55 0.175 0  0.575 0.175 0  0.6 0.175 0  0.625 0.175 0  0.65 0.175 0  0.675 0.175 0  0.7 0.175 0  0.725 0.175 0  0.75 0.175 0  0.775 0.175 0  0.8 0.175 0  0.825 0.175 0  0.85 0.175 0  0.875 0.175 0  0.9 0.175 0  0.925 0.175 0  0.95 0.175 0  0.975 0.175 0  1 0.175 0  0 0.2 0  0.025 0.2 0  0.05 0.2 0  0.075 0.2 0  0.1 0.2 0  0.125 0.2 0  0.15 0.2 0  0.175 0.2 0  0.2 0.2 0  0.225 0.2 0  0.25 0.2 0  0.275 0.2 0  0.3 0.2 0  0.325 0.2 0  0.35 0.2 0  0.375 0.2 0  0.4 0.2 0  0.425 0.2 0  0.45 0.2 0  0.475 0.2 0  0.5 0.2 0  0.525 0.2 0  0.55 0.2 0  0.575 0.2 0  0.6 0.2 0  0.625 0.2 0  0.65 0.2 0  0.675 0.2 0  0.7 0.2 0  0.725 0.2 0  0.75 0.2 0  0.775 0.2 0  0.8 0.2 0  0.825 0.2 0  0.85 0.2 0  0.875 0.2 0  0.9 0.2 0  0.925 0.2 0  0.95 0.2 0  0.975 0.2 0  1 0.2 0  0 0.225 0  0.025 0.225 0  0.05 0.225 0  0.075 0.225 0  0.1 0.225 0  0.125 0.225 0  0.15 0.225 0  0.175 0.225 0  0.2 0.225 0  0.225 0.225 0  0.25 0.225 0  0.275 0.225 0  0.3 0.225 0  0.325 0.225 0  0.35 0.225 0  0.375 0.225 0  0.4 0.225 0  0.425 0.225 0  0.45 0.225 0  0.475 0.225 0  0.5 0.225 0  0.525 0.225 0  0.55 0.225 0  0.575 0.225 0  0.6 0.225 0  0.625 0.225 0  0.65 0.225 0  0.675 0.225 0  0.7 0.225 0  0.725 0.225 0  0.75 0.225 0  0.775 0.225 0  0.8 0.225 0  0.825 0.225 0  0.85 0.225 0  0.875 0.225 0  0.9 0.225 0  0.925 0.225 0  0.95 0.225 0  0.975 0.225 0  1 0.225 0  0 0.25 0  0.025 0.25 0  0.05 0.25 0  0.075 0.25 0  0.1 0.25 0  0.125 0.25 0  0.15 0.25 0  0.175 0.25 0  0.2 0.25 0  0.225 0.25 0  0.25 0.25 0  0.275 0.25 0  0.3 0.25 0  0.325 0.25 0  0.35 0.25 0  0.375 0.25 0  0.4 0.25 0  0.425 0.25 0  0.45 0.25 0  0.475 0.25 0  0.5 0.25 0  0.525 0.25 0  0.55 0.25 0  0.575 0.25 0  0.6 0.25 0  0.625 0.25 0  0.65 0.25 0  0.675 0.25 0  0.7 0.25 0  0.725 0.25 0  0.75 0.25 0  0.775 0.25 0  0.8 0.25 0  0.825 0.25 0  0.85 0.25 0  0.875 0.25 0  0.9 0.25 0  0.925 0.25 0  0.95 0.25 0  0.975 0.25 0  1 0.25 0  0 0.275 0  0.025 0.275 0  0.05 0.275 0  0.075 0.275 0  0.1 0.275 0  0.125 0.275 0  0.15 0.275 0  0.175 0.275 0  0.2 0.275 0  0.225 0.275 0  0.25 0.275 0  0.275 0.275 0  0.3 0.275 0  0.325 0.275 0  0.35 0.275 0  0.375 0.275 0  0.4 0.275 0  0.425 0.275 0  0.45 0.275 0  0.475 0.275 0  0.5 0.275 0  0.525 0.275 0  0.55 0.275 0  0.575 0.275 0  0.6 0.275 0  0.625 0.275 0  0.65 0.275 0  0.675 0.275 0  0.7 0.275 0  0.725 0.275 0  0.75 0.275 0  0.775 0.275 0  0.8 0.275 0  0.825 0.275 0  0.85 0.275 0  0.875 0.275 0  0.9 0.275 0  0.925 0.275 0  0.95 0.275 0  0.975 0.275 0  1 0.275 0  0 0.3 0  0.025 0.3 0  0.05 0.3 0  0.075 0.3 0  0.1 0.3 0  0.125 0.3 0  0.15 0.3 0  0.175 0.3 0  0.2 0.3 0  0.225 0.3 0  0.25 0.3 0  0.275 0.3 0  0.3 0.3 0  0.325 0.3 0  0.35 0.3 0  0.375 0.3 0  0.4 0.3 0  0.425 0.3 0  0.45 0.3 0  0.475 0.3 0  0.5 0.3 0  0.525 0.3 0  0.55 0.3 0  0.575 0.3 0  0.6 0.3 0  0.625 0.3 0  0.65 0.3 0  0.675 0.3 0  0.7 0.3 0  0.725 0.3 0  0.75 0.3 0  0.775 0.3 0  0.8 0.3 0  0.825 0.3 0  0.85 0.3 0  0.875 0.3 0  0.9 0.3 0  0.925 0.3 0  0.95 0.3 0  0.975 0.3 0  1 0.3 0  0 0.325 0  0.025 0.325 0  0.05 0.325 0  0.075 0.325 0  0.1 0.325 0  0.125 0.325 0  0.15 0.325 0  0.175 0.325 0  0.2 0.325 0  0.225 0.325 0  0.25 0.325 0  0.275 0.325 0  0.3 0.325 0  0.325 0.325 0  0.35 0.325 0  0.375 0.325 0  0.4 0.325 0  0.425 0.325 0  0.45 0.325 0  0.475 0.325 0  0.5 0.325 0  0.525 0.325 0  0.55 0.325 0  0.575 0.325 0  0.6 0.325 0  0.625 0.325 0  0.65 0.325 0  0.675 0.325 0  0.7 0.325 0  0.725 0.325 0  0.75 0.325 0  0.775 0.325 0  0.8 0.325 0  0.825 0.325 0  0.85 0.325 0  0.875 0.325 0  0.9 0.325 0  0.925 0.325 0  0.95 0.325 0  0.975 0.325 0  1 0.325 0  0 0.35 0  0.025 0.35 0  0.05 0.35 0  0.075 0.35 0  0.1 0.35 0  0.125 0.35 0  0.15 0.35 0  0.175 0.35 0  0.2 0.35 0  0.225 0.35 0  0.25 0.35 0  0.275 0.35 0  0.3 0.35 0  0.325 0.35 0  0.35 0.35 0  0.375 0.35 0  0.4 0.35 0  0.425 0.35 0  0.45 0.35 0  0.475 0.35 0  0.5 0.35 0  0.525 0.35 0  0.55 0.35 0  0.575 0.35 0  0.6 0.35 0  0.625 0.35 0  0.65 0.35 0  0.675 0.35 0  0.7 0.35 0  0.725 0.35 0  0.75 0.35 0  0.775 0.35 0  0.8 0.35 0  0.825 0.35 0  0.85 0.35 0  0.875 0.35 0  0.9 0.35 0  0.925 0.35 0  0.95 0.35 0  0.975 0.35 0  1 0.35 0  0 0.375 0  0.025 0.375 0  0.05 0.375 0  0.075 0.375 0  0.1 0.375 0  0.125 0.375 0  0.15 0.375 0  0.175 0.375 0  0.2 0.375 0  0.225 0.375 0  0.25 0.375 0  0.275 0.375 0  0.3 0.375 0  0.325 0.375 0  0.35 0.375 0  0.375 0.375 0  0.4 0.375 0  0.425 0.375 0  0.45 0.375 0  0.475 0.375 0  0.5 0.375 0  0.525 0.375 0  0.55 0.375 0  0.575 0.375 0  0.6 0.375 0  0.625 0.375 0  0.65 0.375 0  0.675 0.375 0  0.7 0.375 0  0.725 0.375 0  0.75 0.375 0  0.775 0.375 0  0.8 0.375 0  0.825 0.375 0  0.85 0.375 0  0.875 0.375 0  0.9 0.375 0  0.925 0.375 0  0.95 0.375 0  0.975 0.375 0  1 0.375 0  0 0.4 0  0.025 0.4 0  0.05 0.4 0  0.075 0.4 0  0.1 0.4 0  0.125 0.4 0  0.15 0.4 0  0.175 0.4 0  0.2 0.4 0  0.225 0.4 0  0.25 0.4 0  0.275 0.4 0  0.3 0.4 0  0.325 0.4 0  0.35 0.4 0  0.375 0.4 0  0.4 0.4 0  0.425 0.4 0  0.45 0.4 0  0.475 0.4 0  0.5 0.4 0  0.525 0.4 0  0.55 0.4 0  0.575 0.4 0  0.6 0.4 0  0.625 0.4 0  0.65 0.4 0  0.675 0.4 0  0.7 0.4 0  0.725 0.4 0  0.75 0.4 0  0.775 0.4 0  0.8 0.4 0  0.825 0.4 0  0.85 0.4 0  0.875 0.4 0  0.9 0.4 0  0.925 0.4 0  0.95 0.4 0  0.975 0.4 0  1 0.4 0  0 0.425 0  0.025 0.425 0  0.05 0.425 0  0.075 0.425 0  0.1 0.425 0  0.125 0.425 0  0.15 0.425 0  0.175 0.425 0  0.2 0.425 0  0.225 0.425 0  0.25 0.425 0  0.275 0.425 0  0.3 0.425 0  0.325 0.425 0  0.35 0.425 0  0.375 0.425 0  0.4 0.425 0  0.425 0.425 0  0.45 0.425 0  0.475 0.425 0  0.5 0.425 0  0.525 0.425 0  0.55 0.425 0  0.575 0.425 0  0.6 0.425 0  0.625 0.425 0  0.65 0.425 0  0.675 0.425 0  0.7 0.425 0  0.725 0.425 0  0.75 0.425 0  0.775 0.425 0  0.8 0.425 0  0.825 0.425 0  0.85 0.425 0  0.875 0.425 0  0.9 0.425 0  0.925 0.425 0  0.95 0.425 0  0.975 0.425 0  1 0.425 0  0 0.45 0  0.02
[...]
<PointData  Scalars="ControlVisualisation"> 
<DataArray  type="Float64"  Name="ControlVisualisation"  format="ascii">1.1018621939115271e-02  7.3705746818513475e-03  7.4273813750362454e-03  7.5169771142557257e-03  7.6262340257344042e-03  7.7423531392027591e-03  7.8547433535678599e-03  7.9561989085078760e-03  8.0426873091142513e-03  8.1125666597571637e-03  8.1657880337651229e-03  8.2032949880982229e-03  8.2266187814301027e-03  8.2375994776780620e-03  8.2381824746584186e-03  8.2302716956600581e-03  8.2156340041198671e-03  8.1958459539433343e-03  8.1722677340521667e-03  8.1460303586212632e-03  8.1180298962748310e-03  8.0889291364920884e-03  8.0591668632112104e-03  8.0289696943766954e-03  7.9983587874220812e-03  7.9671480027243159e-03  7.9349425802748546e-03  7.9011595010268013e-03  7.8650867545434523e-03  7.8259862890957925e-03  7.7832129852626036e-03  7.7363102964961052e-03  7.6850959518339045e-03  7.6298123002506487e-03  7.5714329888314155e-03  7.5121030092008285e-03  7.4554789829914059e-03  7.4065866733814077e-03  7.3711497290456897e-03  7.3528650938304270e-03  2.1779122238910337e-02  7.3714585707151340e-03  3.7224204812580045e-03  3.7929423874669566e-03  3.9118049372305758e-03  4.0683061944195558e-03  4.2468826093720793e-03  4.4318298377969863e-03  4.6095647663585678e-03  4.7696289739014219e-03  4.9048964696669622e-03  5.0113343297099235e-03  5.0876130083581782e-03  5.1346404619010645e-03  5.1550124518629729e-03  5.1524108062710903e-03  5.1310288171652826e-03  5.0951017405146768e-03  5.0485770108727960e-03  4.9949116065468981e-03  4.9369636607246893e-03  4.8769521242723098e-03  4.8164714493902187e-03  4.7565492994241744e-03  4.6977252360674744e-03  4.6401226448408682e-03  4.5834966415342912e-03  4.5272680535526893e-03  4.4705723420971257e-03  4.4123637614066277e-03  4.3515952247558335e-03  4.2874219250765124e-03  4.2193435528756961e-03  4.1472683976683227e-03  4.0716031742537382e-03  3.9935232383067057e-03  3.9154038670532899e-03  3.8412617260168477e-03  3.7767486252225230e-03  3.7280954626551528e-03  3.6985849411651220e-03  7.3529119203924057e-03  7.4386394797713098e-03  3.8038845140106374e-03  3.9065030647536308e-03  4.0571374353830054e-03  4.2564394194400390e-03  4.4858493438853370e-03  4.7261209547415830e-03  4.9600368241239047e-03  5.1734105971127644e-03  5.3554200106699437e-03  5.4988137661021895e-03  5.6000902683379632e-03  5.6593793195886047e-03  5.6798654476950261e-03  5.6668550873870292e-03  5.6267449023514726e-03  5.5661368993120590e-03  5.4912180085723676e-03  5.4073856935969167e-03  5.3190462329302845e-03  5.2295362763446823e-03  5.1411561266755746e-03  5.0553019819574163e-03  4.9726491373532798e-03  4.8933136351855151e-03  4.8169439406651332e-03  4.7427483895583983e-03  4.6695073807776714e-03  4.5957083450994581e-03  4.5198312067816753e-03  4.4407381869901530e-03  4.3579276755749260e-03  4.2714622100809736e-03  4.1818297788232851e-03  4.0900974141386878e-03  3.9984061974579418e-03  3.9108572939875498e-03  3.8336625497716499e-03  3.7738814287698046e-03  3.7308220793996812e-03  7.3723403493324924e-03  7.5769060852233878e-03  3.9804032291516633e-03  4.1267256930754125e-03  4.2854219100690117e-03  4.4866763666924778e-03  4.7117382427618003e-03  4.9420666141881727e-03  5.1625777773214292e-03  5.3611217608924566e-03  5.5278975425439893e-03  5.6558142962815274e-03  5.7412944194436804e-03  5.7845883252481810e-03  5.7892555958220576e-03  5.7610814212986387e-03  5.7068662498070072e-03  5.6334655300672946e-03  5.5472173787106185e-03  5.4536427238334583e-03  5.3572530342025342e-03  5.2614177180610828e-03  5.1683497356234389e-03  5.0792703903286959e-03  4.9946981112495049e-03  4.9147027908313656e-03  4.8390021755901746e-03  4.7668728845036779e-03  4.6970135572493134e-03  4.6275883461575785e-03  4.5564671849775487e-03  4.4821517674177884e-03  4.4044408612846373e-03  4.3239986087214811e-03  4.2416253881523633e-03  4.1579483894081479e-03  4.0739344434350200e-03  3.9916477210532588e-03  3.9152523067958137e-03  3.8521847496750397e-03  3.7936607785692186e-03  7.4158790532588715e-03  7.8274805609151420e-03  4.3274117704055134e-03  4.5774570371817933e-03  4.7283653145106953e-03  4.9037221720611545e-03  5.0929232816377679e-03  5.2832326841622899e-03  5.4644473018950947e-03  5.6272193019506400e-03  5.7617298773994918e-03  5.8594267424183482e-03  5.9158449095369804e-03  5.9313425405010389e-03  5.9100810594126486e-03  5.8585039404877720e-03  5.7837882564065312e-03  5.6927780150642666e-03  5.5916320466153826e-03  5.4857867623571057e-03  5.3798061787133280e-03  5.2770697481981221e-03  5.1795533777615676e-03  5.0880293023245976e-03  5.0026209503158323e-03  4.9233025655274244e-03  4.8500275087123281e-03  4.7824521360512783e-03  4.7195390755863783e-03  4.6588788443233317e-03  4.5969033564654139e-03  4.5310074372070432e-03  4.4616149165077629e-03  4.3912755103036639e-03  4.3221542649482915e-03  4.2548425454665426e-03  4.1898302198368365e-03  4.1251284275133741e-03  4.0627846386159109e-03  4.0045837608913993e-03  3.9084240002233255e-03  7.4921320630653310e-03  8.2328652895164653e-03  5.1842961976115206e-03  5.6385942495686204e-03  5.6560692261672868e-03  5.6788010833609785e-03  5.7361908627595829e-03  5.8178109269173585e-03  5.9138826732858963e-03  6.0135278089415989e-03  6.0974712478430535e-03  6.1486155786832364e-03  6.1605198852397458e-03  6.1341186855479613e-03  6.0743901009174739e-03  5.9888314063681032e-03  5.8851994624958479e-03  5.7698416811038950e-03  5.6481055388365731e-03  5.5251496873324965e-03  5.4058277597025094e-03  5.2937888140875133e-03  5.1906522212589509e-03  5.0961984001421760e-03  5.0095944848389095e-03  4.9305540056519357e-03  4.8595872715911023e-03  4.7974498538915413e-03  4.7441253625413599e-03  4.6965645839004665e-03  4.6499137394637414e-03  4.5959537402540203e-03  4.5354457874072045e-03  4.4776154558287314e-03  4.4287899386431509e-03  4.3919652686362481e-03  4.3742506970563394e-03  4.3705969294053054e-03  4.3679847584167427e-03  4.2974932206845482e-03  4.0600153377729729e-03  7.5527311551665671e-03  9.9052929279816043e-03  7.9295348788325851e-03  9.3832200299582801e-03  8.2926629170728596e-03  7.5144488013771521e-03  7.0652272670067148e-03  6.8118804889366578e-03  6.6874090811061410e-03  6.6473078078607868e-03  6.6272865628337983e-03  6.5881305642920360e-03  6.5213043820121878e-03  6.4256364317666608e-03  6.3042169533240539e-03  6.1664943865891589e-03  6.0212876107238319e-03  5.8723828272791009e-03  5.7222124449181292e-03  5.5751638697373969e-03  5.4369965484062010e-03  5.3125926143357434e-03  5.2034998889394016e-03  5.1071560491238802e-03  5.0201521272189324e-03  4.9414827946596121e-03  4.8728356149301119e-03  4.8173355215401226e-03  4.7783361513161959e-03  4.7563401086718124e-03  4.7476582354994950e-03  4.7222963292200444e-03  4.6836095078582329e-03  4.6646833064124781e-03  4.6823001299162734e-03  4.7457334702914380e-03  4.8950185763756409e-03  5.1248331835943564e-03  5.3940676225170724e-03  5.5231197211853354e-03  5.1395860096935322e-03  7.9818597796574454e-03  5.8400599963707278e-02  5.1090841194519003e-02  4.7887330043390811e-02  2.9220058075463261e-02  1.9308792178843886e-02  1.3891646180539155e-02  1.0983973091109177e-02  9.4954143352942427e-03  8.7806905336242115e-03  8.2614255614392191e-03  7.7769741040294672e-03  7.3972235515903945e-03  7.0766545440022043e-03  6.7789727927539340e-03  6.5112593535671384e-03  6.2775069818005414e-03  6.0655686809864221e-03  5.8659195265779790e-03  5.6798463482381264e-03  5.5142784619259090e-03  5.3777483331160841e-03  5.2732247493688794e-03  5.1928463405208347e-03  5.1275073000321301e-03  5.0756601437786479e-03  5.0423207478507062e-03  5.0361627268274006e-03  5.0725851168919468e-03  5.1762404142040100e-03  5.3715687261440773e-03  5.5609679563869384e-03  5.7865858773947267e-03  6.2747257074745565e-03  7.1524038644420664e-03  8.6684934971054794e-03  1.2033858239918614e-02  2.2084224059629634e-02  5.3158623669389546e-02  9.4255938084173846e-02  1.3018589568942615e-01  9.7788504068230198e-02  3.7933062409547003e-01  3.2697346817134287e-01  2.3839327430382454e-01  1.9113539716109257e-01  1.5486253533708208e-01  1.1697881852647284e-01  7.9246392339562738e-02  5.0063031529312338e-02  3.2173726512434435e-02  2.3254418198599473e-02  1.7376343302092964e-02  1.3127569239614716e-02  1.0458269228068518e-02  8.8162195957733544e-03  7.8917805387010657e-03  7.3354987505973796e-03  6.9321648121466375e-03  6.5982221007780855e-03  6.3332322799501233e-03  6.1514246853731852e-03  6.0807004870808744e-03  6.1410859399649489e-03  6.3136971153137569e-03  6.5833999810863365e-03  6.9800691238182371e-03  7.5699531690720835e-03  8.4792482699052180e-03  1.0045300032349611e-02  1.3139368804354354e-02  2.0180497748275756e-02  4.0086562421658617e-02  8.4593586344674343e-02  1.3800156580560691e-01  2.0942038710650401e-01  2.8276739594256201e-01  3.6834394168634887e-01  4.7136670456390867e-01  5.7893617580180623e-01  6.7691720468914585e-01  7.8822098103209270e-01  8.6448156512517893e-01  5.6364610320173691e-01  5.2688096050453070e-01  4.7270725232622146e-01  4.1913989922819417e-01  3.7563861981742724e-01  3.3344336430313198e-01  2.8914404823723999e-01  2.4132876782797413e-01  1.9603192571606487e-01  1.5920055313695394e-01  1.2692390806920303e-01  9.7324834186691106e-02  6.7336686135495843e-02  4.0115707131103559e-02  2.3173621606199048e-02  1.5453007136981466e-02  1.2332884524759842e-02  1.1058142682594481e-02  1.0746382828981355e-02  1.1489214587795109e-02  1.4594713112471416e-02  2.3230158982506476e-02  4.1391891789522184e-02  7.2333206994218247e-02  1.1518372244193217e-01  1.6736899259867383e-01  2.2776631080426515e-01  2.9602587214422377e-01  3.6551030833492465e-01  4.2532411444736917e-01  4.9064234868730089e-01  5.7066702407058334e-01  6.5717478931231343e-01  7.4341031915306466e-01  8.2421866668825583e-01  9.0923346934993077e-01  9.5589218842599533e-01  9.7634057473048352e-01  9.8537611626715160e-01  9.8980913584284858e-01  9.7994649564704328e-01  6.2423894422767490e-01  6.0666887412399284e-01  5.8735951307512901e-01  5.4874851108357958e-01  5.1724734711178011e-01  4.9052959794757950e-01  4.6376384778963992e-01  4.3607727733031248e-01  4.0373560994204971e-01  3.6935585363541773e-01  3.3424869818671271e-01  2.9818656148725065e-01  2.6080156704705126e-01  2.2245459389580013e-01  1.8867646497327761e-01  1.6590333901287468e-01  1.5636355586203432e-01  1.6013964330116243e-01  1.7921900826043791e-01  2.1662785256808670e-01  2.7212679688262531e-01  3.4151344863824651e-01  4.1841001050179188e-01  4.9591981809194230e-01  5.6951007978241175e-01  6.3788999854476858e-01  7.0068223887427972e-01  7.5813419324968123e-01  8.1096493762408073e-01  8.5631115697518800e-01  8.9759368309644760e-01  9.3407377979345485e-01  9.5587964883954990e-01  9.7014881589301483e-01  9.7808123651406331e-01  9.8240640137337987e-01  9.8604282386688114e-01  9.8940183776837543e-01  9.9200686040003361e-01  9.9374878559135460e-01  9.8891732618993400e-01  5.6509973519228396e-01  5.5047963334300487e-01  5.4648234581484534e-01  5.2821880149246703e-01  5.1955912522110503e-01  5.1492306317050418e-01  5.1118755387905757e-01  5.0818941633069348e-01  5.0226790785615538e-01  4.9314595118453142e-01  4.8152946563843063e-01  4.6676645241926618e-01  4.5001270580702940e-01  4.3434802221813135e-01  4.2483036790196804e-01  4.2807580051041405e-01  4.4925874087571754e-01  4.8943312073612272e-01  5.4483808388097732e-01  6.0812672892700592e-01  6.7137685119464419e-01  7.2906876576685242e-01  7.7874283539910560e-01  8.2021642583702292e-01  8.5460915662316594e-01  8.8326641257911276e-01  9.0757381499297118e-01  9.2845533552799064e-01  9.4539433732367695e-01  9.5811809434248729e-01  9.6593065233711206e-01  9.7161603356200166e-01  9.7557164946994879e-01  9.7863367146198299e-01  9.8073029464724470e-01  9.8235147415463731e-01  9.8402504068864816e-01  9.8590973414982797e-01  9.8798300651024717e-01  9.9000004771659378e-01  9.8509189404806963e-01  3.7782888722116048e-01  3.5926532939432532e-01  3.5646919038656227e-01  3.5502951464455224e-01  3.7547353110363224e-01  3.9958539718264302e-01  4.2295421976740594e-01  4.4653667436266270e-01  4.6799772600703143e-01  4.8620651404006959e-01  5.0184112378167778e-01  5.1509407226291060e-01  5.2619461123369782e-01  5.3787437574417074e-01  5.5612464195540556e-01  5.8727346313542539e-01  6.3281725338294659e-01  6.8802358208593783e-01  7.4498041577077179e-01  7.9629673647022647e-01  8.3748066986272984e-01  8.6767713325838847e-01  8.8876354605614516e-01  9.0405304467993874e-01  9.1667297341096909e-01  9.2701294668847334e-01  9.3481777556612178e-01  9.4088047658213947e-01  9.4623947622507676e-01  9.5093209934653466e-01  9.5290492895414303e-01  9.5378086535800377e-01  9.5404546710102101e-01  9.5124575945862500e-01  9.4346528077672231e-01  9.3127679040265721e-01  9.1458326797651046e-01  8.8895793508780507e-01  8.6412722575211298e-01  8.6070312954446360e-01  8.9769154350002978e-01  2.5797975713866023e-02  5.6056891687576993e-02  7.6858541298641253e-02  1.0195799884017794e-01  1.3654995828204786e-01  1.8121287193053534e-01  2.3110041762875436e-01  2.7490133151279150e-01  3.1309322631630238e-01  3.5193153387387832e-01  3.9366329018574875e-01  4.3663911554157342e-01  4.7626344046784846e-01  5.1430532739097912e-01  5.6005785711822642e-01  6.1845627878190446e-01  6.8299451833184577e-01  7.4325693949043803e-01  7.9253714727278346e-01  8.2880055225487537e-01  8.5253122709984763e-01  8.6583206227813692e-01  8.7153160535373020e-01  8.7179470246750113e-01  8.6789284699080871e-01  8.6057818739952929e-01  8.5035549021023116e-01  8.3627733328114717e-01  8.1568734824805278e-01  7.8747894830818943e-01  7.5244484773350162e-01  7.1085054620499599e-01  6.6362671733909429e-01  6.0961391567884704e-01  5.3725806720093139e-01  4.6237889502643037e-01  3.9382565312104384e-01  3.3088631190824747e-01  2.7312572594145218e-01  1.8647699943641030e-01  1.2936977894090676e-01  7.8059950179985762e-03  4.9695385355895336e-03  5.8773066866167544e-03  7.1356125698946657e-03  9.3127273669229606e-03  1.4148279476091066e-02  2.7604542900089298e-02  6.6754421683087858e-02  1.2019591264730520e-01  1.6465222282952219e-01  2.1354659142927329e-01  2.6401492446137076e-01  3.2205762502212193e-01  3.9015665774134278e-01  4.6652492578874843e-01  5.5176015279747159e-01  6.2972022041984277e-01  6.8705964513642448e-01  7.2138979445564488e-01  7.3832410435386964e-01  7.3868903552906273e-01  7.1946337558094031e-01  6.8444796454678858e-01  6.4180803564978173e-01  5.9500683679118926e-01  5.4515578584673807e-01  4.9516250459414812e-01  4.4323552854925335e-01  3.8770020276750328e-01  3.2995386816157973e-01  2.6928285648871275e-01  2.0860191915176959e-01  1.5976824046568866e-01  1.3369094152218838e-01  8.1440903842385240e-02  4.9433839271660937e-02  3.1788423453837131e-02  2.5299833068668169e-02  1.8999430176821725e-02  9.2315104623207269e-03  1.0021899390320502e-02  7.3869689313755659e-03  3.8479883431278951e-03  4.1837121472956262e-03  4.7248799064910346e-03  5.5211516025273815e-03  6.7564816780311173e-03  8.8085247923348937e-03  1.2440245314655029e-02  1.8781164053154213e-02  3.2523278972088926e-02  6.7772449054573553e-02  1.0839141020522651e-01  1.7842824014564801e-01  2.6796587849841053e-01  3.5824747763246501e-01  4.3928930250215775e-01  4.9602811530750179e-01  5.2096695832366535e-01  5.1258120757705083e-01  4.8271422889624904e-01  4.2905002499889056e-01  3.5996118890052525e-01  2.9115353796686899e-01  2.2617906633436397e-01  1.6927553683693011e-01  1.2162112679462422e-01  8.4445749771524484e-02  5.5081396561488791e-02  3.3342936314564545e-02  2.1106389862729450e-02  1.4885186168191449e-02  1.1668640729883877e-02  1.0027825158245509e-02  9.5132607024278563e-03  1.0048661229475713e-02  1.0277461611332009e-02  1.0071040028601867e-02  1.0435901689933262e-02  1.0524268185658579e-02  7.6986129488148414e-03  8.9287081051620931e-03  7.3619643232234397e-03  3.7494938315762710e-03  3.9694012086755057e-03  4.3835021899732759e-03  5.0200689420220219e-03  5.9519567054126142e-03  7.3277237966878350e-03  9.3779732561650904e-03  1.2543179713880895e-02  1.8884171090183307e-02  3.4053627964233391e-02  8.0861506817264783e-02  1.4873355651250608e-01  2.3719868197971916e-01  3.0443676643752787e-01  3.3595640694339368e-01  3.3585027722627303e-01  2.9703264658165468e-01  2.2290902951406405e-01  1.6507167095276634e-01  1.1719580894159920e-01  4.5643339576665734e-02  2.1536805410516568e-02  1.3934054974566113e-02  1.0922226620381345e-02  9.4106246384074964e-03  8.4524420766801875e-03  7.9550675875426670e-03  7.7764332020616497e-03  7.6276783815738278e-03  7.4728624093823746e-03  7.3441647538258978e-03  7.2674677399361780e-03  7.3064536749260431e-03  7.5394877307483534e-03  7.9379406590664153e-03  8.2119610235142602e-03  8.3172097133238504e-03  8.1341510824916481e-03  6.6094070733870832e-03  8.9104493585997514e-03  7.4264433953903130e-03  3.8161058631831649e-03  4.0214412548942808e-03  4.3928534686915018e-03  4.9821866148643959e-03  5.8610678565643275e-03  7.1709950588158648e-03  9.1912929015908213e-03  1.2772668180014442e-02  2.0945593157777328e-02  5.1998500155714354e-02  1.1546076862316965e-01  1.8007850703488867e-01  2.5236899573676380e-01  2.7833304493711003e-01  2.5671651059679595e-01  1.9987451046967639e-01  1.2258632401258994e-01  5.1494072826474231e-02  1.7083093497740995e-02  1.0787110878889441e-02  9.6761475106868795e-03  8.7244806938508689e-03  7.9761585807987812e-03  7.4665260228749990e-03  7.1223850471733765e-03  6.8849979002104655e-03  6.7305720455162659e-03  6.6638922158627576e-03  6.6407763123453832e-03  6.6260181680456044e-03  6.6195761830137850e-03  6.6381562123016416e-03  6.7041521111903318e-03  6.8300884679837765e-03  6.9865698829411037e-03  7.1137490044858205e-03  7.1739089791811690e-03  7.0975334613415384e-03  6.1422322247831011e-03  8.7644380749851945e-03  7.5567023360722727e-03  3.9906045530976198e-03  4.2319227905116196e-03  4.5953065658526507e-03  5.1809950161293278e-03  6.0792114315288415e-03  7.4879646603156300e-03  1.0001967022771670e-02  1.5852452114154057e-02  3.6487557922981195e-02  1.0818909127465619e-01  1.6969839025390493e-01  2.2510532359252852e-01  2.5317665335195927e-01  2.3258762815352024e-01  1.6849897200878947e-01  9.4184215659698339e-02  4.0626415507522592e-02  1.6267938388184043e-02  1.0303228803302925e-02  8.2883354963676145e-03  7.6467732089095719e-03  7.3669523316928984e-03  7.1097621633599110e-03  6.8742663916256108e-03  6.6760339377169090e-03  6.5221826149324362e-03  6.4142870458540318e-03  6.3470061168818329e-03  6.3050574782420885e-03  6.2766654104235110e-03  6.2603098703938754e-03  6.2610258972603978e-03  6.2842321695700237e-03  6.3289378894916632e-03  6.3837539341879985e-03  6.4308300482267197e-03  6.4516987952385986e-03  6.4043041091989862e-03  5.7086392701731362e-03  8.5774074298699283e-03  7.7361753654854376e-03  4.2628786984255079e-03  4.5909092098138145e-03  4.9777717990141246e-03  5.6068534140076825e-03  6.6132272813370294e-03  8.4148745725858270e-03  1.2520962702122898e-02  2.8254115785582543e-02  9.7604237785293646e-02  1.8266305452759096e-01  2.3225304959718857e-01  2.5040233004702073e-01  2.2597698031346453e-01  1.6131020957720868e-01  8.2911615053272950e-02  3.3606573399736279e-02  1.6075881242771595e-02  1.0687194685964818e-02  8.7152241671118007e-03  7.8177698629620738e-03  7.3874425981526751e-03  7.0927477597623892e-03  6.8445289924608443e-03  6.6267828552054207e-03  6.4433859440534477e-03  6.2949491006807929e-03  6.1793792049578411e-03  6.0918232175928696e-03  6.0258753504195866e-03  5.9760025741471198e-03  5.9398753215231239e-03  5.9175900024082649e-03  5.9092447579006209e-03  5.9126948874478943e-03  5.9226427958705219e-03  5.9317960251370084e-03  5.9325957174876306e-03  5.8953270567078707e-03  5.3653185273598346e-03  8.4143223018008067e-03  7.9569531656714931e-03  4.6414727680652926e-03  5.1262444193106793e-03  5.5786618176772197e-03  6.3290123128077348e-03  7.6910818972117352e-03  1.0799269014695016e-02  2.1588994590001045e-02  8.287599567