<?xml version="1.0"?>
<VTKFile type="UnstructuredGrid"  version="0.1"  >
<UnstructuredGrid>
<Piece  NumberOfPoints="1681" NumberOfCells="3200">
<Points>
<DataArray  type="Float64"  NumberOfComponents="3"  format="ascii">0 0 0  0.025 0 0  0.05 0 0  0.075 0 0  0.1 0 0  0.125 0 0  0.15 0 0  0.175 0 0  0.2 0 0  0.225 0 0  0.25 0 0  0.275 0 0  0.3 0 0  0.325 0 0  0.35 0 0  0.375 0 0  0.4 0 0  0.425 0 0  0.45 0 0  0.475 0 0  0.5 0 0  0.525 0 0  0.55 0 0  0.575 0 0  0.6 0 0  0.625 0 0  0.65 0 0  0.675 0 0  0.7 0 0  0.725 0 0  0.75 0 0  0.775 0 0  0.8 0 0  0.825 0 0  0.85 0 0  0.875 0 0  0.9 0 0  0.925 0 0  0.95 0 0  0.975 0 0  1 0 0  0 0.025 0  0.025 0.025 0  0.05 0.025 0  0.075 0.025 0  0.1 0.025 0  0.125 0.025 0  0.15 0.025 0  0.175 0.025 0  0.2 0.025 0  0.225 0.025 0  0.25 0.025 0  0.275 0.025 0  0.3 0.025 0  0.325 0.025 0  0.35 0.025 0  0.375 0.025 0  0.4 0.025 0  0.425 0.025 0  0.45 0.025 0  0.475 0.025 0  0.5 0.025 0  0.525 0.025 0  0.55 0.025 0  0.575 0.025 0  0.6 0.025 0  0.625 0.025 0  0.65 0.025 0  0.675 0.025 0  0.7 0.025 0  0.725 0.025 0  0.75 0.025 0  0.775 0.025 0  0.8 0.025 0  0.825 0.025 0  0.85 0.025 0  0.875 0.025 0  0.9 0.025 0  0.925 0.025 0  0.95 0.025 0  0.975 0.025 0  1 0.025 0  0 0.05 0  0.025 0.05 0  0.05 0.05 0  0.075 0.05 0  0.1 0.05 0  0.125 0.05 0  0.15 0.05 0  0.175 0.05 0  0.2 0.05 0  0.225 0.05 0  0.25 0.05 0  0.275 0.05 0  0.3 0.05 0  0.325 0.05 0  0.35 0.05 0  0.375 0.05 0  0.4 0.05 0  0.425 0.05 0  0.45 0.05 0  0.475 0.05 0  0.5 0.05 0  0.525 0.05 0  0.55 0.05 0  0.575 0.05 0  0.6 0.05 0  0.625 0.05 0  0.65 0.05 0  0.675 0.05 0  0.7 0.05 0  0.725 0.05 0  0.75 0.05 0  0.775 0.05 0  0.8 0.05 0  0.825 0.05 0  0.85 0.05 0  0.875 0.05 0  0.9 0.05 0  0.925 0.05 0  0.95 0.05 0  0.975 0.05 0  1 0.05 0  0 0.075 0  0.025 0.075 0  0.05 0.075 0  0.075 0.075 0  0.1 0.075 0  0.125 0.075 0  0.15 0.075 0  0.175 0.075 0  0.2 0.075 0  0.225 0.075 0  0.25 0.075 0  0.275 0.075 0  0.3 0.075 0  0.325 0.075 0  0.35 0.075 0  0.375 0.075 0  0.4 0.075 0  0.425 0.075 0  0.45 0.075 0  0.475 0.075 0  0.5 0.075 0  0.525 0.075 0  0.55 0.075 0  0.575 0.075 0  0.6 0.075 0  0.625 0.075 0  0.65 0.075 0  0.675 0.075 0  0.7 0.075 0  0.725 0.075 0  0.75 0.075 0  0.775 0.075 0  0.8 0.075 0  0.825 0.075 0  0.85 0.075 0  0.875 0.075 0  0.9 0.075 0  0.925 0.075 0  0.95 0.075 0  0.975 0.075 0  1 0.075 0  0 0.1 0  0.025 0.1 0  0.05 0.1 0  0.075 0.1 0  0.1 0.1 0  0.125 0.1 0  0.15 0.1 0  0.175 0.1 0  0.2 0.1 0  0.225 0.1 0  0.25 0.1 0  0.275 0.1 0  0.3 0.1 0  0.325 0.1 0  0.35 0.1 0  0.375 0.1 0  0.4 0.1 0  0.425 0.1 0  0.45 0.1 0  0.475 0.1 0  0.5 0.1 0  0.525 0.1 0  0.55 0.1 0  0.575 0.1 0  0.6 0.1 0  0.625 0.1 0  0.65 0.1 0  0.675 0.1 0  0.7 0.1 0  0.725 0.1 0  0.75 0.1 0  0.775 0.1 0  0.8 0.1 0  0.825 0.1 0  0.85 0.1 0  0.875 0.1 0  0.9 0.1 0  0.925 0.1 0  0.95 0.1 0  0.975 0.1 0  1 0.1 0  0 0.125 0  0.025 0.125 0  0.05 0.125 0  0.075 0.125 0  0.1 0.125 0  0.125 0.125 0  0.15 0.125 0  0.175 0.125 0  0.2 0.125 0  0.225 0.125 0  0.25 0.125 0  0.275 0.125 0  0.3 0.125 0  0.325 0.125 0  0.35 0.125 0  0.375 0.125 0  0.4 0.125 0  0.425 0.125 0  0.45 0.125 0  0.475 0.125 0  0.5 0.125 0  0.525 0.125 0  0.55 0.125 0  0.575 0.125 0  0.6 0.125 0  0.625 0.125 0  0.65 0.125 0  0.675 0.125 0  0.7 0.125 0  0.725 0.125 0  0.75 0.125 0  0.775 0.125 0  0.8 0.125 0  0.825 0.125 0  0.85 0.125 0  0.875 0.125 0  0.9 0.125 0  0.925 0.125 0  0.95 0.125 0  0.975 0.125 0  1 0.125 0  0 0.15 0  0.025 0.15 0  0.05 0.15 0  0.075 0.15 0  0.1 0.15 0  0.125 0.15 0  0.15 0.15 0  0.175 0.15 0  0.2 0.15 0  0.225 0.15 0  0.25 0.15 0  0.275 0.15 0  0.3 0.15 0  0.325 0.15 0  0.35 0.15 0  0.375 0.15 0  0.4 0.15 0  0.425 0.15 0  0.45 0.15 0  0.475 0.15 0  0.5 0.15 0  0.525 0.15 0  0.55 0.15 0  0.575 0.15 0  0.6 0.15 0  0.625 0.15 0  0.65 0.15 0  0.675 0.15 0  0.7 0.15 0  0.725 0.15 0  0.75 0.15 0  0.775 0.15 0  0.8 0.15 0  0.825 0.15 0  0.85 0.15 0  0.875 0.15 0  0.9 0.15 0  0.925 0.15 0  0.95 0.15 0  0.975 0.15 0  1 0.15 0  0 0.175 0  0.025 0.175 0  0.05 0.175 0  0.075 0.175 0  0.1 0.175 0  0.125 0.175 0  0.15 0.175 0  0.175 0.175 0  0.2 0.175 0  0.225 0.175 0  0.25 0.175 0  0.275 0.175 0  0.3 0.175 0  0.325 0.175 0  0.35 0.175 0  0.375 0.175 0  0.4 0.175 0  0.425 0.175 0  0.45 0.175 0  0.475 0.175 0  0.5 0.175 0  0.525 0.175 0  0.55 0.175 0  0.575 0.175 0  0.6 0.175 0  0.625 0.175 0  0.65 0.175 0  0.675 0.175 0  0.7 0.175 0  0.725 0.175 0  0.75 0.175 0  0.775 0.175 0  0.8 0.175 0  0.825 0.175 0  0.85 0.175 0  0.875 0.175 0  0.9 0.175 0  0.925 0.175 0  0.95 0.175 0  0.975 0.175 0  1 0.175 0  0 0.2 0  0.025 0.2 0  0.05 0.2 0  0.075 0.2 0  0.1 0.2 0  0.125 0.2 0  0.15 0.2 0  0.175 0.2 0  0.2 0.2 0  0.225 0.2 0  0.25 0.2 0  0.275 0.2 0  0.3 0.2 0  0.325 0.2 0  0.35 0.2 0  0.375 0.2 0  0.4 0.2 0  0.425 0.2 0  0.45 0.2 0  0.475 0.2 0  0.5 0.2 0  0.525 0.2 0  0.55 0.2 0  0.575 0.2 0  0.6 0.2 0  0.625 0.2 0  0.65 0.2 0  0.675 0.2 0  0.7 0.2 0  0.725 0.2 0  0.75 0.2 0  0.775 0.2 0  0.8 0.2 0  0.825 0.2 0  0.85 0.2 0  0.875 0.2 0  0.9 0.2 0  0.925 0.2 0  0.95 0.2 0  0.975 0.2 0  1 0.2 0  0 0.225 0  0.025 0.225 0  0.05 0.225 0  0.075 0.225 0  0.1 0.225 0  0.125 0.225 0  0.15 0.225 0  0.175 0.225 0  0.2 0.225 0  0.225 0.225 0  0.25 0.225 0  0.275 0.225 0  0.3 0.225 0  0.325 0.225 0  0.35 0.225 0  0.375 0.225 0  0.4 0.225 0  0.425 0.225 0  0.45 0.225 0  0.475 0.225 0  0.5 0.225 0  0.525 0.225 0  0.55 0.225 0  0.575 0.225 0  0.6 0.225 0  0.625 0.225 0  0.65 0.225 0  0.675 0.225 0  0.7 0.225 0  0.725 0.225 0  0.75 0.225 0  0.775 0.225 0  0.8 0.225 0  0.825 0.225 0  0.85 0.225 0  0.875 0.225 0  0.9 0.225 0  0.925 0.225 0  0.95 0.225 0  0.975 0.225 0  1 0.225 0  0 0.25 0  0.025 0.25 0  0.05 0.25 0  0.075 0.25 0  0.1 0.25 0  0.125 0.25 0  0.15 0.25 0  0.175 0.25 0  0.2 0.25 0  0.225 0.25 0  0.25 0.25 0  0.275 0.25 0  0.3 0.25 0  0.325 0.25 0  0.35 0.25 0  0.375 0.25 0  0.4 0.25 0  0.425 0.25 0  0.45 0.25 0  0.475 0.25 0  0.5 0.25 0  0.525 0.25 0  0.55 0.25 0  0.575 0.25 0  0.6 0.25 0  0.625 0.25 0  0.65 0.25 0  0.675 0.25 0  0.7 0.25 0  0.725 0.25 0  0.75 0.25 0  0.775 0.25 0  0.8 0.25 0  0.825 0.25 0  0.85 0.25 0  0.875 0.25 0  0.9 0.25 0  0.925 0.25 0  0.95 0.25 0  0.975 0.25 0  1 0.25 0  0 0.275 0  0.025 0.275 0  0.05 0.275 0  0.075 0.275 0  0.1 0.275 0  0.125 0.275 0  0.15 0.275 0  0.175 0.275 0  0.2 0.275 0  0.225 0.275 0  0.25 0.275 0  0.275 0.275 0  0.3 0.275 0  0.325 0.275 0  0.35 0.275 0  0.375 0.275 0  0.4 0.275 0  0.425 0.275 0  0.45 0.275 0  0.475 0.275 0  0.5 0.275 0  0.525 0.275 0  0.55 0.275 0  0.575 0.275 0  0.6 0.275 0  0.625 0.275 0  0.65 0.275 0  0.675 0.275 0  0.7 0.275 0  0.725 0.275 0  0.75 0.275 0  0.775 0.275 0  0.8 0.275 0  0.825 0.275 0  0.85 0.275 0  0.875 0.275 0  0.9 0.275 0  0.925 0.275 0  0.95 0.275 0  0.975 0.275 0  1 0.275 0  0 0.3 0  0.025 0.3 0  0.05 0.3 0  0.075 0.3 0  0.1 0.3 0  0.125 0.3 0  0.15 0.3 0  0.175 0.3 0  0.2 0.3 0  0.225 0.3 0  0.25 0.3 0  0.275 0.3 0  0.3 0.3 0  0.325 0.3 0  0.35 0.3 0  0.375 0.3 0  0.4 0.3 0  0.425 0.3 0  0.45 0.3 0  0.475 0.3 0  0.5 0.3 0  0.525 0.3 0  0.55 0.3 0  0.575 0.3 0  0.6 0.3 0  0.625 0.3 0  0.65 0.3 0  0.675 0.3 0  0.7 0.3 0  0.725 0.3 0  0.75 0.3 0  0.775 0.3 0  0.8 0.3 0  0.825 0.3 0  0.85 0.3 0  0.875 0.3 0  0.9 0.3 0  0.925 0.3 0  0.95 0.3 0  0.975 0.3 0  1 0.3 0  0 0.325 0  0.025 0.325 0  0.05 0.325 0  0.075 0.325 0  0.1 0.325 0  0.125 0.325 0  0.15 0.325 0  0.175 0.325 0  0.2 0.325 0  0.225 0.325 0  0.25 0.325 0  0.275 0.325 0  0.3 0.325 0  0.325 0.325 0  0.35 0.325 0  0.375 0.325 0  0.4 0.325 0  0.425 0.325 0  0.45 0.325 0  0.475 0.325 0  0.5 0.325 0  0.525 0.325 0  0.55 0.325 0  0.575 0.325 0  0.6 0.325 0  0.625 0.325 0  0.65 0.325 0  0.675 0.325 0  0.7 0.325 0  0.725 0.325 0  0.75 0.325 0  0.775 0.325 0  0.8 0.325 0  0.825 0.325 0  0.85 0.325 0  0.875 0.325 0  0.9 0.325 0  0.925 0.325 0  0.95 0.325 0  0.975 0.325 0  1 0.325 0  0 0.35 0  0.025 0.35 0  0.05 0.35 0  0.075 0.35 0  0.1 0.35 0  0.125 0.35 0  0.15 0.35 0  0.175 0.35 0  0.2 0.35 0  0.225 0.35 0  0.25 0.35 0  0.275 0.35 0  0.3 0.35 0  0.325 0.35 0  0.35 0.35 0  0.375 0.35 0  0.4 0.35 0  0.425 0.35 0  0.45 0.35 0  0.475 0.35 0  0.5 0.35 0  0.525 0.35 0  0.55 0.35 0  0.575 0.35 0  0.6 0.35 0  0.625 0.35 0  0.65 0.35 0  0.675 0.35 0  0.7 0.35 0  0.725 0.35 0  0.75 0.35 0  0.775 0.35 0  0.8 0.35 0  0.825 0.35 0  0.85 0.35 0  0.875 0.35 0  0.9 0.35 0  0.925 0.35 0  0.95 0.35 0  0.975 0.35 0  1 0.35 0  0 0.375 0  0.025 0.375 0  0.05 0.375 0  0.075 0.375 0  0.1 0.375 0  0.125 0.375 0  0.15 0.375 0  0.175 0.375 0  0.2 0.375 0  0.225 0.375 0  0.25 0.375 0  0.275 0.375 0  0.3 0.375 0  0.325 0.375 0  0.35 0.375 0  0.375 0.375 0  0.4 0.375 0  0.425 0.375 0  0.45 0.375 0  0.475 0.375 0  0.5 0.375 0  0.525 0.375 0  0.55 0.375 0  0.575 0.375 0  0.6 0.375 0  0.625 0.375 0  0.65 0.375 0  0.675 0.375 0  0.7 0.375 0  0.725 0.375 0  0.75 0.375 0  0.775 0.375 0  0.8 0.375 0  0.825 0.375 0  0.85 0.375 0  0.875 0.375 0  0.9 0.375 0  0.925 0.375 0  0.95 0.375 0  0.975 0.375 0  1 0.375 0  0 0.4 0  0.025 0.4 0  0.05 0.4 0  0.075 0.4 0  0.1 0.4 0  0.125 0.4 0  0.15 0.4 0  0.175 0.4 0  0.2 0.4 0  0.225 0.4 0  0.25 0.4 0  0.275 0.4 0  0.3 0.4 0  0.325 0.4 0  0.35 0.4 0  0.375 0.4 0  0.4 0.4 0  0.425 0.4 0  0.45 0.4 0  0.475 0.4 0  0.5 0.4 0  0.525 0.4 0  0.55 0.4 0  0.575 0.4 0  0.6 0.4 0  0.625 0.4 0  0.65 0.4 0  0.675 0.4 0  0.7 0.4 0  0.725 0.4 0  0.75 0.4 0  0.775 0.4 0  0.8 0.4 0  0.825 0.4 0  0.85 0.4 0  0.875 0.4 0  0.9 0.4 0  0.925 0.4 0  0.95 0.4 0  0.975 0.4 0  1 0.4 0  0 0.425 0  0.025 0.425 0  0.05 0.425 0  0.075 0.425 0  0.1 0.425 0  0.125 0.425 0  0.15 0.425 0  0.175 0.425 0  0.2 0.425 0  0.225 0.425 0  0.25 0.425 0  0.275 0.425 0  0.3 0.425 0  0.325 0.425 0  0.35 0.425 0  0.375 0.425 0  0.4 0.425 0  0.425 0.425 0  0.45 0.425 0  0.475 0.425 0  0.5 0.425 0  0.525 0.425 0  0.55 0.425 0  0.575 0.425 0  0.6 0.425 0  0.625 0.425 0  0.65 0.425 0  0.675 0.425 0  0.7 0.425 0  0.725 0.425 0  0.75 0.425 0  0.775 0.425 0  0.8 0.425 0  0.825 0.425 0  0.85 0.425 0  0.875 0.425 0  0.9 0.425 0  0.925 0.425 0  0.95 0.425 0  0.975 0.425 0  1 0.425 0  0 0.45 0  0.02
[...]
<PointData  Scalars="ControlVisualisation"> 
<DataArray  type="Float64"  Name="ControlVisualisation"  format="ascii">6.8873137925123493e-02  4.7071478062376416e-02  4.7077274872605199e-02  4.7087164261311952e-02  4.7101065628996110e-02  4.7118924293225471e-02  4.7140656988322503e-02  4.7166167431007947e-02  4.7195343957493856e-02  4.7228063625574357e-02  4.7264191508218735e-02  4.7303583046293701e-02  4.7346078660854676e-02  4.7391508779495238e-02  4.7439685131366399e-02  4.7490393283657131e-02  4.7543386723858355e-02  4.7598373203661663e-02  4.7654992581144695e-02  4.7712798641379207e-02  4.7771227330462906e-02  4.7829564546077008e-02  4.7886901603206002e-02  4.7942081038333188e-02  4.7993641082759754e-02  4.8039753653731601e-02  4.8078154402147473e-02  4.8106089183671041e-02  4.8120281405383762e-02  4.8116961715391739e-02  4.8092006847485692e-02  4.8041322027017185e-02  4.7961570118377164e-02  4.7851395047470269e-02  4.7713204380706718e-02  4.7555130502689870e-02  4.7392092148453961e-02  4.7244612337686377e-02  4.7135610286209058e-02  4.7079120497778584e-02  1.2886816343607871e-01  4.7071479919676550e-02  2.4165095979626447e-02  2.4172282374263922e-02  2.4185009837191542e-02  2.4203444247423985e-02  2.4227521971394231e-02  2.4257155690126535e-02  2.4292246569028578e-02  2.4332679773942850e-02  2.4378326822110132e-02  2.4429046743632710e-02  2.4484685974935805e-02  2.4545076816030902e-02  2.4610034064081462e-02  2.4679348574864427e-02  2.4752777120452527e-02  2.4830027987156746e-02  2.4910740577751115e-02  2.4994458234813176e-02  2.5080592917533798e-02  2.5168380223866783e-02  2.5256823878779491e-02  2.5344628415610502e-02  2.5430119108549035e-02  2.5511151119998781e-02  2.5585011371951762e-02  2.5648320272329606e-02  2.5696949753484511e-02  2.5725984034367749e-02  2.5729771098022415e-02  2.5702149828427688e-02  2.5636991668285831e-02  2.5529205295758483e-02  2.5376401133209367e-02  2.5181306444726853e-02  2.4954327949504623e-02  2.4715356823520017e-02  2.4493150025651753e-02  2.4319412164413579e-02  2.4210740684677563e-02  4.7079251624743038e-02  4.7077301023874273e-02  2.4172307162269695e-02  2.4181998316766141e-02  2.4197223352938949e-02  2.4219341763323285e-02  2.4248318556359390e-02  2.4284066992471876e-02  2.4326481345932943e-02  2.4375439643925672e-02  2.4430806533808240e-02  2.4492434139198455e-02  2.4560162204971387e-02  2.4633816508589469e-02  2.4713204811533357e-02  2.4798109117022155e-02  2.4888273776904928e-02  2.4983388157060638e-02  2.5083061860849586e-02  2.5186791623845423e-02  2.5293918189949034e-02  2.5403571721563566e-02  2.5514603291962500e-02  2.5625503253915400e-02  2.5734303206389399e-02  2.5838465585312151e-02  2.5934766109022404e-02  2.6019178167506322e-02  2.6086776445340985e-02  2.6131689537117895e-02  2.6147163816008984e-02  2.6125804342743451e-02  2.6060126171275753e-02  2.5943530735888759e-02  2.5772266933350406e-02  2.5547986728090145e-02  2.5281076089115194e-02  2.4994084564459822e-02  2.4720858737190900e-02  2.4498843816877738e-02  2.4329090991549111e-02  4.7138893529335410e-02  4.7087295767999159e-02  2.4185148291057123e-02  2.4197352692259016e-02  2.4212809492918538e-02  2.4235132165332372e-02  2.4264369099262835e-02  2.4300442845279074e-02  2.4343245868409948e-02  2.4392656095345546e-02  2.4448538862362330e-02  2.4510748622803908e-02  2.4579130006901366e-02  2.4653517075614497e-02  2.4733730580961035e-02  2.4819571163115051e-02  2.4910809016880447e-02  2.5007168256539234e-02  2.5108304248938399e-02  2.5213773070255116e-02  2.5322990964447366e-02  2.5435184074931151e-02  2.5549325465893044e-02  2.5664058477854919e-02  2.5777607579974642e-02  2.5887677529337037e-02  2.5991348434198789e-02  2.6084974624775967e-02  2.6164101157328271e-02  2.6223437209363144e-02  2.6256907733884918e-02  2.6257759273421798e-02  2.6218941596894991e-02  2.6133817883073670e-02  2.5997785279274273e-02  2.5809031607204234e-02  2.5573711715893489e-02  2.5307559602280542e-02  2.5034512233122454e-02  2.4793017110667556e-02  2.4552445889553087e-02  4.7271552698943196e-02  4.7101480621948431e-02  2.4203904814104699e-02  2.4219842299331877e-02  2.4235505127356050e-02  2.4257888600548460e-02  2.4287188184966578e-02  2.4323334637316500e-02  2.4366218348744473e-02  2.4415716364772414e-02  2.4471694050250896e-02  2.4534008391875493e-02  2.4602510139766956e-02  2.4677044612968865e-02  2.4757450273950102e-02  2.4843554404562204e-02  2.4935164616268310e-02  2.5032056007391855e-02  2.5133951856803949e-02  2.5240497250463092e-02  2.5351224176887236e-02  2.5465506819928718e-02  2.5582508196687743e-02  2.5701113355938617e-02  2.5819853909712840e-02  2.5936824039152390e-02  2.6049595581944109e-02  2.6155145058345763e-02  2.6249810627807416e-02  2.6329315076215103e-02  2.6388747166745417e-02  2.6422831419166872e-02  2.6426398162542761e-02  2.6394504967210804e-02  2.6321688383606944e-02  2.6202876468350282e-02  2.6039795826454468e-02  2.5838790245149082e-02  2.5619138330586513e-02  2.5388567266180027e-02  2.4962803683572128e-02  4.7501505352752979e-02  4.7119937885366260e-02  2.4228687356964814e-02  2.4249637354635187e-02  2.4265564934315156e-02  2.4288011663063939e-02  2.4317373410023005e-02  2.4353588752649605e-02  2.4396545795249948e-02  2.4446119534017267e-02  2.4502174970972387e-02  2.4564572019824368e-02  2.4633168991908833e-02  2.4707825425378058e-02  2.4788402756146119e-02  2.4874762422901452e-02  2.4966760492348809e-02  2.5064238246773379e-02  2.5167006945416459e-02  2.5274826298918283e-02  2.5387377411293661e-02  2.5504226360871383e-02  2.5624781371188853e-02  2.5748239360125446e-02  2.5873528577724542e-02  2.5999245495253853e-02  2.6123598162454506e-02  2.6244378557279086e-02  2.6358963900402398e-02  2.6464393212590292e-02  2.6557537917311413e-02  2.6636214131344434e-02  2.6697785636857974e-02  2.6740977965734825e-02  2.6764143608838584e-02  2.6783979317787164e-02  2.6791167049564232e-02  2.6819835049263632e-02  2.6870126966093467e-02  2.6571762454546812e-02  2.5437123713735819e-02  4.7592104382278233e-02  4.7142763139335200e-02  2.4259638727382783e-02  2.4286923170670320e-02  2.4303185350180886e-02  2.4325705603273275e-02  2.4355136075977332e-02  2.4391425873272077e-02  2.4434459711971324e-02  2.4484109446196421e-02  2.4540239109835906e-02  2.4602711564179501e-02  2.4671394077602809e-02  2.4746163324422275e-02  2.4826908845240508e-02  2.4913533620274545e-02  2.5005952999234988e-02  2.5104088787896366e-02  2.5207858907191238e-02  2.5317162298607962e-02  2.5431859924241722e-02  2.5551748720858018e-02  2.5676532706451035e-02  2.5805785302904349e-02  2.5938910564067049e-02  2.6075108453568654e-02  2.6213359144161449e-02  2.6352407879430915e-02  2.6490854424529427e-02  2.6627450576024524e-02  2.6761709498453363e-02  2.6894490925729663e-02  2.7026379737894415e-02  2.7180607821850583e-02  2.7380902734257459e-02  2.7738482320567377e-02  2.8254564259299383e-02  2.9462048356270153e-02  3.1709619989433585e-02  3.3202908075280653e-02  3.0671525935515843e-02  4.9160464532818589e-02  4.7170077062660964e-02  2.4296947767937453e-02  2.4331935586340898e-02  2.4348602241555460e-02  2.4371203356629973e-02  2.4400704767466783e-02  2.4437068424962408e-02  2.4480174079437412e-02  2.4529888751429488e-02  2.4586074477692246e-02  2.4648596812644908e-02  2.4717332989406132e-02  2.4792179565503839e-02  2.4873059152127435e-02  2.4959923343071563e-02  2.5052756907467846e-02  2.5151576616325787e-02  2.5256423462622680e-02  2.5367357766036155e-02  2.5484448607330859e-02  2.5607759398495959e-02  2.5737333440189417e-02  2.5873177203672541e-02  2.6015244865118130e-02  2.6163436329465745e-02  2.6317598173113226e-02  2.6477529253681804e-02  2.6643391332446163e-02  2.6815756938504836e-02  2.6996824823778423e-02  2.7192025609393669e-02  2.7425320145739899e-02  2.7771833353889608e-02  2.8396847996624223e-02  3.0440538068197735e-02  3.4893985631068374e-02  4.6214782226298788e-02  8.6874080405180451e-02  1.9888590152230684e-01  3.3673748289418637e-01  2.2130842706452353e-01  4.7202029446419790e-02  2.4340847552980306e-02  2.4384967233051943e-02  2.4402110350651870e-02  2.4424796701460662e-02  2.4454365693048208e-02  2.4490793684200589e-02  2.4533953325726963e-02  2.4583704563609896e-02  2.4639905672996246e-02  2.4702424145906017e-02  2.4771147929181905e-02  2.4845996121206169e-02  2.4926928665134858e-02  2.5013954596368151e-02  2.5107135052819533e-02  2.5206596796329077e-02  2.5312520912214243e-02  2.5425145825175556e-02  2.5544774027661900e-02  2.5671764981835692e-02  2.5806539135520470e-02  2.5949586508611105e-02  2.6101476941677512e-02  2.6262890122688193e-02  2.6434617654345852e-02  2.6617808160666421e-02  2.6814241220142043e-02  2.7025914766837134e-02  2.7262962609191844e-02  2.7549697166253859e-02  2.7992511769169205e-02  2.9100520180848154e-02  3.2626479500436262e-02  4.5266209383413268e-02  1.0742233464614925e-01  2.3171488075951513e-01  5.4919092658893232e-01  7.8782267781234994e-01  9.2456409697528585e-01  8.9680145029886360e-01  4.7238799055744088e-02  2.4391621343550801e-02  2.4446376030622576e-02  2.4464070818176517e-02  2.4486843851669757e-02  2.4516470637766030e-02  2.4552942661443207e-02  2.4596121874192613e-02  2.4645857790530509e-02  2.4702002355724274e-02  2.4764423912014565e-02  2.4833021577295101e-02  2.4907739654672627e-02  2.4988580342298269e-02  2.5075615938112295e-02  2.5168999186614301e-02  2.5268971051964899e-02  2.5375873743946686e-02  2.5490138445132555e-02  2.5612319946852823e-02  2.5743095712882864e-02  2.5883293223910711e-02  2.6033930182919919e-02  2.6196244604313454e-02  2.6371779406919212e-02  2.6562472720962391e-02  2.6771148236271847e-02  2.7001024568964391e-02  2.7261857970857190e-02  2.7588481233908592e-02  2.8121686043769255e-02  2.9767235160256245e-02  3.5085785656791699e-02  5.9375055044635784e-02  1.7453082711762832e-01  4.5066483206647323e-01  8.3212565878751776e-01  9.4019541950747954e-01  9.6596142266076079e-01  9.7697894984379230e-01  9.5926535035892291e-01  4.7280597841612426e-02  2.4449608005694255e-02  2.4516592955479366e-02  2.4534921163825711e-02  2.4557781751357834e-02  2.4587451148311151e-02  2.4623934784691850e-02  2.4667078429368522e-02  2.4716716143250907e-02  2.4772689913350576e-02  2.4834867481050970e-02  2.4903159814374517e-02  2.4977539315687428e-02  2.5058056606599346e-02  2.5144854945505869e-02  2.5238186915612887e-02  2.5338427550808635e-02  2.5446081424872213e-02  2.5561798227281211e-02  2.5686393321220285e-02  2.5820875539765763e-02  2.5966499884455475e-02  2.6124824961154900e-02  2.6297831326404921e-02  2.6488091526623635e-02  2.6698914676026156e-02  2.6935653702307705e-02  2.7208702676471217e-02  2.7558688580994268e-02  2.8177282029289319e-02  3.0178647077349293e-02  3.7997950746746306e-02  7.3705415341636826e-02  1.8085188215725986e-01  5.6439142627308991e-01  9.0724691768175092e-01  9.5539866723150890e-01  9.7142971302232139e-01  9.7957821198006900e-01  9.8396313615680853e-01  9.7190158440431962e-01  4.7327671915815481e-02  2.4515206948994010e-02  2.4596131164935784e-02  2.4615187806461911e-02  2.4638141862779104e-02  2.4667837203321805e-02  2.4704288581588761e-02  2.4747316725980781e-02  2.4796733068081923e-02  2.4852364986064638e-02  2.4914077866545047e-02  2.4981796418808277e-02  2.5055525626899604e-02  2.5135371276875956e-02  2.5221558585201264e-02  2.5314450637511868e-02  2.5414566249275624e-02  2.5522593762226677e-02  2.5639408091449864e-02  2.5766095267184770e-02  2.5903998218006645e-02  2.6054781698190168e-02  2.6220549224345344e-02  2.6404221076766893e-02  2.6609503414327430e-02  2.6842132963545314e-02  2.7115142085425585e-02  2.7469959282737356e-02  2.8177826102776873e-02  3.0424114411017639e-02  3.9815607113668952e-02  8.1236979470012488e-02  2.4370222173819964e-01  6.8387310770873100e-01  9.1775427707745894e-01  9.5679233236202377e-01  9.7041309495697825e-01  9.7652205142926451e-01  9.7944711391210526e-01  9.8082708459608958e-01  9.6702168965047286e-01  4.7380297825922880e-02  2.4588880459344563e-02  2.4685594519479749e-02  2.4705501039701587e-02  2.4728572104445373e-02  2.4758284980217322e-02  2.4794652729836022e-02  2.4837457179616971e-02  2.4886476860729756e-02  2.4941519256090675e-02  2.5002446968085089e-02  2.5069202357394366e-02  2.5141831018676682e-02  2.5220503954873248e-02  2.5305539639837182e-02  2.5397426369579337e-02  2.5496841703682150e-02  2.5604673087789322e-02  2.5722036525642724e-02  2.5850294968001918e-02  2.5991113396438455e-02  2.6146486636660658e-02  2.6319150742941683e-02  2.6513004060146818e-02  2.6733821210325859e-02  2.6996019490773123e-02  2.7338664652157410e-02  2.8056440839203351e-02  3.0571992879691569e-02  4.1434633563902527e-02  8.1391097656915642e-02  2.4748083377290009e-01  7.3279356791801764e-01  9.2166769392825965e-01  9.5525437764995513e-01  9.6716766005240828e-01  9.7094801248768059e-01  9.7026816315479314e-01  9.6747817507986955e-01  9.5957391179527141e-01  9.2412823177093095e-01  4.7438776756255033e-02  2.4671149415694413e-02  2.4785682235354253e-02  2.4806611976360863e-02  2.4829867072923988e-02  2.4859617848348097e-02  2.4895853413376121e-02  2.4938294882948735e-02  2.4986674517761487e-02  2.5040775550008065e-02  2.5100461172590294e-02  2.5165700776839516e-02  2.5236593754448526e-02  2.5313392097319587e-02  2.5396522032352386e-02  2.5486612503982507e-02  2.5584521274855970e-02  2.5691355863587059e-02  2.5808494546565672e-02  2.5937597837426340e-02  2.6080621143656845e-02  2.6239807673070364e-02  2.6418525248995600e-02  2.6621499228842244e-02  2.6864036996431900e-02  2.7189800402627570e-02  2.7876239287524741e-02  3.0229746808406354e-02  4.1482706447481407e-02  8.6017863237138517e-02  2.5149026848462958e-01  7.4050909392717579e-01  9.2147220044021505e-01  9.5356335338632603e-01  9.6418071466399702e-01  9.6560679263170401e-01  9.6031232715321502e-01  9.4490385018535017e-01  8.8361464539404200e-01  5.6800936409843361e-01  3.1963362285877256e-01  4.7503405412625425e-02  2.4762574240184514e-02  2.4897184459729729e-02  2.4919412175030999e-02  2.4943012043455049e-02  2.4972889599030670e-02  2.5008967505502772e-02  2.5050873314234147e-02  2.5098277956300100e-02  2.5150940824848821e-02  2.5208738010319212e-02  2.5271686236477280e-02  2.5339962950652703e-02  2.5413924408108454e-02  2.5494124163683293e-02  2.5581346857666491e-02  2.5676652081741181e-02  2.5781397776575923e-02  2.5897262017969745e-02  2.6026289146850932e-02  2.6170733163907594e-02  2.6333243086523711e-02  2.6517351971839503e-02  2.6731191284037215e-02  2.7018158360542648e-02  2.7653353506959910e-02  2.9859271234528990e-02  4.0298490707519626e-02  7.3883905175999243e-02  2.4514521554708613e-01  7.2836053101515907e-01  9.1910270536836192e-01  9.5191091524390858e-01  9.6209724341770142e-01  9.6192086178371128e-01  9.5251621965948730e-01  9.2468289655484071e-01  8.0776514070148431e-01  4.5135172794168665e-01  6.1011263864140096e-02  5.6375531565587542e-02  4.7574430860881069e-02  2.4863705106164393e-02  2.5020957320884565e-02  2.5044955456643377e-02  2.5069251514577139e-02  2.5099486231785699e-02  2.5135438938840599e-02  2.5176596898088481e-02  2.5222560622630039e-02  2.5273081612275591e-02  2.5328077985934477e-02  2.5387652690025256e-02  2.5452107187700444e-02  2.5521938971871404e-02  2.5597841367732747e-02  2.5680766252675825e-02  2.5772001277280722e-02  2.5873221082160357e-02  2.5986447574689594e-02  2.6114262245248505e-02  2.6259461611661754e-02  2.6426286730151311e-02  2.6618898071772111e-02  2.6859998553390739e-02  2.7399683395615174e-02  2.9288669727989915e-02  3.9090103878468077e-02  6.7210261641021063e-02  2.5333511543646653e-01  6.7976585758278019e-01  9.1384479195389534e-01  9.4988190368932546e-01  9.6060161073347861e-01  9.6000885077709486e-01  9.4842030270489563e-01  9.0871466267342371e-01  7.7163489667450014e-01  4.1797047900379652e-01  6.6636178466296048e-02  3.1735874108762205e-02  4.9272780526906694e-02  4.7651933094485850e-02  2.4974969012817511e-02  2.5157856742741794e-02  2.5184485328456432e-02  2.5210205984863482e-02  2.5241302021124450e-02  2.5277272683796745e-02  2.5317409896925276e-02  2.5361263326815653e-02  2.5408631121316517e-02  2.5459530189975703e-02  2.5514214646358800e-02  2.5573197791339011e-02  2.5637190700156284e-02  2.5707045395070280e-02  2.5783844368155538e-02  2.5869125473777978e-02  2.5964983236864764e-02  2.6073648135198704e-02  2.6198602636033953e-02  2.6344898626362374e-02  2.6523360684675694e-02  2.6749005793048307e-02  2.7227288947499994e-02  2.8785864102419383e-02  3.6542326245025708e-02  5.6728918833195252e-02  2.3837221997688571e-01  5.8147637429954413e-01  9.0378049719596931e-01  9.4676902491004011e-01  9.5912522675735989e-01  9.5898906654294025e-01  9.4697080330011163e-01  9.1020489378338332e-01  8.0301921576753788e-01  3.6731697166931215e-01  6.0938732021641066e-02  3.3639557248296148e-02  2.7492053961392395e-02  4.8639177380409300e-02  4.7735603131958224e-02  2.5096430493148893e-02  2.5308594540743738e-02  2.5339484627772628e-02  2.5368091635268149e-02  2.5401054426789034e-02  2.5437356612424456e-02  2.5476059584715809e-02  2.5516780136839761e-02  2.5559515187121278e-02  2.5604483024972886e-02  2.5652163228897958e-02  2.5703445622995705e-02  2.5759460270730585e-02  2.5821189043164845e-02  2.5889394134152630e-02  2.5965996449082974e-02  2.6054206676306764e-02  2.6156800809364802e-02  2.6278627558981995e-02  2.6431759916443059e-02  2.6647954961396159e-02  2.7117065655417993e-02  2.8686863529560160e-02  3.4967347067934675e-02  4.9061762886814936e-02  1.4510884264628193e-01  4.2112847327225761e-01  8.8490795370428710e-01  9.4169835180809947e-01  9.5717270120145970e-01  9.5845356813629490e-01  9.4749636552720151e-01  9.1582426081549928e-01  8.2437043895592343e-01  3.7728383853505870e-01  5.6539667633452625e-02  3.2969469139264358e-02  2.8187913814677355e-02  2.6509011619579276e-02  4.8498965584764568e-02  4.7824259958300190e-02  2.5227282220398856e-02  2.5473442222596634e-02  2.5511778700271513e-02  2.5546153510689132e-02  2.5582885141464683e-02  2.5620052135688021e-02  2.5656551933031554e-02  2.5692484480081535e-02  2.5728455948410545e-02  2.5764950900150328e-02  2.5802504389223463e-02  2.5842737431783332e-02  2.5888011356555520e-02  2.5939512929202008e-02  2.5996652982734757e-02  2.6062530733608032e-02  2.6143809554918553e-02  2.6245772553852607e-02  2.6369982500101415e-02  2.6571197212664412e-02  2.7080332816577159e-02  2.8887102711059959e-02  3.5884912655458914e-02  5.3749539013913356e-02  9.4583950167948683e-02  2.9369678913872926e-01  8.5309708936042661e-01  9.3362679043882202e-01  9.5389990091517629e-01  9.5670865148761475e-01  9.4718651621197980e-01  9.2549672324984211e-01  8.4954090322351372e-01  4.1151211251032171e-01  5.5104761177345966e-02  3.2535432564612839e-02  2.7870786080346512e-02  2.6721819311907077e-02  2.5947115252330562e-02  4.8250988619936298e-02  4.7914843568423342e-02  2.5364854466051655e-02  2.5651756180979167e-02  2.5703936978174576e-02  2.5749712963620598e-02  2.5793650699594061e-02  2.5832239170261898e-02  2.5864608283831997e-02  2.5892626635315389e-02  2.5918702789325728e-02  2.5943558510227879e-02  2.5966966948211968e-02  2.5992047102954708e-02  2.6025361566649152e-02  2.6069556168028890e-02  2.6119186473037136e-02  2.6172928325603820e-02  2.6258148057894587e-02  2.6420551572787117e-02  2.6707265792196230e-02  2.7629214449696900e-02  2.9963178025273492e-02  3.8687609694300643e-02  6.4081531861566010e-02  1.7485094791647215e-01  3.4139066338868951e-01  8.2715388809101364e-01  9.2429060887830850e-01  9.4893889689302879e-01  9.5431633495015156e-01  9.4569434365640037e-01  9.1754770078803227e-01  8.4940240837599901e-01  5.5467893398784907e-01  5.8277529392394452e-02  3.2857695886091991e-02  2.7750880215907364e-02  2.6501510934301791e-02  2.5964904318477217e-02  2.5442134092947776e-02  4.7953543947292308e-02  4.8000469894292901e-02  2.5502432952973594e-02  2.5840969282486477e-02  2.5920009916113283e-02  2.5987926724836678e-02  2.6045070194760177e-02  2.6085445368481022e-02  2.6109642035515798e-02  2.612469359