<?xml version="1.0"?>
<VTKFile type="UnstructuredGrid"  version="0.1"  >
<UnstructuredGrid>
<Piece  NumberOfPoints="1681" NumberOfCells="3200">
<Points>
<DataArray  type="Float64"  NumberOfComponents="3"  format="ascii">0 0 0  0.025 0 0  0.05 0 0  0.075 0 0  0.1 0 0  0.125 0 0  0.15 0 0  0.175 0 0  0.2 0 0  0.225 0 0  0.25 0 0  0.275 0 0  0.3 0 0  0.325 0 0  0.35 0 0  0.375 0 0  0.4 0 0  0.425 0 0  0.45 0 0  0.475 0 0  0.5 0 0  0.525 0 0  0.55 0 0  0.575 0 0  0.6 0 0  0.625 0 0  0.65 0 0  0.675 0 0  0.7 0 0  0.725 0 0  0.75 0 0  0.775 0 0  0.8 0 0  0.825 0 0  0.85 0 0  0.875 0 0  0.9 0 0  0.925 0 0  0.95 0 0  0.975 0 0  1 0 0  0 0.025 0  0.025 0.025 0  0.05 0.025 0  0.075 0.025 0  0.1 0.025 0  0.125 0.025 0  0.15 0.025 0  0.175 0.025 0  0.2 0.025 0  0.225 0.025 0  0.25 0.025 0  0.275 0.025 0  0.3 0.025 0  0.325 0.025 0  0.35 0.025 0  0.375 0.025 0  0.4 0.025 0  0.425 0.025 0  0.45 0.025 0  0.475 0.025 0  0.5 0.025 0  0.525 0.025 0  0.55 0.025 0  0.575 0.025 0  0.6 0.025 0  0.625 0.025 0  0.65 0.025 0  0.675 0.025 0  0.7 0.025 0  0.725 0.025 0  0.75 0.025 0  0.775 0.025 0  0.8 0.025 0  0.825 0.025 0  0.85 0.025 0  0.875 0.025 0  0.9 0.025 0  0.925 0.025 0  0.95 0.025 0  0.975 0.025 0  1 0.025 0  0 0.05 0  0.025 0.05 0  0.05 0.05 0  0.075 0.05 0  0.1 0.05 0  0.125 0.05 0  0.15 0.05 0  0.175 0.05 0  0.2 0.05 0  0.225 0.05 0  0.25 0.05 0  0.275 0.05 0  0.3 0.05 0  0.325 0.05 0  0.35 0.05 0  0.375 0.05 0  0.4 0.05 0  0.425 0.05 0  0.45 0.05 0  0.475 0.05 0  0.5 0.05 0  0.525 0.05 0  0.55 0.05 0  0.575 0.05 0  0.6 0.05 0  0.625 0.05 0  0.65 0.05 0  0.675 0.05 0  0.7 0.05 0  0.725 0.05 0  0.75 0.05 0  0.775 0.05 0  0.8 0.05 0  0.825 0.05 0  0.85 0.05 0  0.875 0.05 0  0.9 0.05 0  0.925 0.05 0  0.95 0.05 0  0.975 0.05 0  1 0.05 0  0 0.075 0  0.025 0.075 0  0.05 0.075 0  0.075 0.075 0  0.1 0.075 0  0.125 0.075 0  0.15 0.075 0  0.175 0.075 0  0.2 0.075 0  0.225 0.075 0  0.25 0.075 0  0.275 0.075 0  0.3 0.075 0  0.325 0.075 0  0.35 0.075 0  0.375 0.075 0  0.4 0.075 0  0.425 0.075 0  0.45 0.075 0  0.475 0.075 0  0.5 0.075 0  0.525 0.075 0  0.55 0.075 0  0.575 0.075 0  0.6 0.075 0  0.625 0.075 0  0.65 0.075 0  0.675 0.075 0  0.7 0.075 0  0.725 0.075 0  0.75 0.075 0  0.775 0.075 0  0.8 0.075 0  0.825 0.075 0  0.85 0.075 0  0.875 0.075 0  0.9 0.075 0  0.925 0.075 0  0.95 0.075 0  0.975 0.075 0  1 0.075 0  0 0.1 0  0.025 0.1 0  0.05 0.1 0  0.075 0.1 0  0.1 0.1 0  0.125 0.1 0  0.15 0.1 0  0.175 0.1 0  0.2 0.1 0  0.225 0.1 0  0.25 0.1 0  0.275 0.1 0  0.3 0.1 0  0.325 0.1 0  0.35 0.1 0  0.375 0.1 0  0.4 0.1 0  0.425 0.1 0  0.45 0.1 0  0.475 0.1 0  0.5 0.1 0  0.525 0.1 0  0.55 0.1 0  0.575 0.1 0  0.6 0.1 0  0.625 0.1 0  0.65 0.1 0  0.675 0.1 0  0.7 0.1 0  0.725 0.1 0  0.75 0.1 0  0.775 0.1 0  0.8 0.1 0  0.825 0.1 0  0.85 0.1 0  0.875 0.1 0  0.9 0.1 0  0.925 0.1 0  0.95 0.1 0  0.975 0.1 0  1 0.1 0  0 0.125 0  0.025 0.125 0  0.05 0.125 0  0.075 0.125 0  0.1 0.125 0  0.125 0.125 0  0.15 0.125 0  0.175 0.125 0  0.2 0.125 0  0.225 0.125 0  0.25 0.125 0  0.275 0.125 0  0.3 0.125 0  0.325 0.125 0  0.35 0.125 0  0.375 0.125 0  0.4 0.125 0  0.425 0.125 0  0.45 0.125 0  0.475 0.125 0  0.5 0.125 0  0.525 0.125 0  0.55 0.125 0  0.575 0.125 0  0.6 0.125 0  0.625 0.125 0  0.65 0.125 0  0.675 0.125 0  0.7 0.125 0  0.725 0.125 0  0.75 0.125 0  0.775 0.125 0  0.8 0.125 0  0.825 0.125 0  0.85 0.125 0  0.875 0.125 0  0.9 0.125 0  0.925 0.125 0  0.95 0.125 0  0.975 0.125 0  1 0.125 0  0 0.15 0  0.025 0.15 0  0.05 0.15 0  0.075 0.15 0  0.1 0.15 0  0.125 0.15 0  0.15 0.15 0  0.175 0.15 0  0.2 0.15 0  0.225 0.15 0  0.25 0.15 0  0.275 0.15 0  0.3 0.15 0  0.325 0.15 0  0.35 0.15 0  0.375 0.15 0  0.4 0.15 0  0.425 0.15 0  0.45 0.15 0  0.475 0.15 0  0.5 0.15 0  0.525 0.15 0  0.55 0.15 0  0.575 0.15 0  0.6 0.15 0  0.625 0.15 0  0.65 0.15 0  0.675 0.15 0  0.7 0.15 0  0.725 0.15 0  0.75 0.15 0  0.775 0.15 0  0.8 0.15 0  0.825 0.15 0  0.85 0.15 0  0.875 0.15 0  0.9 0.15 0  0.925 0.15 0  0.95 0.15 0  0.975 0.15 0  1 0.15 0  0 0.175 0  0.025 0.175 0  0.05 0.175 0  0.075 0.175 0  0.1 0.175 0  0.125 0.175 0  0.15 0.175 0  0.175 0.175 0  0.2 0.175 0  0.225 0.175 0  0.25 0.175 0  0.275 0.175 0  0.3 0.175 0  0.325 0.175 0  0.35 0.175 0  0.375 0.175 0  0.4 0.175 0  0.425 0.175 0  0.45 0.175 0  0.475 0.175 0  0.5 0.175 0  0.525 0.175 0  0.55 0.175 0  0.575 0.175 0  0.6 0.175 0  0.625 0.175 0  0.65 0.175 0  0.675 0.175 0  0.7 0.175 0  0.725 0.175 0  0.75 0.175 0  0.775 0.175 0  0.8 0.175 0  0.825 0.175 0  0.85 0.175 0  0.875 0.175 0  0.9 0.175 0  0.925 0.175 0  0.95 0.175 0  0.975 0.175 0  1 0.175 0  0 0.2 0  0.025 0.2 0  0.05 0.2 0  0.075 0.2 0  0.1 0.2 0  0.125 0.2 0  0.15 0.2 0  0.175 0.2 0  0.2 0.2 0  0.225 0.2 0  0.25 0.2 0  0.275 0.2 0  0.3 0.2 0  0.325 0.2 0  0.35 0.2 0  0.375 0.2 0  0.4 0.2 0  0.425 0.2 0  0.45 0.2 0  0.475 0.2 0  0.5 0.2 0  0.525 0.2 0  0.55 0.2 0  0.575 0.2 0  0.6 0.2 0  0.625 0.2 0  0.65 0.2 0  0.675 0.2 0  0.7 0.2 0  0.725 0.2 0  0.75 0.2 0  0.775 0.2 0  0.8 0.2 0  0.825 0.2 0  0.85 0.2 0  0.875 0.2 0  0.9 0.2 0  0.925 0.2 0  0.95 0.2 0  0.975 0.2 0  1 0.2 0  0 0.225 0  0.025 0.225 0  0.05 0.225 0  0.075 0.225 0  0.1 0.225 0  0.125 0.225 0  0.15 0.225 0  0.175 0.225 0  0.2 0.225 0  0.225 0.225 0  0.25 0.225 0  0.275 0.225 0  0.3 0.225 0  0.325 0.225 0  0.35 0.225 0  0.375 0.225 0  0.4 0.225 0  0.425 0.225 0  0.45 0.225 0  0.475 0.225 0  0.5 0.225 0  0.525 0.225 0  0.55 0.225 0  0.575 0.225 0  0.6 0.225 0  0.625 0.225 0  0.65 0.225 0  0.675 0.225 0  0.7 0.225 0  0.725 0.225 0  0.75 0.225 0  0.775 0.225 0  0.8 0.225 0  0.825 0.225 0  0.85 0.225 0  0.875 0.225 0  0.9 0.225 0  0.925 0.225 0  0.95 0.225 0  0.975 0.225 0  1 0.225 0  0 0.25 0  0.025 0.25 0  0.05 0.25 0  0.075 0.25 0  0.1 0.25 0  0.125 0.25 0  0.15 0.25 0  0.175 0.25 0  0.2 0.25 0  0.225 0.25 0  0.25 0.25 0  0.275 0.25 0  0.3 0.25 0  0.325 0.25 0  0.35 0.25 0  0.375 0.25 0  0.4 0.25 0  0.425 0.25 0  0.45 0.25 0  0.475 0.25 0  0.5 0.25 0  0.525 0.25 0  0.55 0.25 0  0.575 0.25 0  0.6 0.25 0  0.625 0.25 0  0.65 0.25 0  0.675 0.25 0  0.7 0.25 0  0.725 0.25 0  0.75 0.25 0  0.775 0.25 0  0.8 0.25 0  0.825 0.25 0  0.85 0.25 0  0.875 0.25 0  0.9 0.25 0  0.925 0.25 0  0.95 0.25 0  0.975 0.25 0  1 0.25 0  0 0.275 0  0.025 0.275 0  0.05 0.275 0  0.075 0.275 0  0.1 0.275 0  0.125 0.275 0  0.15 0.275 0  0.175 0.275 0  0.2 0.275 0  0.225 0.275 0  0.25 0.275 0  0.275 0.275 0  0.3 0.275 0  0.325 0.275 0  0.35 0.275 0  0.375 0.275 0  0.4 0.275 0  0.425 0.275 0  0.45 0.275 0  0.475 0.275 0  0.5 0.275 0  0.525 0.275 0  0.55 0.275 0  0.575 0.275 0  0.6 0.275 0  0.625 0.275 0  0.65 0.275 0  0.675 0.275 0  0.7 0.275 0  0.725 0.275 0  0.75 0.275 0  0.775 0.275 0  0.8 0.275 0  0.825 0.275 0  0.85 0.275 0  0.875 0.275 0  0.9 0.275 0  0.925 0.275 0  0.95 0.275 0  0.975 0.275 0  1 0.275 0  0 0.3 0  0.025 0.3 0  0.05 0.3 0  0.075 0.3 0  0.1 0.3 0  0.125 0.3 0  0.15 0.3 0  0.175 0.3 0  0.2 0.3 0  0.225 0.3 0  0.25 0.3 0  0.275 0.3 0  0.3 0.3 0  0.325 0.3 0  0.35 0.3 0  0.375 0.3 0  0.4 0.3 0  0.425 0.3 0  0.45 0.3 0  0.475 0.3 0  0.5 0.3 0  0.525 0.3 0  0.55 0.3 0  0.575 0.3 0  0.6 0.3 0  0.625 0.3 0  0.65 0.3 0  0.675 0.3 0  0.7 0.3 0  0.725 0.3 0  0.75 0.3 0  0.775 0.3 0  0.8 0.3 0  0.825 0.3 0  0.85 0.3 0  0.875 0.3 0  0.9 0.3 0  0.925 0.3 0  0.95 0.3 0  0.975 0.3 0  1 0.3 0  0 0.325 0  0.025 0.325 0  0.05 0.325 0  0.075 0.325 0  0.1 0.325 0  0.125 0.325 0  0.15 0.325 0  0.175 0.325 0  0.2 0.325 0  0.225 0.325 0  0.25 0.325 0  0.275 0.325 0  0.3 0.325 0  0.325 0.325 0  0.35 0.325 0  0.375 0.325 0  0.4 0.325 0  0.425 0.325 0  0.45 0.325 0  0.475 0.325 0  0.5 0.325 0  0.525 0.325 0  0.55 0.325 0  0.575 0.325 0  0.6 0.325 0  0.625 0.325 0  0.65 0.325 0  0.675 0.325 0  0.7 0.325 0  0.725 0.325 0  0.75 0.325 0  0.775 0.325 0  0.8 0.325 0  0.825 0.325 0  0.85 0.325 0  0.875 0.325 0  0.9 0.325 0  0.925 0.325 0  0.95 0.325 0  0.975 0.325 0  1 0.325 0  0 0.35 0  0.025 0.35 0  0.05 0.35 0  0.075 0.35 0  0.1 0.35 0  0.125 0.35 0  0.15 0.35 0  0.175 0.35 0  0.2 0.35 0  0.225 0.35 0  0.25 0.35 0  0.275 0.35 0  0.3 0.35 0  0.325 0.35 0  0.35 0.35 0  0.375 0.35 0  0.4 0.35 0  0.425 0.35 0  0.45 0.35 0  0.475 0.35 0  0.5 0.35 0  0.525 0.35 0  0.55 0.35 0  0.575 0.35 0  0.6 0.35 0  0.625 0.35 0  0.65 0.35 0  0.675 0.35 0  0.7 0.35 0  0.725 0.35 0  0.75 0.35 0  0.775 0.35 0  0.8 0.35 0  0.825 0.35 0  0.85 0.35 0  0.875 0.35 0  0.9 0.35 0  0.925 0.35 0  0.95 0.35 0  0.975 0.35 0  1 0.35 0  0 0.375 0  0.025 0.375 0  0.05 0.375 0  0.075 0.375 0  0.1 0.375 0  0.125 0.375 0  0.15 0.375 0  0.175 0.375 0  0.2 0.375 0  0.225 0.375 0  0.25 0.375 0  0.275 0.375 0  0.3 0.375 0  0.325 0.375 0  0.35 0.375 0  0.375 0.375 0  0.4 0.375 0  0.425 0.375 0  0.45 0.375 0  0.475 0.375 0  0.5 0.375 0  0.525 0.375 0  0.55 0.375 0  0.575 0.375 0  0.6 0.375 0  0.625 0.375 0  0.65 0.375 0  0.675 0.375 0  0.7 0.375 0  0.725 0.375 0  0.75 0.375 0  0.775 0.375 0  0.8 0.375 0  0.825 0.375 0  0.85 0.375 0  0.875 0.375 0  0.9 0.375 0  0.925 0.375 0  0.95 0.375 0  0.975 0.375 0  1 0.375 0  0 0.4 0  0.025 0.4 0  0.05 0.4 0  0.075 0.4 0  0.1 0.4 0  0.125 0.4 0  0.15 0.4 0  0.175 0.4 0  0.2 0.4 0  0.225 0.4 0  0.25 0.4 0  0.275 0.4 0  0.3 0.4 0  0.325 0.4 0  0.35 0.4 0  0.375 0.4 0  0.4 0.4 0  0.425 0.4 0  0.45 0.4 0  0.475 0.4 0  0.5 0.4 0  0.525 0.4 0  0.55 0.4 0  0.575 0.4 0  0.6 0.4 0  0.625 0.4 0  0.65 0.4 0  0.675 0.4 0  0.7 0.4 0  0.725 0.4 0  0.75 0.4 0  0.775 0.4 0  0.8 0.4 0  0.825 0.4 0  0.85 0.4 0  0.875 0.4 0  0.9 0.4 0  0.925 0.4 0  0.95 0.4 0  0.975 0.4 0  1 0.4 0  0 0.425 0  0.025 0.425 0  0.05 0.425 0  0.075 0.425 0  0.1 0.425 0  0.125 0.425 0  0.15 0.425 0  0.175 0.425 0  0.2 0.425 0  0.225 0.425 0  0.25 0.425 0  0.275 0.425 0  0.3 0.425 0  0.325 0.425 0  0.35 0.425 0  0.375 0.425 0  0.4 0.425 0  0.425 0.425 0  0.45 0.425 0  0.475 0.425 0  0.5 0.425 0  0.525 0.425 0  0.55 0.425 0  0.575 0.425 0  0.6 0.425 0  0.625 0.425 0  0.65 0.425 0  0.675 0.425 0  0.7 0.425 0  0.725 0.425 0  0.75 0.425 0  0.775 0.425 0  0.8 0.425 0  0.825 0.425 0  0.85 0.425 0  0.875 0.425 0  0.9 0.425 0  0.925 0.425 0  0.95 0.425 0  0.975 0.425 0  1 0.425 0  0 0.45 0  0.02
[...]
<PointData  Scalars="ControlVisualisation"> 
<DataArray  type="Float64"  Name="ControlVisualisation"  format="ascii">6.5274483457438665e-02  4.4049662319396450e-02  4.4055254738514189e-02  4.4064649106288045e-02  4.4077790961919217e-02  4.4094635426310577e-02  4.4115080785811930e-02  4.4139074275025295e-02  4.4166453453666994e-02  4.4197118831392157e-02  4.4230918657512192e-02  4.4267759266128921e-02  4.4307342219193718e-02  4.4349554082119269e-02  4.4394204580095943e-02  4.4440977355103675e-02  4.4489612013799758e-02  4.4539867520816630e-02  4.4591288022930761e-02  4.4643427327403964e-02  4.4695684637168151e-02  4.4747436644494980e-02  4.4797933267817613e-02  4.4846124618769453e-02  4.4890742484117264e-02  4.4930307745924374e-02  4.4962857922956720e-02  4.4986056653339823e-02  4.4997083828556481e-02  4.4992715926218285e-02  4.4969122732615906e-02  4.4922741623549159e-02  4.4850448697676390e-02  4.4750923311246374e-02  4.4626244479696986e-02  4.4483793358240445e-02  4.4337246907623966e-02  4.4205107310518771e-02  4.4107696409183231e-02  4.4056342946539442e-02  1.3774643058113101e-01  4.4049632994990977e-02  2.2704970646060293e-02  2.2712545836348505e-02  2.2725820266864323e-02  2.2744988507004568e-02  2.2769985662731525e-02  2.2800721595037148e-02  2.2837098726799711e-02  2.2878993849072889e-02  2.2926259356811148e-02  2.2978740422015979e-02  2.3036259908142051e-02  2.3098603661402241e-02  2.3165538104170665e-02  2.3236786730341269e-02  2.3312016699366708e-02  2.3390858688963095e-02  2.3472864347076121e-02  2.3557482050053691e-02  2.3644020618057215e-02  2.3731587156447291e-02  2.3819102953635637e-02  2.3905299717719916e-02  2.3988565283763238e-02  2.4066831013159665e-02  2.4137544462367086e-02  2.4197568542901820e-02  2.4243045275641271e-02  2.4269336291913766e-02  2.4270977368798109e-02  2.4241939074185960e-02  2.4176113157367781e-02  2.4068276854603977e-02  2.3915767879214515e-02  2.3720971080204767e-02  2.3494083378887726e-02  2.3255141791096796e-02  2.3033218433238953e-02  2.2860113114255502e-02  2.2750621858809439e-02  4.4056441879702354e-02  4.4055163360832657e-02  2.2712573959524480e-02  2.2722736879531774e-02  2.2738549495873027e-02  2.2761487726343753e-02  2.2791493826350366e-02  2.2828489566735752e-02  2.2872364909871240e-02  2.2922997922394512e-02  2.2980240159530201e-02  2.3043924847008825e-02  2.3113862149342575e-02  2.3189835617619760e-02  2.3271605284270191e-02  2.3358863131346996e-02  2.3451238206122015e-02  2.3548327059042092e-02  2.3649643498614044e-02  2.3754563311801154e-02  2.3862266690680860e-02  2.3971728450713922e-02  2.4081636802414683e-02  2.4190530255060676e-02  2.4296548427412801e-02  2.4397217681623402e-02  2.4489503336761163e-02  2.4569749774766413e-02  2.4633408200866500e-02  2.4675009158828712e-02  2.4688122501062594e-02  2.4665485246405154e-02  2.4599635878901412e-02  2.4483874347537120e-02  2.4313960569513786e-02  2.4090946746162693e-02  2.3824243868282257e-02  2.3536407651174703e-02  2.3262256281254712e-02  2.3040175782762275e-02  2.2868693664881645e-02  4.4110124357102279e-02  4.4064586221271199e-02  2.2725957254081317e-02  2.2738677841658360e-02  2.2754665411490654e-02  2.2777771258414924e-02  2.2807993322120638e-02  2.2845256022525323e-02  2.2889457009608323e-02  2.2940467443688280e-02  2.2998149529965196e-02  2.3062340809563930e-02  2.3132858236760388e-02  2.3209485267697359e-02  2.3292010139181845e-02  2.3380141382840385e-02  2.3473526323340342e-02  2.3571783839574634e-02  2.3674471095177271e-02  2.3781046337287670e-02  2.3890716522709084e-02  2.4002501551121706e-02  2.4115248437837963e-02  2.4227595418178753e-02  2.4337930575869998e-02  2.4444055625370196e-02  2.4543241031999355e-02  2.4632265804043138e-02  2.4707203949208764e-02  2.4763235354957183e-02  2.4794584699804542e-02  2.4794703936923547e-02  2.4756625881338663e-02  2.4673605901648361e-02  2.4540408251809288e-02  2.4354528826897828e-02  2.4119558113052605e-02  2.3850422946609953e-02  2.3572774959629672e-02  2.3328149254410159e-02  2.3085058475118554e-02  4.4225180138355996e-02  4.4077913034894528e-02  2.2745428101734827e-02  2.2761963034076009e-02  2.2778119227821969e-02  2.2801291043537425e-02  2.2831587255856448e-02  2.2868943927978086e-02  2.2913250827582325e-02  2.2964385269003951e-02  2.3022208975681184e-02  2.3086565179725099e-02  2.3157277536612942e-02  2.3234153775045122e-02  2.3316974786583629e-02  2.3405496812288894e-02  2.3499408917464437e-02  2.3598369299183485e-02  2.3701973741731476e-02  2.3809740462443663e-02  2.3921022814715261e-02  2.4034903607705584e-02  2.4150404993472197e-02  2.4266359499237930e-02  2.4381477525943100e-02  2.4494014033402851e-02  2.4601774585765748e-02  2.4702242582885201e-02  2.4792464813936176e-02  2.4868718173869819e-02  2.4926479164979698e-02  2.4960746911279530e-02  2.4965996142685767e-02  2.4936931489310948e-02  2.4868993825459061e-02  2.4755770968811729e-02  2.4599374553021199e-02  2.4389480288654390e-02  2.4149563111140221e-02  2.3903295177798205e-02  2.3474945255846209e-02  4.4419178967438910e-02  4.4095193186226650e-02  2.2771077600152921e-02  2.2792725033004849e-02  2.2809094679539142e-02  2.2832344104651670e-02  2.2862727063429088e-02  2.2900178773438598e-02  2.2944605016414855e-02  2.2995873378235228e-02  2.3053842570630281e-02  2.3118372058250486e-02  2.3189293778755928e-02  2.3266435102898726e-02  2.3349595970983121e-02  2.3438553344245945e-02  2.3533061300654440e-02  2.3632859882248079e-02  2.3737616023248212e-02  2.3846856807921188e-02  2.3960058649047232e-02  2.4076502078523843e-02  2.4195441816016940e-02  2.4315894598512709e-02  2.4436884693556794e-02  2.4557334250209187e-02  2.4675712421454173e-02  2.4790460316387420e-02  2.4899972087841133e-02  2.5002084221522704e-02  2.5094433054159281e-02  2.5174056716554184e-02  2.5237724324171311e-02  2.5285507310389303e-02  2.5322561167949773e-02  2.5348411803524068e-02  2.5398296989228214e-02  2.5384641844582202e-02  2.5351164365369695e-02  2.5017782492701243e-02  2.3909332056856761e-02  4.4480649536088969e-02  4.4116548501858290e-02  2.2803030912598721e-02  2.2831125732528729e-02  2.2847771373608258e-02  2.2871112320540683e-02  2.2901601444244777e-02  2.2939173602501597e-02  2.2983729165902765e-02  2.3035145810593093e-02  2.3093284206726523e-02  2.3158006475912960e-02  2.3229165515865194e-02  2.3306610190746313e-02  2.3390181759394266e-02  2.3479646450739612e-02  2.3574867614766327e-02  2.3675681707052851e-02  2.3781799438660163e-02  2.3892832633156766e-02  2.4008377160185022e-02  2.4127845666927279e-02  2.4250789224631412e-02  2.4376581160645609e-02  2.4504485563236471e-02  2.4634024902531401e-02  2.4764601982508700e-02  2.4895869454276364e-02  2.5027827648958122e-02  2.5160803583691362e-02  2.5295298802870451e-02  2.5429639904033692e-02  2.5572156448204972e-02  2.5728579379574745e-02  2.5951529852846683e-02  2.6286708008450385e-02  2.6999855183093287e-02  2.7876822742858395e-02  2.9538991632231532e-02  3.0653860141624845e-02  2.8146152553165306e-02  4.5591483228225545e-02  4.4142029020024287e-02  2.2841448172445461e-02  2.2877372050413708e-02  2.2894352538325113e-02  2.2917804415134468e-02  2.2948401022755756e-02  2.2986103213317174e-02  2.3030806658048207e-02  2.3082381071039354e-02  2.3140699672337853e-02  2.3205627405286953e-02  2.3277036918165440e-02  2.3354804639867808e-02  2.3438851701628394e-02  2.3528888831616024e-02  2.3624867548280179e-02  2.3726920360437186e-02  2.3834625054514409e-02  2.3947667234620582e-02  2.4065892558594787e-02  2.4188932123423060e-02  2.4316425119892363e-02  2.4448056848012895e-02  2.4583627704304948e-02  2.4723152738003233e-02  2.4866763434114127e-02  2.5015732413861000e-02  2.5172059404928979e-02  2.5339250201209577e-02  2.5522339862626659e-02  2.5729817981700077e-02  2.5995749534152707e-02  2.6334617023843217e-02  2.7157154225877542e-02  2.8912547185086939e-02  3.3699382631123070e-02  4.3612849883212013e-02  8.4160773537294897e-02  1.6313795672162570e-01  2.4903604290799985e-01  1.7988203871710487e-01  4.4171778185559125e-02  2.2886520524070801e-02  2.2931702280379003e-02  2.2949083984930049e-02  2.2972656367132232e-02  2.3003376634968969e-02  2.3041212086639468e-02  2.3086063748567136e-02  2.3137797498083146e-02  2.3196295340717356e-02  2.3261419461398137e-02  2.3333066761691921e-02  2.3411156599346152e-02  2.3495625141994984e-02  2.3586413816689151e-02  2.3683074223180930e-02  2.3786381405745648e-02  2.3896051549419400e-02  2.4011339697763010e-02  2.4132539912558884e-02  2.4259525722799262e-02  2.4392082714200399e-02  2.4530127222079794e-02  2.4673611615166749e-02  2.4823363416869044e-02  2.4980249326705645e-02  2.5146572108821357e-02  2.5326889348562504e-02  2.5531594239521907e-02  2.5778273222548796e-02  2.6120237518122827e-02  2.6737122588608844e-02  2.7924375218720019e-02  3.2001272332382057e-02  4.4693403289395528e-02  1.1254811562161980e-01  3.4279391301453910e-01  6.1419579031995575e-01  8.4899882746318600e-01  9.2758944044633651e-01  9.0360808078700394e-01  4.4205894944757809e-02  2.2938479721856239e-02  2.2994416409724459e-02  2.3012264994625706e-02  2.3035965696594607e-02  2.3066814333616632e-02  2.3104790562448359e-02  2.3149781776131050e-02  2.3201652474501760e-02  2.3260292127182974e-02  2.3325579424784408e-02  2.3397422993436522e-02  2.3475801902265322e-02  2.3560661595311193e-02  2.3651970362826603e-02  2.3749743564937503e-02  2.3854074843211458e-02  2.3965885316960173e-02  2.4083779081540042e-02  2.4208302475754381e-02  2.4339627803690016e-02  2.4477540374305155e-02  2.4622237937708399e-02  2.4773964304217903e-02  2.4933658370964201e-02  2.5103052073432643e-02  2.5284627383070558e-02  2.5490612660290186e-02  2.5744062081426329e-02  2.6121473287423536e-02  2.6986532456158188e-02  2.9344702632707040e-02  3.6143698920108561e-02  7.1041426239132260e-02  2.5548630027402869e-01  6.4016735628786881e-01  8.8619810675074262e-01  9.4050883515068118e-01  9.6424076961352778e-01  9.7612889787516843e-01  9.5914461866098499e-01  4.4244530876672822e-02  2.2997589719165473e-02  2.3065858401888142e-02  2.3084247389332659e-02  2.3108098558802505e-02  2.3139079190915488e-02  2.3177184198927423e-02  2.3222289020974347e-02  2.3274249507702710e-02  2.3332951232696741e-02  2.3398315449071866e-02  2.3470264213791163e-02  2.3548803286196754e-02  2.3633998105641495e-02  2.3725775776717722e-02  2.3824356886909530e-02  2.3930322709239192e-02  2.4043828857139980e-02  2.4164674453752529e-02  2.4292953913776678e-02  2.4429114427089352e-02  2.4572877977590616e-02  2.4724341213167141e-02  2.4884192329069119e-02  2.5053584292501877e-02  2.5234347677755540e-02  2.5433785046757335e-02  2.5680640548409045e-02  2.6074190910763441e-02  2.7166948268766068e-02  3.0725474801963523e-02  4.2673639937826885e-02  1.1005031319270399e-01  4.1927750251626805e-01  7.9716343636344322e-01  9.2306905318938293e-01  9.5533567240721762e-01  9.6922229416297034e-01  9.7738147343839343e-01  9.8266068172030296e-01  9.7064068430516981e-01  4.4287881018721532e-02  2.3064158358854836e-02  2.3146425778816836e-02  2.3165443741906863e-02  2.3189471826340811e-02  2.3220589757825136e-02  2.3258807949244391e-02  2.3303974144657062e-02  2.3355942569918690e-02  2.3414588661482390e-02  2.3479847868556059e-02  2.3551711098894756e-02  2.3630205031783022e-02  2.3715464548434893e-02  2.3807661721943076e-02  2.3907070232676759e-02  2.4014298684436265e-02  2.4129843112225945e-02  2.4253719431051549e-02  2.4386171003417993e-02  2.4527635956099990e-02  2.4677781423728739e-02  2.4836543717372830e-02  2.5004244060299649e-02  2.5183410773019731e-02  2.5380951809857298e-02  2.5625994537558382e-02  2.6053020970043334e-02  2.7328838710113379e-02  3.2098657924555310e-02  4.9080560330168554e-02  1.5009416705143835e-01  5.2855957005128462e-01  8.5498617789243159e-01  9.3424593919769039e-01  9.5568773143865360e-01  9.6591717363988916e-01  9.7275277998787502e-01  9.7669292047239231e-01  9.7922452376321356e-01  9.6581147823164148e-01  4.4336088170337198e-02  2.3138531877393138e-02  2.3236588662406153e-02  2.3256356476706982e-02  2.3280598829504236e-02  2.3311867680636943e-02  2.3350168396003391e-02  2.3395321499886757e-02  2.3447160272374763e-02  2.3505553431695917e-02  2.3570441112592166e-02  2.3641867244379468e-02  2.3719973020259685e-02  2.3804966289169283e-02  2.3897204122833401e-02  2.3997297866919006e-02  2.4105812497416487e-02  2.4223425063865302e-02  2.4350569570101871e-02  2.4487559789351777e-02  2.4634926555934418e-02  2.4792321361183992e-02  2.4959126085677592e-02  2.5135455136700059e-02  2.5330443351412144e-02  2.5576568571385468e-02  2.6062683145085620e-02  2.7557046461243094e-02  3.3362247587241947e-02  5.3356312393806296e-02  1.9106941301200264e-01  6.0376129363146458e-01  8.7897832197336156e-01  9.3525785240968340e-01  9.5245854089585869e-01  9.6030528508201596e-01  9.6387992385631827e-01  9.6495862148276768e-01  9.6323116216800742e-01  9.5410472648843547e-01  9.2344162101936622e-01  4.4389407920870080e-02  2.3221080304119211e-02  2.3336862359048201e-02  2.3357549582908799e-02  2.3382104954047238e-02  2.3413577301848204e-02  2.3451940724141362e-02  2.3496964313646725e-02  2.3548445284563735e-02  2.3606264553624433e-02  2.3670386287902096e-02  2.3740894613350803e-02  2.3818031861030424e-02  2.3902264494183669e-02  2.3994043045292110e-02  2.4094261262548163e-02  2.4203910943972999e-02  2.4323646410293415e-02  2.4454424918835718e-02  2.4596497857955882e-02  2.4750549604100169e-02  2.4916832747160104e-02  2.5093547195244773e-02  2.5285527391527261e-02  2.5525014843318566e-02  2.6017075143296105e-02  2.7835530963427897e-02  3.4983392305031918e-02  5.6877610662356776e-02  2.1902396992670836e-01  6.5499471398519815e-01  8.9243955030828492e-01  9.3548627078487323e-01  9.4927207607675534e-01  9.5453023450232488e-01  9.5504565881572934e-01  9.5006851335211617e-01  9.3396314945437020e-01  8.8236202380863904e-01  5.1715102450543204e-01  2.9674394258033759e-01  4.4447881887935900e-02  2.3312173289562664e-02  2.3447807424401515e-02  2.3469693154528931e-02  2.3494749332443859e-02  2.3526564672768837e-02  2.3565002841786930e-02  2.3609756790095682e-02  2.3660571114949770e-02  2.3717311305974244e-02  2.3780022791437649e-02  2.3848898236721032e-02  2.3924266136169124e-02  2.4006825269442839e-02  2.4097454585531849e-02  2.4197090934909474e-02  2.4307294466809765e-02  2.4429044909313233e-02  2.4563729557691049e-02  2.4712079793890271e-02  2.4874481619114368e-02  2.5052740289667356e-02  2.5248426490062502e-02  2.5492484097070660e-02  2.5969085318084402e-02  2.7695768592505443e-02  3.5737393815551112e-02  5.8797776918185149e-02  2.3226178872788691e-01  6.7911909211658517e-01  8.9741259679403695e-01  9.3560362828906429e-01  9.4689384769273388e-01  9.4966875155099439e-01  9.4885758155928546e-01  9.3869003955405295e-01  9.0506850390297655e-01  7.3939561264511500e-01  3.1099753876346503e-01  4.8008024929816207e-02  5.1921748490867156e-02  4.4511667591719678e-02  2.3412132772711515e-02  2.3569988119448694e-02  2.3593561765572188e-02  2.3619496655335866e-02  2.3651892516157361e-02  2.3690478523717536e-02  2.3734759555870816e-02  2.3784472498013763e-02  2.3839464266853731e-02  2.3899830517683136e-02  2.3965957598584983e-02  2.4038360882900421e-02  2.4117948573193521e-02  2.4206071253143890e-02  2.4304154717192300e-02  2.4414042004335799e-02  2.4537512931748093e-02  2.4676230069781112e-02  2.4831968049960913e-02  2.5006822824277714e-02  2.5205175563682899e-02  2.5456714621927626e-02  2.5944513195356275e-02  2.7566126225850460e-02  3.5575160163489994e-02  5.5973436098387536e-02  2.2676969134087380e-01  6.9102299201010353e-01  9.0064848432887212e-01  9.3508834318696188e-01  9.4508382815197756e-01  9.4501190291345716e-01  9.3979297271978379e-01  9.2542493829279937e-01  8.8594149856920057e-01  6.1168768210684976e-01  2.1212343312524032e-01  4.6507785312556220e-02  2.8636447773330971e-02  4.5578494831639761e-02  4.4580593759481035e-02  2.3521101546111218e-02  2.3703926458288956e-02  2.3730051620059117e-02  2.3757657948994825e-02  2.3791158232261883e-02  2.3830037975170651e-02  2.3873544576696985e-02  2.3921366599940118e-02  2.3973536387029551e-02  2.4030281050936068e-02  2.4092107756534496e-02  2.4159869523029696e-02  2.4234678158175545e-02  2.4318433719907322e-02  2.4413185494354638e-02  2.4521115105698411e-02  2.4645166906921086e-02  2.4788418939926907e-02  2.4953298979995951e-02  2.5149715050172404e-02  2.5398584382653817e-02  2.5862557793781282e-02  2.7376492450307332e-02  3.5128319133456848e-02  5.7068515516163203e-02  2.1335876310723045e-01  6.8142977392343318e-01  9.0313836374047718e-01  9.3667611035896736e-01  9.4425190203205878e-01  9.4074872820754485e-01  9.2952508610802087e-01  9.0435341629670840e-01  8.4809275105950732e-01  5.0478161142836431e-01  1.4560931597347082e-01  4.0377114709148385e-02  2.9605935192262837e-02  2.5632669017598888e-02  4.5386121214765637e-02  4.4654201473147540e-02  2.3638771333211191e-02  2.3849895250289764e-02  2.3880233748207972e-02  2.3911035389225760e-02  2.3946756495250032e-02  2.3986259709083094e-02  2.4028539768963603e-02  2.4073306029910223e-02  2.4120867534517990e-02  2.4171967352160387e-02  2.4227329995713948e-02  2.4287935470725823e-02  2.4355496142772354e-02  2.4432461091975798e-02  2.4521652418459487e-02  2.4625452285657393e-02  2.4748122617366589e-02  2.4896482019582323e-02  2.5078601974459352e-02  2.5323768428442819e-02  2.5774885519085702e-02  2.7252151645074725e-02  3.3709758635152534e-02  6.1115268258932529e-02  1.8907421225439772e-01  6.4442844086780660e-01  8.9894246365309916e-01  9.3885137891411852e-01  9.4630598212883255e-01  9.3987984401956182e-01  9.1565335548933546e-01  8.6352866942329143e-01  8.0740825576986897e-01  4.5666999055752322e-01  1.0418439370401086e-01  3.5781915693117880e-02  2.8685076687768915e-02  2.6217942344331814e-02  2.4948444017668495e-02  4.5285502687668913e-02  4.4731097371120715e-02  2.3763914936859452e-02  2.4007580652102747e-02  2.4045358944838169e-02  2.4082315537746094e-02  2.4122280368407703e-02  2.4163091346226608e-02  2.4203280698007701e-02  2.4242941247953759e-02  2.4283376340291433e-02  2.4326130962926636e-02  2.4372103153206696e-02  2.4421883364902270e-02  2.4478045478179625e-02  2.4545017445274285e-02  2.4626103680108452e-02  2.4723845675982178e-02  2.4845200941893301e-02  2.5005221633947736e-02  2.5246564563803937e-02  2.5702155450563674e-02  2.7166364762818584e-02  3.3016450553478259e-02  5.9971399842913900e-02  1.6460840128825846e-01  5.9703551943103939e-01  8.8485989970288292e-01  9.3670202669504588e-01  9.4776471202346368e-01  9.4355512242313588e-01  9.2674826779084374e-01  8.6015986609732387e-01  7.7029942959700715e-01  4.3289840201700214e-01  8.3483218181184399e-02  3.3598103610742627e-02  2.7698827084121171e-02  2.5797707624868819e-02  2.5111648797246922e-02  2.4419282154993182e-02  4.5067464144658870e-02  4.4808265681667542e-02  2.3893487205619804e-02  2.4175793433254881e-02  2.4227212761133526e-02  2.4275789627390503e-02  2.4323585928654891e-02  2.4366844877379539e-02  2.4403297600424905e-02  2.4433912932548232e-02  2.4462717543847656e-02  2.4494061821190696e-02  2.4527867742339553e-02  2.4562371736894038e-02  2.4601456938146055e-02  2.4654971054800245e-02  2.4733097845967437e-02  2.4830433903386753e-02  2.4962248399414973e-02  2.5210907342802021e-02  2.5867531182553825e-02  2.7398361551387931e-02  3.3617713496580985e-02  5.5419465303078119e-02  1.7546087942917624e-01  5.5115323331013688e-01  8.6393836695779491e-01  9.3271039228969621e-01  9.4696160617297209e-01  9.4439222815241830e-01  9.2824062505334348e-01  8.9648431541774043e-01  8.1854137889647705e-01  4.3778767352044762e-01  7.3612630978210622e-02  3.2524830899956503e-02  2.7097983474794377e-02  2.5524227853385460e-02  2.4829351098252683e-02  2.4423336120573184e-02  2.3941653139193726e-02  4.4814445801087614e-02  4.4879011108870333e-02  2.4020563357492943e-02  2.4351813800404833e-02  2.4429506850824990e-02  2.4499707921014434e-02  2.4561325399273325e-02  2.4608731892989046e-02  2.4638104592019709e-02  2.465214905