<?xml version="1.0"?>
<VTKFile type="UnstructuredGrid"  version="0.1"  >
<UnstructuredGrid>
<Piece  NumberOfPoints="1681" NumberOfCells="3200">
<Points>
<DataArray  type="Float64"  NumberOfComponents="3"  format="ascii">0 0 0  0.025 0 0  0.05 0 0  0.075 0 0  0.1 0 0  0.125 0 0  0.15 0 0  0.175 0 0  0.2 0 0  0.225 0 0  0.25 0 0  0.275 0 0  0.3 0 0  0.325 0 0  0.35 0 0  0.375 0 0  0.4 0 0  0.425 0 0  0.45 0 0  0.475 0 0  0.5 0 0  0.525 0 0  0.55 0 0  0.575 0 0  0.6 0 0  0.625 0 0  0.65 0 0  0.675 0 0  0.7 0 0  0.725 0 0  0.75 0 0  0.775 0 0  0.8 0 0  0.825 0 0  0.85 0 0  0.875 0 0  0.9 0 0  0.925 0 0  0.95 0 0  0.975 0 0  1 0 0  0 0.025 0  0.025 0.025 0  0.05 0.025 0  0.075 0.025 0  0.1 0.025 0  0.125 0.025 0  0.15 0.025 0  0.175 0.025 0  0.2 0.025 0  0.225 0.025 0  0.25 0.025 0  0.275 0.025 0  0.3 0.025 0  0.325 0.025 0  0.35 0.025 0  0.375 0.025 0  0.4 0.025 0  0.425 0.025 0  0.45 0.025 0  0.475 0.025 0  0.5 0.025 0  0.525 0.025 0  0.55 0.025 0  0.575 0.025 0  0.6 0.025 0  0.625 0.025 0  0.65 0.025 0  0.675 0.025 0  0.7 0.025 0  0.725 0.025 0  0.75 0.025 0  0.775 0.025 0  0.8 0.025 0  0.825 0.025 0  0.85 0.025 0  0.875 0.025 0  0.9 0.025 0  0.925 0.025 0  0.95 0.025 0  0.975 0.025 0  1 0.025 0  0 0.05 0  0.025 0.05 0  0.05 0.05 0  0.075 0.05 0  0.1 0.05 0  0.125 0.05 0  0.15 0.05 0  0.175 0.05 0  0.2 0.05 0  0.225 0.05 0  0.25 0.05 0  0.275 0.05 0  0.3 0.05 0  0.325 0.05 0  0.35 0.05 0  0.375 0.05 0  0.4 0.05 0  0.425 0.05 0  0.45 0.05 0  0.475 0.05 0  0.5 0.05 0  0.525 0.05 0  0.55 0.05 0  0.575 0.05 0  0.6 0.05 0  0.625 0.05 0  0.65 0.05 0  0.675 0.05 0  0.7 0.05 0  0.725 0.05 0  0.75 0.05 0  0.775 0.05 0  0.8 0.05 0  0.825 0.05 0  0.85 0.05 0  0.875 0.05 0  0.9 0.05 0  0.925 0.05 0  0.95 0.05 0  0.975 0.05 0  1 0.05 0  0 0.075 0  0.025 0.075 0  0.05 0.075 0  0.075 0.075 0  0.1 0.075 0  0.125 0.075 0  0.15 0.075 0  0.175 0.075 0  0.2 0.075 0  0.225 0.075 0  0.25 0.075 0  0.275 0.075 0  0.3 0.075 0  0.325 0.075 0  0.35 0.075 0  0.375 0.075 0  0.4 0.075 0  0.425 0.075 0  0.45 0.075 0  0.475 0.075 0  0.5 0.075 0  0.525 0.075 0  0.55 0.075 0  0.575 0.075 0  0.6 0.075 0  0.625 0.075 0  0.65 0.075 0  0.675 0.075 0  0.7 0.075 0  0.725 0.075 0  0.75 0.075 0  0.775 0.075 0  0.8 0.075 0  0.825 0.075 0  0.85 0.075 0  0.875 0.075 0  0.9 0.075 0  0.925 0.075 0  0.95 0.075 0  0.975 0.075 0  1 0.075 0  0 0.1 0  0.025 0.1 0  0.05 0.1 0  0.075 0.1 0  0.1 0.1 0  0.125 0.1 0  0.15 0.1 0  0.175 0.1 0  0.2 0.1 0  0.225 0.1 0  0.25 0.1 0  0.275 0.1 0  0.3 0.1 0  0.325 0.1 0  0.35 0.1 0  0.375 0.1 0  0.4 0.1 0  0.425 0.1 0  0.45 0.1 0  0.475 0.1 0  0.5 0.1 0  0.525 0.1 0  0.55 0.1 0  0.575 0.1 0  0.6 0.1 0  0.625 0.1 0  0.65 0.1 0  0.675 0.1 0  0.7 0.1 0  0.725 0.1 0  0.75 0.1 0  0.775 0.1 0  0.8 0.1 0  0.825 0.1 0  0.85 0.1 0  0.875 0.1 0  0.9 0.1 0  0.925 0.1 0  0.95 0.1 0  0.975 0.1 0  1 0.1 0  0 0.125 0  0.025 0.125 0  0.05 0.125 0  0.075 0.125 0  0.1 0.125 0  0.125 0.125 0  0.15 0.125 0  0.175 0.125 0  0.2 0.125 0  0.225 0.125 0  0.25 0.125 0  0.275 0.125 0  0.3 0.125 0  0.325 0.125 0  0.35 0.125 0  0.375 0.125 0  0.4 0.125 0  0.425 0.125 0  0.45 0.125 0  0.475 0.125 0  0.5 0.125 0  0.525 0.125 0  0.55 0.125 0  0.575 0.125 0  0.6 0.125 0  0.625 0.125 0  0.65 0.125 0  0.675 0.125 0  0.7 0.125 0  0.725 0.125 0  0.75 0.125 0  0.775 0.125 0  0.8 0.125 0  0.825 0.125 0  0.85 0.125 0  0.875 0.125 0  0.9 0.125 0  0.925 0.125 0  0.95 0.125 0  0.975 0.125 0  1 0.125 0  0 0.15 0  0.025 0.15 0  0.05 0.15 0  0.075 0.15 0  0.1 0.15 0  0.125 0.15 0  0.15 0.15 0  0.175 0.15 0  0.2 0.15 0  0.225 0.15 0  0.25 0.15 0  0.275 0.15 0  0.3 0.15 0  0.325 0.15 0  0.35 0.15 0  0.375 0.15 0  0.4 0.15 0  0.425 0.15 0  0.45 0.15 0  0.475 0.15 0  0.5 0.15 0  0.525 0.15 0  0.55 0.15 0  0.575 0.15 0  0.6 0.15 0  0.625 0.15 0  0.65 0.15 0  0.675 0.15 0  0.7 0.15 0  0.725 0.15 0  0.75 0.15 0  0.775 0.15 0  0.8 0.15 0  0.825 0.15 0  0.85 0.15 0  0.875 0.15 0  0.9 0.15 0  0.925 0.15 0  0.95 0.15 0  0.975 0.15 0  1 0.15 0  0 0.175 0  0.025 0.175 0  0.05 0.175 0  0.075 0.175 0  0.1 0.175 0  0.125 0.175 0  0.15 0.175 0  0.175 0.175 0  0.2 0.175 0  0.225 0.175 0  0.25 0.175 0  0.275 0.175 0  0.3 0.175 0  0.325 0.175 0  0.35 0.175 0  0.375 0.175 0  0.4 0.175 0  0.425 0.175 0  0.45 0.175 0  0.475 0.175 0  0.5 0.175 0  0.525 0.175 0  0.55 0.175 0  0.575 0.175 0  0.6 0.175 0  0.625 0.175 0  0.65 0.175 0  0.675 0.175 0  0.7 0.175 0  0.725 0.175 0  0.75 0.175 0  0.775 0.175 0  0.8 0.175 0  0.825 0.175 0  0.85 0.175 0  0.875 0.175 0  0.9 0.175 0  0.925 0.175 0  0.95 0.175 0  0.975 0.175 0  1 0.175 0  0 0.2 0  0.025 0.2 0  0.05 0.2 0  0.075 0.2 0  0.1 0.2 0  0.125 0.2 0  0.15 0.2 0  0.175 0.2 0  0.2 0.2 0  0.225 0.2 0  0.25 0.2 0  0.275 0.2 0  0.3 0.2 0  0.325 0.2 0  0.35 0.2 0  0.375 0.2 0  0.4 0.2 0  0.425 0.2 0  0.45 0.2 0  0.475 0.2 0  0.5 0.2 0  0.525 0.2 0  0.55 0.2 0  0.575 0.2 0  0.6 0.2 0  0.625 0.2 0  0.65 0.2 0  0.675 0.2 0  0.7 0.2 0  0.725 0.2 0  0.75 0.2 0  0.775 0.2 0  0.8 0.2 0  0.825 0.2 0  0.85 0.2 0  0.875 0.2 0  0.9 0.2 0  0.925 0.2 0  0.95 0.2 0  0.975 0.2 0  1 0.2 0  0 0.225 0  0.025 0.225 0  0.05 0.225 0  0.075 0.225 0  0.1 0.225 0  0.125 0.225 0  0.15 0.225 0  0.175 0.225 0  0.2 0.225 0  0.225 0.225 0  0.25 0.225 0  0.275 0.225 0  0.3 0.225 0  0.325 0.225 0  0.35 0.225 0  0.375 0.225 0  0.4 0.225 0  0.425 0.225 0  0.45 0.225 0  0.475 0.225 0  0.5 0.225 0  0.525 0.225 0  0.55 0.225 0  0.575 0.225 0  0.6 0.225 0  0.625 0.225 0  0.65 0.225 0  0.675 0.225 0  0.7 0.225 0  0.725 0.225 0  0.75 0.225 0  0.775 0.225 0  0.8 0.225 0  0.825 0.225 0  0.85 0.225 0  0.875 0.225 0  0.9 0.225 0  0.925 0.225 0  0.95 0.225 0  0.975 0.225 0  1 0.225 0  0 0.25 0  0.025 0.25 0  0.05 0.25 0  0.075 0.25 0  0.1 0.25 0  0.125 0.25 0  0.15 0.25 0  0.175 0.25 0  0.2 0.25 0  0.225 0.25 0  0.25 0.25 0  0.275 0.25 0  0.3 0.25 0  0.325 0.25 0  0.35 0.25 0  0.375 0.25 0  0.4 0.25 0  0.425 0.25 0  0.45 0.25 0  0.475 0.25 0  0.5 0.25 0  0.525 0.25 0  0.55 0.25 0  0.575 0.25 0  0.6 0.25 0  0.625 0.25 0  0.65 0.25 0  0.675 0.25 0  0.7 0.25 0  0.725 0.25 0  0.75 0.25 0  0.775 0.25 0  0.8 0.25 0  0.825 0.25 0  0.85 0.25 0  0.875 0.25 0  0.9 0.25 0  0.925 0.25 0  0.95 0.25 0  0.975 0.25 0  1 0.25 0  0 0.275 0  0.025 0.275 0  0.05 0.275 0  0.075 0.275 0  0.1 0.275 0  0.125 0.275 0  0.15 0.275 0  0.175 0.275 0  0.2 0.275 0  0.225 0.275 0  0.25 0.275 0  0.275 0.275 0  0.3 0.275 0  0.325 0.275 0  0.35 0.275 0  0.375 0.275 0  0.4 0.275 0  0.425 0.275 0  0.45 0.275 0  0.475 0.275 0  0.5 0.275 0  0.525 0.275 0  0.55 0.275 0  0.575 0.275 0  0.6 0.275 0  0.625 0.275 0  0.65 0.275 0  0.675 0.275 0  0.7 0.275 0  0.725 0.275 0  0.75 0.275 0  0.775 0.275 0  0.8 0.275 0  0.825 0.275 0  0.85 0.275 0  0.875 0.275 0  0.9 0.275 0  0.925 0.275 0  0.95 0.275 0  0.975 0.275 0  1 0.275 0  0 0.3 0  0.025 0.3 0  0.05 0.3 0  0.075 0.3 0  0.1 0.3 0  0.125 0.3 0  0.15 0.3 0  0.175 0.3 0  0.2 0.3 0  0.225 0.3 0  0.25 0.3 0  0.275 0.3 0  0.3 0.3 0  0.325 0.3 0  0.35 0.3 0  0.375 0.3 0  0.4 0.3 0  0.425 0.3 0  0.45 0.3 0  0.475 0.3 0  0.5 0.3 0  0.525 0.3 0  0.55 0.3 0  0.575 0.3 0  0.6 0.3 0  0.625 0.3 0  0.65 0.3 0  0.675 0.3 0  0.7 0.3 0  0.725 0.3 0  0.75 0.3 0  0.775 0.3 0  0.8 0.3 0  0.825 0.3 0  0.85 0.3 0  0.875 0.3 0  0.9 0.3 0  0.925 0.3 0  0.95 0.3 0  0.975 0.3 0  1 0.3 0  0 0.325 0  0.025 0.325 0  0.05 0.325 0  0.075 0.325 0  0.1 0.325 0  0.125 0.325 0  0.15 0.325 0  0.175 0.325 0  0.2 0.325 0  0.225 0.325 0  0.25 0.325 0  0.275 0.325 0  0.3 0.325 0  0.325 0.325 0  0.35 0.325 0  0.375 0.325 0  0.4 0.325 0  0.425 0.325 0  0.45 0.325 0  0.475 0.325 0  0.5 0.325 0  0.525 0.325 0  0.55 0.325 0  0.575 0.325 0  0.6 0.325 0  0.625 0.325 0  0.65 0.325 0  0.675 0.325 0  0.7 0.325 0  0.725 0.325 0  0.75 0.325 0  0.775 0.325 0  0.8 0.325 0  0.825 0.325 0  0.85 0.325 0  0.875 0.325 0  0.9 0.325 0  0.925 0.325 0  0.95 0.325 0  0.975 0.325 0  1 0.325 0  0 0.35 0  0.025 0.35 0  0.05 0.35 0  0.075 0.35 0  0.1 0.35 0  0.125 0.35 0  0.15 0.35 0  0.175 0.35 0  0.2 0.35 0  0.225 0.35 0  0.25 0.35 0  0.275 0.35 0  0.3 0.35 0  0.325 0.35 0  0.35 0.35 0  0.375 0.35 0  0.4 0.35 0  0.425 0.35 0  0.45 0.35 0  0.475 0.35 0  0.5 0.35 0  0.525 0.35 0  0.55 0.35 0  0.575 0.35 0  0.6 0.35 0  0.625 0.35 0  0.65 0.35 0  0.675 0.35 0  0.7 0.35 0  0.725 0.35 0  0.75 0.35 0  0.775 0.35 0  0.8 0.35 0  0.825 0.35 0  0.85 0.35 0  0.875 0.35 0  0.9 0.35 0  0.925 0.35 0  0.95 0.35 0  0.975 0.35 0  1 0.35 0  0 0.375 0  0.025 0.375 0  0.05 0.375 0  0.075 0.375 0  0.1 0.375 0  0.125 0.375 0  0.15 0.375 0  0.175 0.375 0  0.2 0.375 0  0.225 0.375 0  0.25 0.375 0  0.275 0.375 0  0.3 0.375 0  0.325 0.375 0  0.35 0.375 0  0.375 0.375 0  0.4 0.375 0  0.425 0.375 0  0.45 0.375 0  0.475 0.375 0  0.5 0.375 0  0.525 0.375 0  0.55 0.375 0  0.575 0.375 0  0.6 0.375 0  0.625 0.375 0  0.65 0.375 0  0.675 0.375 0  0.7 0.375 0  0.725 0.375 0  0.75 0.375 0  0.775 0.375 0  0.8 0.375 0  0.825 0.375 0  0.85 0.375 0  0.875 0.375 0  0.9 0.375 0  0.925 0.375 0  0.95 0.375 0  0.975 0.375 0  1 0.375 0  0 0.4 0  0.025 0.4 0  0.05 0.4 0  0.075 0.4 0  0.1 0.4 0  0.125 0.4 0  0.15 0.4 0  0.175 0.4 0  0.2 0.4 0  0.225 0.4 0  0.25 0.4 0  0.275 0.4 0  0.3 0.4 0  0.325 0.4 0  0.35 0.4 0  0.375 0.4 0  0.4 0.4 0  0.425 0.4 0  0.45 0.4 0  0.475 0.4 0  0.5 0.4 0  0.525 0.4 0  0.55 0.4 0  0.575 0.4 0  0.6 0.4 0  0.625 0.4 0  0.65 0.4 0  0.675 0.4 0  0.7 0.4 0  0.725 0.4 0  0.75 0.4 0  0.775 0.4 0  0.8 0.4 0  0.825 0.4 0  0.85 0.4 0  0.875 0.4 0  0.9 0.4 0  0.925 0.4 0  0.95 0.4 0  0.975 0.4 0  1 0.4 0  0 0.425 0  0.025 0.425 0  0.05 0.425 0  0.075 0.425 0  0.1 0.425 0  0.125 0.425 0  0.15 0.425 0  0.175 0.425 0  0.2 0.425 0  0.225 0.425 0  0.25 0.425 0  0.275 0.425 0  0.3 0.425 0  0.325 0.425 0  0.35 0.425 0  0.375 0.425 0  0.4 0.425 0  0.425 0.425 0  0.45 0.425 0  0.475 0.425 0  0.5 0.425 0  0.525 0.425 0  0.55 0.425 0  0.575 0.425 0  0.6 0.425 0  0.625 0.425 0  0.65 0.425 0  0.675 0.425 0  0.7 0.425 0  0.725 0.425 0  0.75 0.425 0  0.775 0.425 0  0.8 0.425 0  0.825 0.425 0  0.85 0.425 0  0.875 0.425 0  0.9 0.425 0  0.925 0.425 0  0.95 0.425 0  0.975 0.425 0  1 0.425 0  0 0.45 0  0.02
[...]
<PointData  Scalars="ControlVisualisation"> 
<DataArray  type="Float64"  Name="ControlVisualisation"  format="ascii">3.1370781156339865e-02  1.8405169922478110e-02  1.8416505578781335e-02  1.8436534620387961e-02  1.8464961433662642e-02  1.8501524478232556e-02  1.8545852276501688e-02  1.8597480786546595e-02  1.8655849915191532e-02  1.8720300104374685e-02  1.8790069499884494e-02  1.8864290252663909e-02  1.8941985649224339e-02  1.9022069282316464e-02  1.9103347457095726e-02  1.9184525758351605e-02  1.9264220239280084e-02  1.9340973163418592e-02  1.9413272709237497e-02  1.9479575581929906e-02  1.9538331090883106e-02  1.9588004983514942e-02  1.9627101267336938e-02  1.9654180577181733e-02  1.9667874601904806e-02  1.9666897939236792e-02  1.9650061756215770e-02  1.9616297830393412e-02  1.9564707074180666e-02  1.9494653860924357e-02  1.9405931897689313e-02  1.9299032490477559e-02  1.9175548542982614e-02  1.9038721319854717e-02  1.8894138797753247e-02  1.8750328910501973e-02  1.8618571859882437e-02  1.8511255516918308e-02  1.8439255500946033e-02  1.8406180730385410e-02  1.0246458531659898e-01  1.8405175680357197e-02  8.0294116741631491e-03  8.0469509158724428e-03  8.0780785014433910e-03  8.1231514543197575e-03  8.1816865939487744e-03  8.2529743771030013e-03  8.3361350752350193e-03  8.4301171826178176e-03  8.5337186262211748e-03  8.6455994328637157e-03  8.7642872191083000e-03  8.8881751493933379e-03  9.0155133858820513e-03  9.1443974884564110e-03  9.2727586006614206e-03  9.3983606248604964e-03  9.5188087610739609e-03  9.6315719574507040e-03  9.7340194938142326e-03  9.8234697506806128e-03  9.8972478524169908e-03  9.9527487499209248e-03  9.9875034722705699e-03  9.9992483356767699e-03  9.9859992304674149e-03  9.9461353237382324e-03  9.8784990691755704e-03  9.7825241746852115e-03  9.6584117690738831e-03  9.5073853437651918e-03  9.3320742983406760e-03  9.1370429972331742e-03  8.9293976798799322e-03  8.7192307768130927e-03  8.5191799348955898e-03  8.3428357209916967e-03  8.2021003911926082e-03  8.1044417814031735e-03  8.0454278593045849e-03  1.8406175569094241e-02  1.8416582455187000e-02  8.0470460164459162e-03  8.0737492590442078e-03  8.1139981484765929e-03  8.1726426115336474e-03  8.2492587019714556e-03  8.3430704101427368e-03  8.4530254818275703e-03  8.5777695854784113e-03  8.7156499014769476e-03  8.8647212075101817e-03  9.0227601929812693e-03  9.1872833868673776e-03  9.3555683163003070e-03  9.5246795275685942e-03  9.6915028270967152e-03  9.8527915523019538e-03  1.0005227147157448e-02  1.0145493078822985e-02  1.0270357297797170e-02  1.0376755614189435e-02  1.0461867902489945e-02  1.0523181315359838e-02  1.0558538567512609e-02  1.0566172484700247e-02  1.0544728068136548e-02  1.0493269439063252e-02  1.0411263887091996e-02  1.0298535309677632e-02  1.0155193718921081e-02  9.9816038090899447e-03  9.7785460952552056e-03  9.5478141306080191e-03  9.2937005938243215e-03  9.0253562001778812e-03  8.7590614504339925e-03  8.5177738313392207e-03  8.3240345368701205e-03  8.1929121773800760e-03  8.1031768044931961e-03  1.8438950669067120e-02  1.8436928499407947e-02  8.0786380773444563e-03  8.1145820462313126e-03  8.1556036111708526e-03  8.2153215149260370e-03  8.2934625160851309e-03  8.3892993620579212e-03  8.5018206540799987e-03  8.6297006357683968e-03  8.7712729124574361e-03  8.9245247960454584e-03  9.0871036196024380e-03  9.2563332246481979e-03  9.4292422577207883e-03  9.6026064933485908e-03  9.7730081221049491e-03  9.9369140239661587e-03  1.0090772316391288e-02  1.0231122493450354e-02  1.0354710608234622e-02  1.0458598832470360e-02  1.0540259406937119e-02  1.0597646161434575e-02  1.0629240563358851e-02  1.0634071010457765e-02  1.0611702239108262e-02  1.0562186563163756e-02  1.0485966271093132e-02  1.0383720927101851e-02  1.0256179904247409e-02  1.0103961637036456e-02  9.9274701125572108e-03  9.7269963737729361e-03  9.5031698868083998e-03  9.2574547321998858e-03  8.9952362994204157e-03  8.7301333382630540e-03  8.4880312094841384e-03  8.3136656563846129e-03  8.1903049904675715e-03  1.8511268529668369e-02  1.8466235748638676e-02  8.1250575601195581e-03  8.1749637098996464e-03  8.2171053109701964e-03  8.2781045454500268e-03  8.3578831982386737e-03  8.4556321244484960e-03  8.5702614076718225e-03  8.7003674088493906e-03  8.8441965591622238e-03  8.9996445709501459e-03  9.1642653630476679e-03  9.3352906458603595e-03  9.5096608632011231e-03  9.6840699302916874e-03  9.8550270272712726e-03  1.0018937783292516e-02  1.0172204544285406e-02  1.0311341708196847e-02  1.0433098737635560e-02  1.0534581880663075e-02  1.0613366485648899e-02  1.0667594336702335e-02  1.0696052610018880e-02  1.0698230823973582e-02  1.0674348499154166e-02  1.0625340146363680e-02  1.0552781649199282e-02  1.0458726599694405e-02  1.0345427475377748e-02  1.0214863308532362e-02  1.0068222571255050e-02  9.9061514370269513e-03  9.7294670932852947e-03  9.5383605942274945e-03  9.3285502874285216e-03  9.0849950219202818e-03  8.8066288929258569e-03  8.5506779121373670e-03  8.3151843149321097e-03  1.8622220145991106e-02  1.8504693348406931e-02  8.1865583464347629e-03  8.2554706516578570e-03  8.2992920936364664e-03  8.3620389685894921e-03  8.4439492662063704e-03  8.5440756515685872e-03  8.6611826509141038e-03  8.7937145059777191e-03  8.9397648232056471e-03  9.0970892848880949e-03  9.2631264552343190e-03  9.4350267365905308e-03  9.6096873854284361e-03  9.7837948152437876e-03  9.9538768015774940e-03  1.0116367396900196e-02  1.0267686030388135e-02  1.0404329952198223e-02  1.0522977026388330e-02  1.0620595094699752e-02  1.0694555382791328e-02  1.0742750387934551e-02  1.0763719105246353e-02  1.0756781983742830e-02  1.0722179693746463e-02  1.0661197379262842e-02  1.0576240266841626e-02  1.0470806728547801e-02  1.0349397864323947e-02  1.0217297586362284e-02  1.0080526047474194e-02  9.9452491004561831e-03  9.8190875666732836e-03  9.7148054061564539e-03  9.6313250024551260e-03  9.5385343377496334e-03  9.3817015264328792e-03  9.0005892786223628e-03  8.3788390501566262e-03  1.8626360941244955e-02  1.8552506921692333e-02  8.2633714051596474e-03  8.3566250270566654e-03  8.4028271387606001e-03  8.4677889312006586e-03  8.5522739260358235e-03  8.6551916590805172e-03  8.7751110375242618e-03  8.9102638844681756e-03  9.0585342234149619e-03  9.2174903695479010e-03  9.3844227328129595e-03  9.5563840515156574e-03  9.7302265854739313e-03  9.9026352189184094e-03  1.0070157852957819e-02  1.0229236201333656e-02  1.0376240448322686e-02  1.0507510647315314e-02  1.0619407257602506e-02  1.0708374006235798e-02  1.0771018523179767e-02  1.0804219414107767e-02  1.0805270173981975e-02  1.0772075374250057e-02  1.0703422572572896e-02  1.0599386091431726e-02  1.0461936847676396e-02  1.0295857272583090e-02  1.0109881292158967e-02  9.9173692467673432e-03  9.7344404354521834e-03  9.5695576888727030e-03  9.4394193698314841e-03  9.4399952898764974e-03  9.7148818798372776e-03  1.0286393449323663e-02  1.0916535240330370e-02  1.0847094482255589e-02  1.0087255201648937e-02  1.9370272071678161e-02  1.8609905715155459e-02  8.3557295393450956e-03  8.4789227276479470e-03  8.5283690833386078e-03  8.5960238793960329e-03  8.6834601256480549e-03  8.7894600440150735e-03  8.9123420340351256e-03  9.0500583531130351e-03  9.2002205775322185e-03  9.3601572632127338e-03  9.5269703925544048e-03  9.6975836169895108e-03  9.8687731821813108e-03  1.0037177897795412e-02  1.0199288239844664e-02  1.0351417701791949e-02  1.0489661152104581e-02  1.0609845803589077e-02  1.0707481089655017e-02  1.0777715432023606e-02  1.0815311983236568e-02  1.0814669198079758e-02  1.0769942258547844e-02  1.0675371365992423e-02  1.0525957985277305e-02  1.0318566731975263e-02  1.0053244560619422e-02  9.7340987165404399e-03  9.3675906350868081e-03  8.9611290838710125e-03  8.5276226582914182e-03  8.0763534566185152e-03  7.6763950460787423e-03  8.4143162346640432e-03  1.9396255065039846e-02  5.7367236072664030e-02  9.6049188992165149e-02  1.6142262355941792e-01  2.3824771005814976e-01  1.6231097451147397e-01  1.8677123962418454e-02  8.4638231584726192e-03  8.6227226649931918e-03  8.6764464081699414e-03  8.7472734280747907e-03  8.8379283744717489e-03  8.9470991025910294e-03  9.0727874638291042e-03  9.2125825836797386e-03  9.3637459783953263e-03  9.5233001458536158e-03  9.6881002435170449e-03  9.8548795897652926e-03  1.0020256738271581e-02  1.0180698480912121e-02  1.0332437628537951e-02  1.0471347384721077e-02  1.0592775132882912e-02  1.0691339495982010e-02  1.0760698627099554e-02  1.0793313222255782e-02  1.0780259768811157e-02  1.0711195087288150e-02  1.0574602927751552e-02  1.0358350130303985e-02  1.0050365267681783e-02  9.6384045964242170e-03  9.1067528055243079e-03  8.4251999929450781e-03  7.5102958938006092e-03  6.1747074328086515e-03  4.7515730961518766e-03  1.0031286056993220e-02  3.8511107359865820e-02  6.6564843725204562e-02  2.1482908024672148e-01  4.8640761662698973e-01  7.5886694466812121e-01  9.6889765791168048e-01  9.8796298026218343e-01  9.7884475596150167e-01  1.8754375022121239e-02  8.5877670339008054e-03  8.7881170508242734e-03  8.8472682242835606e-03  8.9217013521136306e-03  9.0156598588863393e-03  9.1277765560881484e-03  9.2556517691053768e-03  9.3964036107274992e-03  9.5468408956673051e-03  9.7035837293692612e-03  9.8631385593394676e-03  1.0021919870423251e-02  1.0176205560735263e-02  1.0322019700545781e-02  1.0454938749887581e-02  1.0569816983345449e-02  1.0660427933579710e-02  1.0719032932020953e-02  1.0735922856943041e-02  1.0699036397134778e-02  1.0593801746073347e-02  1.0403248327763228e-02  1.0108051611185200e-02  9.6845271963579161e-03  9.0957446591045515e-03  8.2668027221996405e-03  7.0777145658100678e-03  5.8044547138898167e-03  7.6748645693325984e-03  2.1122513295218189e-02  3.6155633065192115e-02  5.4262604446614876e-02  2.2535503421978131e-01  5.1135425300791626e-01  7.9511894414981044e-01  9.6996544942337626e-01  9.8954630111545205e-01  9.9278149761784462e-01  9.9512843610085955e-01  9.9171209905620705e-01  1.8841814690937105e-02  8.7275416374352332e-03  8.9747409739655559e-03  9.0404639512649491e-03  9.1188100471706873e-03  9.2158693657098372e-03  9.3302412862606987e-03  9.4590073472649635e-03  9.5986676740477065e-03  9.7454283457935123e-03  9.8953458863560283e-03  1.0044382514269184e-02  1.0188374497340974e-02  1.0322905316510591e-02  1.0443076303165150e-02  1.0543162680642022e-02  1.0616147339136192e-02  1.0653156773949856e-02  1.0642902427973330e-02  1.0571328708059338e-02  1.0421632316912035e-02  1.0174298165472728e-02  9.8046988653529704e-03  9.2741468343842046e-03  8.5303102633584611e-03  7.7130814203641828e-03  8.3212140934281337e-03  1.5019042131531778e-02  2.7930836499850936e-02  2.4716124117418706e-02  3.7604613043380863e-02  1.8827410836299988e-01  4.4616700634517842e-01  7.1440774095759541e-01  9.0013286514725355e-01  9.8168858197110909e-01  9.9076480250036636e-01  9.9323729275718253e-01  9.9522495054140947e-01  9.9610827265484647e-01  9.9367930544901661e-01  1.8939485676667318e-02  8.8828998416204136e-03  9.1815081455952283e-03  9.2547134428764312e-03  9.3370171847154421e-03  9.4365439035762871e-03  9.5518128921140491e-03  9.6792068779051176e-03  9.8143870380023677e-03  9.9527080162271232e-03  1.0089366570709850e-02  1.0219413171922020e-02  1.0337653020143788e-02  1.0438433758747402e-02  1.0515308515469821e-02  1.0560579059384940e-02  1.0564805604906016e-02  1.0516523715957855e-02  1.0402474758064665e-02  1.0208145511749147e-02  9.9163391063014604e-03  9.5038608686706834e-03  8.9910020682549014e-03  8.8817080273276543e-03  1.1571998709531368e-02  2.0727533608569333e-02  2.8513431692226140e-02  1.4408015482663919e-02  2.7629695273139798e-02  1.5853089404040963e-01  3.8590983372918430e-01  6.3613735712441599e-01  8.3342866045685227e-01  9.2918754159141426e-01  9.8178231761166024e-01  9.8988021340330479e-01  9.9234914213753100e-01  9.9359942989687888e-01  9.9482065734934544e-01  9.9563552778281972e-01  9.9288063436997642e-01  1.9047235076994226e-02  9.0532212297066792e-03  9.4062488460163168e-03  9.4872393074115959e-03  9.5730768454424416e-03  9.6738214694285611e-03  9.7876990027549356e-03  9.9100787979967842e-03  1.0035402742954396e-02  1.0157722644078519e-02  1.0270849890044729e-02  1.0368345753864507e-02  1.0443407441026179e-02  1.0488675019141420e-02  1.0496038863914956e-02  1.0456691518487621e-02  1.0361830349933963e-02  1.0204022287130616e-02  9.9770465915221870e-03  9.6764457366205897e-03  9.3823737049181250e-03  9.8486146962873198e-03  1.3889337990862269e-02  2.3765141914896797e-02  2.6946399831629983e-02  7.9639055060343883e-03  2.3763181966557301e-02  1.4342823719704326e-01  3.4619420274098367e-01  5.7729527912432244e-01  7.7926566972532685e-01  8.9566913012077154e-01  9.4006821913189609e-01  9.7914360570218195e-01  9.8746392549177775e-01  9.8956641050590555e-01  9.9059997991489868e-01  9.9131754149165296e-01  9.9221487366175720e-01  9.9248683543397342e-01  9.8907095423813718e-01  1.9164591897678055e-02  9.2372925861996039e-03  9.6452429171843320e-03  9.7331621834487250e-03  9.8213481515533208e-03  9.9212096560878128e-03  1.0030103451201648e-02  1.0141768020014125e-02  1.0248724721650299e-02  1.0342948320810254e-02  1.0416087808935794e-02  1.0459600050866115e-02  1.0464985086960187e-02  1.0424377914825419e-02  1.0331921942124060e-02  1.0186206225976834e-02  9.9916465098208711e-03  9.7584470230875370e-03  9.5853006900612579e-03  1.0304386463444056e-02  1.4915051243065162e-02  2.4989192308607282e-02  2.5703458158858758e-02  4.7197580892706370e-03  2.2111199585446800e-02  1.3520087165310099e-01  3.2160030646483617e-01  5.3583040793408454e-01  7.3371148372304329e-01  8.7128391727780308e-01  9.2681868736487283e-01  9.4522766830583149e-01  9.7051396930197142e-01  9.8426028672823762e-01  9.8465422842615768e-01  9.8339144057384131e-01  9.8116469617519608e-01  9.7504848989858572e-01  6.9706680898278950e-01  5.1520712519225964e-01  3.1325836963509968e-01  1.9290585075718972e-02  9.4329937869626467e-03  9.8926817145763082e-03  9.9847970519441435e-03  1.0072992542083636e-02  1.0168658276282844e-02  1.0266983277998082e-02  1.0358869041855135e-02  1.0433670591291407e-02  1.0480088697810785e-02  1.0486916937550390e-02  1.0444302807877250e-02  1.0345927207243756e-02  1.0192569088969967e-02  9.9957205616397048e-03  9.7761468176231249e-03  9.6171457745737252e-03  1.0269489942210143e-02  1.4791818067136010e-02  2.5053704379672675e-02  2.5514581191165904e-02  3.5822919281288390e-03  2.0149522993249985e-02  1.2822263574896101e-01  3.0396705450902650e-01  5.0590296400507229e-01  6.9727993515438147e-01  8.4401966917757976e-01  9.2259031378155654e-01  9.4333922396382763e-01  9.4806272858226870e-01  9.5834475033977928e-01  9.6643882327129971e-01  9.6530836561294475e-01  9.5354097372985347e-01  9.2411478843058292e-01  8.3762421208562510e-01  6.0353147926820494e-01  2.2891135001953211e-01  2.1731929322905224e-02  2.2726590665987478e-02  1.9423471371579806e-02  9.6368786911668180e-03  1.0140174086983368e-02  1.0231070388664339e-02  1.0315194773942245e-02  1.0401392796557746e-02  1.0480097258622516e-02  1.0536990652438242e-02  1.0556135502755259e-02  1.0522210400225043e-02  1.0423727217624752e-02  1.0257637140317914e-02  1.0035369975652169e-02  9.7840765644085434e-03  9.5619363713138790e-03  9.9184160425066815e-03  1.3772317219178355e-02  2.4144440577805619e-02  2.6313189542656872e-02  4.0536298113356684e-03  1.6912062737974132e-02  1.1987787079052692e-01  2.8852660718726109e-01  4.8228622289148193e-01  6.6815699308889398e-01  8.1806267756532092e-01  9.1194793968931842e-01  9.4938736916550481e-01  9.5371100448548252e-01  9.5103723863381506e-01  9.4970304200906241e-01  9.4580368104659829e-01  9.3399782348304694e-01  9.0578609801153476e-01  8.3092601727054283e-01  6.5524910868621145e-01  3.8196144869898596e-01  8.7838088555576371e-02  3.5786116780449170e-02  9.4285708511879472e-03  1.9642174681719828e-02  1.9560351708003364e-02  9.8436576527653336e-03  1.0376400211703144e-02  1.0457175798164998e-02  1.0530413556325282e-02  1.0598057623048629e-02  1.0640591026761459e-02  1.0634426521671375e-02  1.0557593012456078e-02  1.0395638918356612e-02  1.0149089981474868e-02  9.8413506161294829e-03  9.5154685181256249e-03  9.4769403406647825e-03  1.2168441239975986e-02  2.2163650484595211e-02  2.7611116773859787e-02  6.2160313541668455e-03  1.2514397334317695e-02  1.0925649951380562e-01  2.7306364286820822e-01  4.6199562021251311e-01  6.4428706883439479e-01  7.9524588081616876e-01  8.9792482678402907e-01  9.4948837452875701e-01  9.6395182725031625e-01  9.6191911562490573e-01  9.5632884338891921e-01  9.4962126176099104e-01  9.3816766431911447e-01  9.1125299111444691e-01  8.4190019639754710e-01  6.9382667967627232e-01  4.6456568033972473e-01  2.0053797178123500e-01  1.7033651534836491e-02  3.1027089604607296e-02  5.4257100718537524e-03  9.5725109609392026e-03  1.9512685447642016e-02  1.9696626933118515e-02  1.0045488327102952e-02  1.0586846675854746e-02  1.0644409030979662e-02  1.0694473786135150e-02  1.0724329889857036e-02  1.0697101620857772e-02  1.0578373663542983e-02  1.0344528127459538e-02  9.9939567427665531e-03  9.5562211229149700e-03  9.1523664890551214e-03  1.0396366861894626e-02  1.8989803326304389e-02  2.8509956850499226e-02  1.0318402255657555e-02  7.6802079917734078e-03  9.6164752857209684e-02  2.5658078241565613e-01  4.4360511343892639e-01  6.2456276145559964e-01  7.7625842547588975e-01  8.8390248844857788e-01  9.4468795127246408e-01  9.6885329446793766e-01  9.7274392445497826e-01  9.6889644129461661e-01  9.6193462302237687e-01  9.4925026158747905e-01  9.1975505251090262e-01  8.5095785816183167e-01  7.1748837788343822e-01  5.1527037990963398e-01  2.7449798144301074e-01  6.5020217320092444e-02  1.0769592133170830e-02  2.3703302074097508e-02  4.5349074742583049e-03  8.7251167891489578e-03  1.0078932620693197e-02  1.9796393180595485e-02  1.9825148836022339e-02  1.0231067768722948e-02  1.0753369456624251e-02  1.0767221535625333e-02  1.0766670652718559e-02  1.0717572799911871e-02  1.0559786492993554e-02  1.0239895452083514e-02  9.7332333231613301e-03  9.0700030426547913e-03  8.9653218396864697e-03  1.4811032163357033e-02  2.7728241059930762e-02  1.6295797781560886e-02  3.5095660861787503e-03  8.0508343472068311e-02  2.3824236138828503e-01  4.2614219101557005e-01  6.0837794615700846e-01  7.6160721354865957e-01  8.7225735082650846e-01  9.3832201088619893e-01  9.6896754332174928e-01  9.7833201168907125e-01  9.7769067754908412e-01  9.7166997393664833e-01  9.5771979384018946e-01  9.2520969235145367e-01  8.5560543234943265e-01  7.3059050351574284e-01  5.4705369427345418e-01  3.2569611140371568e-01  1.1523056186360367e-01  6.2533485294881397e-03  2.6910351068769434e-02  1.4498439961761221e-02  5.4430256836788555e-03  8.5065086780219956e-03  1.0089267409921450e-02  1.0367814507265781e-02  1.9963925842393707e-02  1.9935461219724056e-02  1.0384551455189460e-02  1.0849410489531029e-02  1.0779838324490466e-02  1.0673232433889672e-02  1.0465280517321754e-02  1.0024402548062049e-02  9.2507013575949919e-03  8.2832296332925846e-03  1.0500124811574266e-02  2.3928232920416688e-02  2.3191393063241410e-02  1.6152642209452117e-03  6.2208835963771220e-02  2.1679522686938077e-01  4.0823251729741994e-01  5.9477954635294528e-01  7.5123588071019332e-01  8.6431030632997674e-01  9.3304379339509946e-01  9.6704392820275387e-01  9.7983185272730766e-01  9.8178505231156865e-01  9.7693332565223834e-01  9.6236682589504485e-01  9.2790450417370374e-01  8.5778791260318099e-01  7.3814059516960573e-01  5.6739072448753491e-01  3.6166192872152964e-01  1.5726587466153941e-01  2.1018718828523880e-02  1.3715507127867330e-02  2.6596425737320920e-02  8.7812954024672953e-03  7.0063009394224079e-03  8.9988334272594617e-03  1.0077075119716712e-02  1.0623945238934463e-02  1.0487609204800958e-02  2.0031635486895762e-02  2.0012446485604032e-02  1.0481689479362134e-02  1.0828665526939773e-02  1.0604714951651276e-02  1.0271573306461584e-02  9.6161253243411716e-03  8.3740320769356402e-03  7.5782747143334703e-03  1.676978332