<?xml version="1.0"?>
<VTKFile type="UnstructuredGrid"  version="0.1"  >
<UnstructuredGrid>
<Piece  NumberOfPoints="1681" NumberOfCells="3200">
<Points>
<DataArray  type="Float64"  NumberOfComponents="3"  format="ascii">0 0 0  0.025 0 0  0.05 0 0  0.075 0 0  0.1 0 0  0.125 0 0  0.15 0 0  0.175 0 0  0.2 0 0  0.225 0 0  0.25 0 0  0.275 0 0  0.3 0 0  0.325 0 0  0.35 0 0  0.375 0 0  0.4 0 0  0.425 0 0  0.45 0 0  0.475 0 0  0.5 0 0  0.525 0 0  0.55 0 0  0.575 0 0  0.6 0 0  0.625 0 0  0.65 0 0  0.675 0 0  0.7 0 0  0.725 0 0  0.75 0 0  0.775 0 0  0.8 0 0  0.825 0 0  0.85 0 0  0.875 0 0  0.9 0 0  0.925 0 0  0.95 0 0  0.975 0 0  1 0 0  0 0.025 0  0.025 0.025 0  0.05 0.025 0  0.075 0.025 0  0.1 0.025 0  0.125 0.025 0  0.15 0.025 0  0.175 0.025 0  0.2 0.025 0  0.225 0.025 0  0.25 0.025 0  0.275 0.025 0  0.3 0.025 0  0.325 0.025 0  0.35 0.025 0  0.375 0.025 0  0.4 0.025 0  0.425 0.025 0  0.45 0.025 0  0.475 0.025 0  0.5 0.025 0  0.525 0.025 0  0.55 0.025 0  0.575 0.025 0  0.6 0.025 0  0.625 0.025 0  0.65 0.025 0  0.675 0.025 0  0.7 0.025 0  0.725 0.025 0  0.75 0.025 0  0.775 0.025 0  0.8 0.025 0  0.825 0.025 0  0.85 0.025 0  0.875 0.025 0  0.9 0.025 0  0.925 0.025 0  0.95 0.025 0  0.975 0.025 0  1 0.025 0  0 0.05 0  0.025 0.05 0  0.05 0.05 0  0.075 0.05 0  0.1 0.05 0  0.125 0.05 0  0.15 0.05 0  0.175 0.05 0  0.2 0.05 0  0.225 0.05 0  0.25 0.05 0  0.275 0.05 0  0.3 0.05 0  0.325 0.05 0  0.35 0.05 0  0.375 0.05 0  0.4 0.05 0  0.425 0.05 0  0.45 0.05 0  0.475 0.05 0  0.5 0.05 0  0.525 0.05 0  0.55 0.05 0  0.575 0.05 0  0.6 0.05 0  0.625 0.05 0  0.65 0.05 0  0.675 0.05 0  0.7 0.05 0  0.725 0.05 0  0.75 0.05 0  0.775 0.05 0  0.8 0.05 0  0.825 0.05 0  0.85 0.05 0  0.875 0.05 0  0.9 0.05 0  0.925 0.05 0  0.95 0.05 0  0.975 0.05 0  1 0.05 0  0 0.075 0  0.025 0.075 0  0.05 0.075 0  0.075 0.075 0  0.1 0.075 0  0.125 0.075 0  0.15 0.075 0  0.175 0.075 0  0.2 0.075 0  0.225 0.075 0  0.25 0.075 0  0.275 0.075 0  0.3 0.075 0  0.325 0.075 0  0.35 0.075 0  0.375 0.075 0  0.4 0.075 0  0.425 0.075 0  0.45 0.075 0  0.475 0.075 0  0.5 0.075 0  0.525 0.075 0  0.55 0.075 0  0.575 0.075 0  0.6 0.075 0  0.625 0.075 0  0.65 0.075 0  0.675 0.075 0  0.7 0.075 0  0.725 0.075 0  0.75 0.075 0  0.775 0.075 0  0.8 0.075 0  0.825 0.075 0  0.85 0.075 0  0.875 0.075 0  0.9 0.075 0  0.925 0.075 0  0.95 0.075 0  0.975 0.075 0  1 0.075 0  0 0.1 0  0.025 0.1 0  0.05 0.1 0  0.075 0.1 0  0.1 0.1 0  0.125 0.1 0  0.15 0.1 0  0.175 0.1 0  0.2 0.1 0  0.225 0.1 0  0.25 0.1 0  0.275 0.1 0  0.3 0.1 0  0.325 0.1 0  0.35 0.1 0  0.375 0.1 0  0.4 0.1 0  0.425 0.1 0  0.45 0.1 0  0.475 0.1 0  0.5 0.1 0  0.525 0.1 0  0.55 0.1 0  0.575 0.1 0  0.6 0.1 0  0.625 0.1 0  0.65 0.1 0  0.675 0.1 0  0.7 0.1 0  0.725 0.1 0  0.75 0.1 0  0.775 0.1 0  0.8 0.1 0  0.825 0.1 0  0.85 0.1 0  0.875 0.1 0  0.9 0.1 0  0.925 0.1 0  0.95 0.1 0  0.975 0.1 0  1 0.1 0  0 0.125 0  0.025 0.125 0  0.05 0.125 0  0.075 0.125 0  0.1 0.125 0  0.125 0.125 0  0.15 0.125 0  0.175 0.125 0  0.2 0.125 0  0.225 0.125 0  0.25 0.125 0  0.275 0.125 0  0.3 0.125 0  0.325 0.125 0  0.35 0.125 0  0.375 0.125 0  0.4 0.125 0  0.425 0.125 0  0.45 0.125 0  0.475 0.125 0  0.5 0.125 0  0.525 0.125 0  0.55 0.125 0  0.575 0.125 0  0.6 0.125 0  0.625 0.125 0  0.65 0.125 0  0.675 0.125 0  0.7 0.125 0  0.725 0.125 0  0.75 0.125 0  0.775 0.125 0  0.8 0.125 0  0.825 0.125 0  0.85 0.125 0  0.875 0.125 0  0.9 0.125 0  0.925 0.125 0  0.95 0.125 0  0.975 0.125 0  1 0.125 0  0 0.15 0  0.025 0.15 0  0.05 0.15 0  0.075 0.15 0  0.1 0.15 0  0.125 0.15 0  0.15 0.15 0  0.175 0.15 0  0.2 0.15 0  0.225 0.15 0  0.25 0.15 0  0.275 0.15 0  0.3 0.15 0  0.325 0.15 0  0.35 0.15 0  0.375 0.15 0  0.4 0.15 0  0.425 0.15 0  0.45 0.15 0  0.475 0.15 0  0.5 0.15 0  0.525 0.15 0  0.55 0.15 0  0.575 0.15 0  0.6 0.15 0  0.625 0.15 0  0.65 0.15 0  0.675 0.15 0  0.7 0.15 0  0.725 0.15 0  0.75 0.15 0  0.775 0.15 0  0.8 0.15 0  0.825 0.15 0  0.85 0.15 0  0.875 0.15 0  0.9 0.15 0  0.925 0.15 0  0.95 0.15 0  0.975 0.15 0  1 0.15 0  0 0.175 0  0.025 0.175 0  0.05 0.175 0  0.075 0.175 0  0.1 0.175 0  0.125 0.175 0  0.15 0.175 0  0.175 0.175 0  0.2 0.175 0  0.225 0.175 0  0.25 0.175 0  0.275 0.175 0  0.3 0.175 0  0.325 0.175 0  0.35 0.175 0  0.375 0.175 0  0.4 0.175 0  0.425 0.175 0  0.45 0.175 0  0.475 0.175 0  0.5 0.175 0  0.525 0.175 0  0.55 0.175 0  0.575 0.175 0  0.6 0.175 0  0.625 0.175 0  0.65 0.175 0  0.675 0.175 0  0.7 0.175 0  0.725 0.175 0  0.75 0.175 0  0.775 0.175 0  0.8 0.175 0  0.825 0.175 0  0.85 0.175 0  0.875 0.175 0  0.9 0.175 0  0.925 0.175 0  0.95 0.175 0  0.975 0.175 0  1 0.175 0  0 0.2 0  0.025 0.2 0  0.05 0.2 0  0.075 0.2 0  0.1 0.2 0  0.125 0.2 0  0.15 0.2 0  0.175 0.2 0  0.2 0.2 0  0.225 0.2 0  0.25 0.2 0  0.275 0.2 0  0.3 0.2 0  0.325 0.2 0  0.35 0.2 0  0.375 0.2 0  0.4 0.2 0  0.425 0.2 0  0.45 0.2 0  0.475 0.2 0  0.5 0.2 0  0.525 0.2 0  0.55 0.2 0  0.575 0.2 0  0.6 0.2 0  0.625 0.2 0  0.65 0.2 0  0.675 0.2 0  0.7 0.2 0  0.725 0.2 0  0.75 0.2 0  0.775 0.2 0  0.8 0.2 0  0.825 0.2 0  0.85 0.2 0  0.875 0.2 0  0.9 0.2 0  0.925 0.2 0  0.95 0.2 0  0.975 0.2 0  1 0.2 0  0 0.225 0  0.025 0.225 0  0.05 0.225 0  0.075 0.225 0  0.1 0.225 0  0.125 0.225 0  0.15 0.225 0  0.175 0.225 0  0.2 0.225 0  0.225 0.225 0  0.25 0.225 0  0.275 0.225 0  0.3 0.225 0  0.325 0.225 0  0.35 0.225 0  0.375 0.225 0  0.4 0.225 0  0.425 0.225 0  0.45 0.225 0  0.475 0.225 0  0.5 0.225 0  0.525 0.225 0  0.55 0.225 0  0.575 0.225 0  0.6 0.225 0  0.625 0.225 0  0.65 0.225 0  0.675 0.225 0  0.7 0.225 0  0.725 0.225 0  0.75 0.225 0  0.775 0.225 0  0.8 0.225 0  0.825 0.225 0  0.85 0.225 0  0.875 0.225 0  0.9 0.225 0  0.925 0.225 0  0.95 0.225 0  0.975 0.225 0  1 0.225 0  0 0.25 0  0.025 0.25 0  0.05 0.25 0  0.075 0.25 0  0.1 0.25 0  0.125 0.25 0  0.15 0.25 0  0.175 0.25 0  0.2 0.25 0  0.225 0.25 0  0.25 0.25 0  0.275 0.25 0  0.3 0.25 0  0.325 0.25 0  0.35 0.25 0  0.375 0.25 0  0.4 0.25 0  0.425 0.25 0  0.45 0.25 0  0.475 0.25 0  0.5 0.25 0  0.525 0.25 0  0.55 0.25 0  0.575 0.25 0  0.6 0.25 0  0.625 0.25 0  0.65 0.25 0  0.675 0.25 0  0.7 0.25 0  0.725 0.25 0  0.75 0.25 0  0.775 0.25 0  0.8 0.25 0  0.825 0.25 0  0.85 0.25 0  0.875 0.25 0  0.9 0.25 0  0.925 0.25 0  0.95 0.25 0  0.975 0.25 0  1 0.25 0  0 0.275 0  0.025 0.275 0  0.05 0.275 0  0.075 0.275 0  0.1 0.275 0  0.125 0.275 0  0.15 0.275 0  0.175 0.275 0  0.2 0.275 0  0.225 0.275 0  0.25 0.275 0  0.275 0.275 0  0.3 0.275 0  0.325 0.275 0  0.35 0.275 0  0.375 0.275 0  0.4 0.275 0  0.425 0.275 0  0.45 0.275 0  0.475 0.275 0  0.5 0.275 0  0.525 0.275 0  0.55 0.275 0  0.575 0.275 0  0.6 0.275 0  0.625 0.275 0  0.65 0.275 0  0.675 0.275 0  0.7 0.275 0  0.725 0.275 0  0.75 0.275 0  0.775 0.275 0  0.8 0.275 0  0.825 0.275 0  0.85 0.275 0  0.875 0.275 0  0.9 0.275 0  0.925 0.275 0  0.95 0.275 0  0.975 0.275 0  1 0.275 0  0 0.3 0  0.025 0.3 0  0.05 0.3 0  0.075 0.3 0  0.1 0.3 0  0.125 0.3 0  0.15 0.3 0  0.175 0.3 0  0.2 0.3 0  0.225 0.3 0  0.25 0.3 0  0.275 0.3 0  0.3 0.3 0  0.325 0.3 0  0.35 0.3 0  0.375 0.3 0  0.4 0.3 0  0.425 0.3 0  0.45 0.3 0  0.475 0.3 0  0.5 0.3 0  0.525 0.3 0  0.55 0.3 0  0.575 0.3 0  0.6 0.3 0  0.625 0.3 0  0.65 0.3 0  0.675 0.3 0  0.7 0.3 0  0.725 0.3 0  0.75 0.3 0  0.775 0.3 0  0.8 0.3 0  0.825 0.3 0  0.85 0.3 0  0.875 0.3 0  0.9 0.3 0  0.925 0.3 0  0.95 0.3 0  0.975 0.3 0  1 0.3 0  0 0.325 0  0.025 0.325 0  0.05 0.325 0  0.075 0.325 0  0.1 0.325 0  0.125 0.325 0  0.15 0.325 0  0.175 0.325 0  0.2 0.325 0  0.225 0.325 0  0.25 0.325 0  0.275 0.325 0  0.3 0.325 0  0.325 0.325 0  0.35 0.325 0  0.375 0.325 0  0.4 0.325 0  0.425 0.325 0  0.45 0.325 0  0.475 0.325 0  0.5 0.325 0  0.525 0.325 0  0.55 0.325 0  0.575 0.325 0  0.6 0.325 0  0.625 0.325 0  0.65 0.325 0  0.675 0.325 0  0.7 0.325 0  0.725 0.325 0  0.75 0.325 0  0.775 0.325 0  0.8 0.325 0  0.825 0.325 0  0.85 0.325 0  0.875 0.325 0  0.9 0.325 0  0.925 0.325 0  0.95 0.325 0  0.975 0.325 0  1 0.325 0  0 0.35 0  0.025 0.35 0  0.05 0.35 0  0.075 0.35 0  0.1 0.35 0  0.125 0.35 0  0.15 0.35 0  0.175 0.35 0  0.2 0.35 0  0.225 0.35 0  0.25 0.35 0  0.275 0.35 0  0.3 0.35 0  0.325 0.35 0  0.35 0.35 0  0.375 0.35 0  0.4 0.35 0  0.425 0.35 0  0.45 0.35 0  0.475 0.35 0  0.5 0.35 0  0.525 0.35 0  0.55 0.35 0  0.575 0.35 0  0.6 0.35 0  0.625 0.35 0  0.65 0.35 0  0.675 0.35 0  0.7 0.35 0  0.725 0.35 0  0.75 0.35 0  0.775 0.35 0  0.8 0.35 0  0.825 0.35 0  0.85 0.35 0  0.875 0.35 0  0.9 0.35 0  0.925 0.35 0  0.95 0.35 0  0.975 0.35 0  1 0.35 0  0 0.375 0  0.025 0.375 0  0.05 0.375 0  0.075 0.375 0  0.1 0.375 0  0.125 0.375 0  0.15 0.375 0  0.175 0.375 0  0.2 0.375 0  0.225 0.375 0  0.25 0.375 0  0.275 0.375 0  0.3 0.375 0  0.325 0.375 0  0.35 0.375 0  0.375 0.375 0  0.4 0.375 0  0.425 0.375 0  0.45 0.375 0  0.475 0.375 0  0.5 0.375 0  0.525 0.375 0  0.55 0.375 0  0.575 0.375 0  0.6 0.375 0  0.625 0.375 0  0.65 0.375 0  0.675 0.375 0  0.7 0.375 0  0.725 0.375 0  0.75 0.375 0  0.775 0.375 0  0.8 0.375 0  0.825 0.375 0  0.85 0.375 0  0.875 0.375 0  0.9 0.375 0  0.925 0.375 0  0.95 0.375 0  0.975 0.375 0  1 0.375 0  0 0.4 0  0.025 0.4 0  0.05 0.4 0  0.075 0.4 0  0.1 0.4 0  0.125 0.4 0  0.15 0.4 0  0.175 0.4 0  0.2 0.4 0  0.225 0.4 0  0.25 0.4 0  0.275 0.4 0  0.3 0.4 0  0.325 0.4 0  0.35 0.4 0  0.375 0.4 0  0.4 0.4 0  0.425 0.4 0  0.45 0.4 0  0.475 0.4 0  0.5 0.4 0  0.525 0.4 0  0.55 0.4 0  0.575 0.4 0  0.6 0.4 0  0.625 0.4 0  0.65 0.4 0  0.675 0.4 0  0.7 0.4 0  0.725 0.4 0  0.75 0.4 0  0.775 0.4 0  0.8 0.4 0  0.825 0.4 0  0.85 0.4 0  0.875 0.4 0  0.9 0.4 0  0.925 0.4 0  0.95 0.4 0  0.975 0.4 0  1 0.4 0  0 0.425 0  0.025 0.425 0  0.05 0.425 0  0.075 0.425 0  0.1 0.425 0  0.125 0.425 0  0.15 0.425 0  0.175 0.425 0  0.2 0.425 0  0.225 0.425 0  0.25 0.425 0  0.275 0.425 0  0.3 0.425 0  0.325 0.425 0  0.35 0.425 0  0.375 0.425 0  0.4 0.425 0  0.425 0.425 0  0.45 0.425 0  0.475 0.425 0  0.5 0.425 0  0.525 0.425 0  0.55 0.425 0  0.575 0.425 0  0.6 0.425 0  0.625 0.425 0  0.65 0.425 0  0.675 0.425 0  0.7 0.425 0  0.725 0.425 0  0.75 0.425 0  0.775 0.425 0  0.8 0.425 0  0.825 0.425 0  0.85 0.425 0  0.875 0.425 0  0.9 0.425 0  0.925 0.425 0  0.95 0.425 0  0.975 0.425 0  1 0.425 0  0 0.45 0  0.02
[...]
<PointData  Scalars="ControlVisualisation"> 
<DataArray  type="Float64"  Name="ControlVisualisation"  format="ascii">1.2346077902049567e-06  8.1976401737718800e-07  8.1983906761490200e-07  8.1996503118922269e-07  8.2013793991653631e-07  8.2035310204819865e-07  8.2060460052272964e-07  8.2088560422012049e-07  8.2118858361388369e-07  8.2150553604474034e-07  8.2182821950552186e-07  8.2214837839894636e-07  8.2245795584299823e-07  8.2274928740820343e-07  8.2301527284599482e-07  8.2324952412395055e-07  8.2344648941973775e-07  8.2360155374105903e-07  8.2371111749927037e-07  8.2377265459405233e-07  8.2378475154475633e-07  8.2374712887729903e-07  8.2366064549019439e-07  8.2352728613080827e-07  8.2335013149479268e-07  8.2313330991793545e-07  8.2288192923104515e-07  8.2260198716035210e-07  8.2230025877373816e-07  8.2198415994790203e-07  8.2166158666104526e-07  8.2134073114434588e-07  8.2102987748983049e-07  8.2073718078902042e-07  8.2047043697528097e-07  8.2023684850832866e-07  8.2004280151476175e-07  8.1989361426659081e-07  8.1979383533174876e-07  8.1974454888453564e-07  2.4792021404708585e-06  8.1976419567592043e-07  4.0490968600877390e-07  4.0498538670353394e-07  4.0511882566300624e-07  4.0530789639423074e-07  4.0554745900268835e-07  4.0583097659623170e-07  4.0615082792680312e-07  4.0649850102744314e-07  4.0686485165479204e-07  4.0724036660470438e-07  4.0761542381215500e-07  4.0798054255095251e-07  4.0832661684965871e-07  4.0864512733182119e-07  4.0892832838339069e-07  4.0916940901502782e-07  4.0936262695350367e-07  4.0950341634716763e-07  4.0958846993376680e-07  4.0961579668479854e-07  4.0958475584431332e-07  4.0949606796242179e-07  4.0935180311928143e-07  4.0915534606163779e-07  4.0891133756697024e-07  4.0862559107030857e-07  4.0830498349722480e-07  4.0795731944827993e-07  4.0759116839722691e-07  4.0721567544028312e-07  4.0684034734628120e-07  4.0647481717336347e-07  4.0612859237056561e-07  4.0581079387648431e-07  4.0552989077537388e-07  4.0529345154704191e-07  4.0510790426359837e-07  4.0497818278547010e-07  4.0490357915337257e-07  8.1974457512783080e-07  8.1984118167670580e-07  4.0498697958775460e-07  4.0508332759604652e-07  4.0523703561212264e-07  4.0545522458248774e-07  4.0573231700754802e-07  4.0606079953676368e-07  4.0643184926035909e-07  4.0683559775075635e-07  4.0726143385634572e-07  4.0769830502862958e-07  4.0813501922879888e-07  4.0856053588913571e-07  4.0896423801526936e-07  4.0933617986995715e-07  4.0966730650650305e-07  4.0994964310719368e-07  4.1017645341891426e-07  4.1034236753934999e-07  4.1044347985936308e-07  4.1047741817921725e-07  4.1044338494049679e-07  4.1034217119592274e-07  4.1017614353025165e-07  4.0994920365523209e-07  4.0966671996572963e-07  4.0933543007379883e-07  4.0896331324381349e-07  4.0855943188710152e-07  4.0813374186395794e-07  4.0769687231078773e-07  4.0725987708547069e-07  4.0683396164677977e-07  4.0643019107635009e-07  4.0605918746713379e-07  4.0573082361842060e-07  4.0545394098661124e-07  4.0523596567821216e-07  4.0508194655086517e-07  4.0497954118217470e-07  8.1979451818210445e-07  8.1997520588315079e-07  4.0512780614504000e-07  4.0524529383018893e-07  4.0540106444426223e-07  4.0562090643052557e-07  4.0590002087150576e-07  4.0623087683265579e-07  4.0660454690859549e-07  4.0701106214040919e-07  4.0743971403782618e-07  4.0787936214838481e-07  4.0831873991874786e-07  4.0874674730841439e-07  4.0915272307538796e-07  4.0952669129033844e-07  4.0985957867765706e-07  4.1014340112764622e-07  4.1037141905506694e-07  4.1053826221016027e-07  4.1064002503736449e-07  4.1067433383193401e-07  4.1064038678749251e-07  4.1053896765714556e-07  4.1037243326257532e-07  4.1014467455080886e-07  4.0986105039053009e-07  4.0952829295220901e-07  4.0915438337052794e-07  4.0874839653789039e-07  4.0832031441424191e-07  4.0788080817412101e-07  4.0744099089106505e-07  4.0701214423559177e-07  4.0660542461711309e-07  4.0623155699430443e-07  4.0590052292175601e-07  4.0562126312805722e-07  4.0540121781508386e-07  4.0524419572379957e-07  4.0511605178346570e-07  8.1989844110702519e-07  8.2016975706317583e-07  4.0533793730822357e-07  4.0548731788019383e-07  4.0564484848282268e-07  4.0586487837741667e-07  4.0614403997655492e-07  4.0647482474662549e-07  4.0684825099028112e-07  4.0725430869755435e-07  4.0768226355308426e-07  4.0812097123845291e-07  4.0855918479631421e-07  4.0898584644593477e-07  4.0939035678935605e-07  4.0976281638842499e-07  4.1009423693417983e-07  4.1037672098795177e-07  4.1060361057825881e-07  4.1076960578854423e-07  4.1087085486814122e-07  4.1090501744129643e-07  4.1087130212245861e-07  4.1077047939763470e-07  4.1060487004343201e-07  4.1037830873482009e-07  4.1009608191375492e-07  4.0976483853048600e-07  4.0939247202026284e-07  4.0898797192498953e-07  4.0856124399466741e-07  4.0812289847346940e-07  4.0768400762478599e-07  4.0725583537426732e-07  4.0684954400862863e-07  4.0647588586613431e-07  4.0614488561728653e-07  4.0586553207394080e-07  4.0564521769900091e-07  4.0548590965670840e-07  4.0532140145350952e-07  8.2006109656878326e-07  8.2043072442681448e-07  4.0562375616299648e-07  4.0581710142832194e-07  4.0597691782012496e-07  4.0619698215986231e-07  4.0647594000130582e-07  4.0680630388967307e-07  4.0717903097057101e-07  4.0758406433106058e-07  4.0801064662570909e-07  4.0844764068361340e-07  4.0888383839929249e-07  4.0930825102638975e-07  4.0971037373038890e-07  4.1008042016209931e-07  4.1040952509394475e-07  4.1068991495972707e-07  4.1091504738368698e-07  4.1107972150647239e-07  4.1118016118617473e-07  4.1121407302816585e-07  4.1118068082234287e-07  4.1108073738252407e-07  4.1091651411770442e-07  4.1069176793490079e-07  4.1041168439872303e-07  4.1008279549860997e-07  4.0971286998840451e-07  4.0931077415228509e-07  4.0888630114046584e-07  4.0844996775751688e-07  4.0801277888673781e-07  4.0758596159508805e-07  4.0718067316510221e-07  4.0680769063871622e-07  4.0647708704997144e-07  4.0619791086230290e-07  4.0597749082885571e-07  4.0581532999716367e-07  4.0560195980729614e-07  8.2028691713098092e-07  8.2076596988617979e-07  4.0599399518646269e-07  4.0624477186878646e-07  4.0640746709143315e-07  4.0662737738761313e-07  4.0690581337252900e-07  4.0723533051843926e-07  4.0760681725016533e-07  4.0801016578641363e-07  4.0843460086542200e-07  4.0886900644833764e-07  4.0930223603519459e-07  4.0972340021178417e-07  4.1012212467557712e-07  4.1048877549380032e-07  4.1081465070805336e-07  4.1109213921307928e-07  4.1131484897828934e-07  4.1147770720859856e-07  4.1157703512655988e-07  4.1161059974480530e-07  4.1157764447068166e-07  4.1147889968997086e-07  4.1131657369198305e-07  4.1109432351172825e-07  4.1081720446453224e-07  4.1049159645977857e-07  4.1012510463314427e-07  4.0972643153449036e-07  4.0930521819066470e-07  4.0887185193231109e-07  4.0843724004850234e-07  4.0801255022602449e-07  4.0760892108586107e-07  4.0723714995726785e-07  4.0690736239173585e-07  4.0662867601358334e-07  4.0640833205269348e-07  4.0624265974003847e-07  4.0596632150585339e-07  8.2058269887959252e-07  8.2118578496271379e-07  4.0646023844258294e-07  4.0678372352958305e-07  4.0694986181876296e-07  4.0716925778757310e-07  4.0744663093275847e-07  4.0777460897145303e-07  4.0814400985677519e-07  4.0854467995783217e-07  4.0896584058194984e-07  4.0939642110208429e-07  4.0982536998263238e-07  4.1024193777278218e-07  4.1063592621000141e-07  4.1099790144443456e-07  4.1131937188312820e-07  4.1159293289352377e-07  4.1181238155964604e-07  4.1197280495488344e-07  4.1207064520899280e-07  4.1210374413929792e-07  4.1207136950435788e-07  4.1197422414870264e-07  4.1181443843877401e-07  4.1159554553714737e-07  4.1132243819488636e-07  4.1100130491652224e-07  4.1063954264548745e-07  4.1024564257982897e-07  4.0982904554022415e-07  4.0939996362669535e-07  4.0896916587435148e-07  4.0854772746115926e-07  4.0814674452643236e-07  4.0777702100295462e-07  4.0744873079370588e-07  4.0717106254388848e-07  4.0695113387314566e-07  4.0678128027389089e-07  4.0642587030134687e-07  8.2095743933815200e-07  8.2170335575230671e-07  4.0703742818053561e-07  4.0745124735408517e-07  4.0762133677203837e-07  4.0783959909118125e-07  4.0811502945644128e-07  4.0844037182073580e-07  4.0880638433884979e-07  4.0920288626226398e-07  4.0961912487675124e-07  4.1004411494296978e-07  4.1046694876631276e-07  4.1087707205335577e-07  4.1126452102346719e-07  4.1162012044626110e-07  4.1193564482059043e-07  4.1220394646021134e-07  4.1241905488588126e-07  4.1257625183513813e-07  4.1267212570186387e-07  4.1270460845843718e-07  4.1267299725290288e-07  4.1257796200055647e-07  4.1242153939131181e-07  4.1220711286171676e-07  4.1193937718546155e-07  4.1162428541260257e-07  4.1126897501496452e-07  4.1088166929844454e-07  4.1047154961645248e-07  4.1004859386246454e-07  4.0962337737801329e-07  4.0920683407252000e-07  4.0880997812215866e-07  4.0844359147706942e-07  4.0811787869726716e-07  4.0784208952521409e-07  4.0762316578641243e-07  4.0744848661304113e-07  4.0699531466026687e-07  8.2142276763665218e-07  8.2233539202066157e-07  4.0774462335343213e-07  4.0826941489839706e-07  4.0844384749218004e-07  4.0865996201541380e-07  4.0893206143424442e-07  4.0925307253887444e-07  4.0961372363759667e-07  4.1000384716443220e-07  4.1041276885208281e-07  4.1082965198918174e-07  4.1124380359743928e-07  4.1164493947997166e-07  4.1202340548784844e-07  4.1237035683973751e-07  4.1267789974788744e-07  4.1293920078700362e-07  4.1314856957574615e-07  4.1330151981085276e-07  4.1339481278699066e-07  4.1342648655630189e-07  4.1339587288875460e-07  4.1330360329368149e-07  4.1315160452592002e-07  4.1294308316137550e-07  4.1268249798805347e-07  4.1237551799668539e-07  4.1202896273551758e-07  4.1165072074615823e-07  4.1124964085650500e-07  4.1083539056336595e-07  4.1041827589275349e-07  4.1000901842627880e-07  4.0961848762585269e-07  4.0925739193049948e-07  4.0893592749117165e-07  4.0866337636003593e-07  4.0844642799487481e-07  4.0826635289995577e-07  4.0769342251688411e-07  8.2199348570155081e-07  8.2310298856205585e-07  4.0860603406748647e-07  4.0926627473947638e-07  4.0944522814911460e-07  4.0965758406024083e-07  4.0992420386130461e-07  4.1023829997142076e-07  4.1059063275683134e-07  4.1097112258365184e-07  4.1136926136438773e-07  4.1177445803743125e-07  4.1217633604559337e-07  4.1256498249273765e-07  4.1293114892512294e-07  4.1326640826297365e-07  4.1356327442436729e-07  4.1381529172280387e-07  4.1401710057421191e-07  4.1416448493693111e-07  4.1425440562483745e-07  4.1428502241531998e-07  4.1425570686642121e-07  4.1416704690617150e-07  4.1402084356001693e-07  4.1382009951489388e-07  4.1356899849604752e-07  4.1327287355158694e-07  4.1293816124187507e-07  4.1257233745916957e-07  4.1218382922952173e-07  4.1178189568157035e-07  4.1137647081597307e-07  4.1097796135109315e-07  4.1059699495178581e-07  4.1024411980894538e-07  4.0992945059936611e-07  4.0966224181494835e-07  4.0944881563904670e-07  4.0926293179728823e-07  4.0854403418487383e-07  8.2268830195712658e-07  8.2403279731661227e-07  4.0965244493832800e-07  4.1047750424165448e-07  4.1066077969060737e-07  4.1086686053216562e-07  4.1112470944035864e-07  4.1142798556196562e-07  4.1176759592292699e-07  4.1213367844272048e-07  4.1251603286237996e-07  4.1290446053017129e-07  4.1328904572068077e-07  4.1366038216915017e-07  4.1400974820496193e-07  4.1432923812308529e-07  4.1461185863442513e-07  4.1485159877700292e-07  4.1504348026251850e-07  4.1518359349542994e-07  4.1526912287293207e-07  4.1529836366604441e-07  4.1527073184449094e-07  4.1518676757090187e-07  4.1504813260930489e-07  4.1485760152801543e-07  4.1461904607519982e-07  4.1433741143460998e-07  4.1401868204242998e-07  4.1366983324291873e-07  4.1329876332291441e-07  4.1291419859310104e-07  4.1252556269994144e-07  4.1214280096662588e-07  4.1177615169640033e-07  4.1143586200576142e-07  4.1113183771897511e-07  4.1087319451820048e-07  4.1066571183028585e-07  4.1047390454180046e-07  4.0957745217100474e-07  8.2353082528513812e-07  8.2515864196977793e-07  4.1092319844641938e-07  4.1194871119422287e-07  4.1213546722635812e-07  4.1233137337241031e-07  4.1257543318350430e-07  4.1286200815529368e-07  4.1318235363735540e-07  4.1352704231653318e-07  4.1388640585139627e-07  4.1425085686132809e-07  4.1461114308378135e-07  4.1495854301687090e-07  4.1528501061563346e-07  4.1558327984067057e-07  4.1584693961021897e-07  4.1607048794275049e-07  4.1624937168905694e-07  4.1638001600328186e-07  4.1645984595264237e-07  4.1648730146995473e-07  4.1646184620628226e-07  4.1638397051433728e-07  4.1625518867037291e-07  4.1607803041045613e-07  4.1585602673291776e-07  4.1559368955963379e-07  4.1529648414077240e-07  4.1497079178717596e-07  4.1462385861217370e-07  4.1426372350946063e-07  4.1389911599854468e-07  4.1353931275363648e-07  4.1319394117084190e-07  4.1287272324352975e-07  4.1258514153885464e-07  4.1233997667916337e-07  4.1214219299156350e-07  4.1194487908196286e-07  4.1083237454399438e-07  8.2455092539904069e-07  8.2652377297236809e-07  4.1246900007306762e-07  4.1373868931309541e-07  4.1392700441407712e-07  4.1410670556947211e-07  4.1432932627990852e-07  4.1459034135020977e-07  4.1488170055142088e-07  4.1519476880105021e-07  4.1552075977379938e-07  4.1585102006569858e-07  4.1617724092812884e-07  4.1649161427100938e-07  4.1678694480996853e-07  4.1705673127872445e-07  4.1729522725696111e-07  4.1749748889510934e-07  4.1765941369261888e-07  4.1777777218689305e-07  4.1785023298795530e-07  4.1787538093314809e-07  4.1785272797938941e-07  4.1778271656120986e-07  4.1766671537929564e-07  4.1750700787018461e-07  4.1730677388249564e-07  4.1707006518141020e-07  4.1680177527467675e-07  4.1650760330816335e-07  4.1619401021835468e-07  4.1586816274050403e-07  4.1553785735601598e-07  4.1521141266973350e-07  4.1489751578337924e-07  4.1460501125314547e-07  4.1434260391654662e-07  4.1411840183466301e-07  4.1393612464157392e-07  4.1373463838748107e-07  4.1235862267445046e-07  8.2578661518528913e-07  8.2818406945241151e-07  4.1435595957992901e-07  4.1592410926039117e-07  4.1611025903851790e-07  4.1626440664369283e-07  4.1645388509381013e-07  4.1667595279496358e-07  4.1692384143707685e-07  4.1719029129430640e-07  4.1746794051720592e-07  4.1774953983909600e-07  4.1802810271857589e-07  4.1829701593134979e-07  4.1855012491151928e-07  4.1878180544130356e-07  4.1898702831084927e-07  4.1916141929920223e-07  4.1930131397114847e-07  4.1940380549101160e-07  4.1946678351061291e-07  4.1948896256695923e-07  4.1946989897860203e-07  4.1940999573941154e-07  4.1931049530624853e-07  4.1917346056213555e-07  4.1900174471170885e-07  4.1879895145265358e-07  4.1856938746298770e-07  4.1831800973245113e-07  4.1805037004277737e-07  4.1777255737290898e-07  4.1749113551088612e-07  4.1721306804082474e-07  4.1694561667790907e-07  4.1669619825968685e-07  4.1647215845245151e-07  4.1628035845355369e-07  4.1612258380504097e-07  4.1591981660834547e-07  4.1422105908927123e-07  8.2728669438409515e-07  8.3021267253203148e-07  4.1667153974273456e-07  4.1860642712409887e-07  4.1878367717874899e-07  4.1889768497635697e-07  4.1903599480170853e-07  4.1919875998216514e-07  4.1938148957587831e-07  4.1957924771887355e-07  4.1978693207082817e-07  4.1999937186630358e-07  4.2021139724677316e-07  4.2041791069915507e-07  4.2061397024369297e-07  4.2079488611838994e-07  4.2095632595328268e-07  4.2109442027379844e-07  4.2120586027090804e-07  4.2128798167035380e-07  4.2133883099417795e-07  4.2135721256753368e-07  4.2134271584694569e-07  4.2129572313125172e-07  4.2121739772115145e-07  4.2110965245710207e-07  4.2097509867169205e-07  4.2081697631562991e-07  4.2063906760948334e-07  4.2044559905208210e-07  4.2024113941309216e-07  4.2003050334095602e-07  4.1981866944286308e-07  4.1961071713378673e-07  4.1941177691221648e-07  4.1922698192971415e-07  4.1906136595521184e-07  4.1891956689052953e-07  4.1880030878313752e-07  4.1860177700716123e-07  4.1650533281483984e-07  8.2911452671505166e-07  8.3270683258555673e-07  4.1953353077497542e-07  4.2192231807320832e-07  4.2207887948019975e-07  4.2212975886414683e-07  4.2218885369969037e-07  4.2226109054227585e-07  4.2234595092135743e-07  4.2244236707952615e-07  4.2254877225202409e-07  4.2266301818841262e-07  4.2278235824556259e-07  4.2290351949397772e-07  4.2302284988347003e-07  4.2313651393572430e-07  4.2324070646115665e-07  4.2333185809179072e-07  4.2340681491757050e-07  4.2346298346895739e-07  4.2349843898708185e-07  4.2351199872517652e-07  4.2350326322194045e-07  4.2347262782944417e-07  4.2342126519712706e-07  4.2335107755095420e-07  4.2326461615256732e-07  4.2316496508813912e-07  4.2305558833341267e-07  4.2294014383486150e-07  4.2282227647438538e-07  4.2270541171808058e-07  4.2259258040533662e-07  4.2248630698834866e-07  4.2238858205594087e-07  4.2230092812237910e-07  4.2222450146957781e-07  4.2216004544205016e-07  4.2210133653454971e-07  4.2191698182560441e-07  4.1932650546011466e-07  8.3135354084225221e-07  8.3579826293125719e-07  4.2310396796000656e-07  4.2605989838313793e-07  4.2617540484072152e-07  4.2612642393289283e-07  4.2606207669722840e-07  4.2599531253471180e-07  4.2593250336216315e-07  4.2587897088688110e-07  4.2583861129045135e-07  4.2581356480258631e-07  4.2580416036638152e-07  4.2580911055306871e-07  4.2582587475497117e-07  4.2585109966019535e-07  4.2588105890864398e-07  4.2591204021677396e-07  4.2594065594969631e-07  4.2596407412549454e-07  4.2598017861644418e-07  4.2598767111737747e-07  4.2598612614380650e-07  4.2597600628583113e-07  4.2595863978017195e-07  4.2593615702845162e-07  4.2591137768312169e-07  4.2588763624428336e-07  4.2586853343876054e-07  4.2585760661547714e-07  4.2585792695227433e-07  4.2587165629649955e-07  4.2589962846940676e-07  4.2594104153950771e-07  4.2599334882310293e-07  4.2605242440625382e-07  4.2611296088915715e-07  4.2616889646824106e-07  4.2620581351404075e-07  4.2605307530283928e-07  4.2284235144743356e-07  8.3411541269579880e-07  8.3966914148276236e-07  4.2761139890961496e-07  4.3128481784583465e-07  4.3132412578745515e-07  4.3111554350387035e-07  4.3085678944819434e-07  4.3057463019935798e-07  4.3028743236090504e-07  4.3001103206920461e-07  4.2975763372233116e-07  4.2953522328836999e-07  4.2934767758498822e-07  4.2919539153409818e-07  4.2907617977344170e-07  4.2898623139218506e-07  4.2892096273230202e-07  4.2887569306664975e-07  4.2884613256174275e-07  4.2882870902849963e-07  4.2882077252920813e-07  4.2882071420814251e-07  4.2882802615855239e-07  4.2884331786415025e-07  4.2886829347788646e-07  4.2890568312450167e-07  4.2895911018565136e-07  4.2903286462749396e-07  4.2913154395234314e-07  4.2925952334310476e-07  4.2942023092799244e-07  4.2961525663963492e-07  4.2984339854347967e-07  4.3009983782411934e-07  4.3037568651618944e-07  4.3065809174978168e-07  4.3093094404312477e-07  4.3117620995625381e-07  4.3136553181925992e-07  4.3127468831775439e-07  4.2727448151831110e-07  8.3755248802509955e-07  8.4457746074651164e-07  4.3338790803245161e-07  4.3798389546809651e-07  4.3788595759628304e-07  4.3741838837103610e-07  4.3684879296394484e-07  4.3622852845327554e-07  4.3559705492998867e-07  4.3498744073040962e-07  4.3442419698152867e-07  4.3392269813716847e-07  4.3349005633293211e-07  4.3312689437724790e-07  4.3282943176680928e-07  4.3259142141975899e-07  4.3240568124865250e-07  4.3226516217274937e-07  4.3216361835316834e-07  4.3209599024020851e-07  4.3205860484525734e-07  4.3204927115432332e-07  4.3206732023092823e-07  4.3211361598814303e-07  4.3219054341439061e-07  4.3230196376455100e-07  4.3245310577027061e-07  4.3265033696621657e-07  4.3290073245531777e-07  4.3321132352160986e-07  4.3358791241665053e-07  4.3403341853554795e-07  4.3454584977563687e-07  4.3511630206140584e-07  4.3572749935449444e-07  4.3635328089292149e-07  4.3695960477888789e-07  4.3750732573321590e-07  4.3794311867594939e-07  4.3796641321437473e-07  4.3294281682144436e-07  8.4187697634504634e-07  8.5089866385305641e-07  4.4093231378001162e-07  4.4674164195451249e-07  4.4639927689066631e-07  4.4550229121866781e-07  4.4442522461945500e-07  4.4326503875273142e-07  4.4209879030761132e-07  4.409874445