<?xml version="1.0"?>
<VTKFile type="UnstructuredGrid"  version="0.1"  >
<UnstructuredGrid>
<Piece  NumberOfPoints="1681" NumberOfCells="3200">
<Points>
<DataArray  type="Float64"  NumberOfComponents="3"  format="ascii">0 0 0  0.025 0 0  0.05 0 0  0.075 0 0  0.1 0 0  0.125 0 0  0.15 0 0  0.175 0 0  0.2 0 0  0.225 0 0  0.25 0 0  0.275 0 0  0.3 0 0  0.325 0 0  0.35 0 0  0.375 0 0  0.4 0 0  0.425 0 0  0.45 0 0  0.475 0 0  0.5 0 0  0.525 0 0  0.55 0 0  0.575 0 0  0.6 0 0  0.625 0 0  0.65 0 0  0.675 0 0  0.7 0 0  0.725 0 0  0.75 0 0  0.775 0 0  0.8 0 0  0.825 0 0  0.85 0 0  0.875 0 0  0.9 0 0  0.925 0 0  0.95 0 0  0.975 0 0  1 0 0  0 0.025 0  0.025 0.025 0  0.05 0.025 0  0.075 0.025 0  0.1 0.025 0  0.125 0.025 0  0.15 0.025 0  0.175 0.025 0  0.2 0.025 0  0.225 0.025 0  0.25 0.025 0  0.275 0.025 0  0.3 0.025 0  0.325 0.025 0  0.35 0.025 0  0.375 0.025 0  0.4 0.025 0  0.425 0.025 0  0.45 0.025 0  0.475 0.025 0  0.5 0.025 0  0.525 0.025 0  0.55 0.025 0  0.575 0.025 0  0.6 0.025 0  0.625 0.025 0  0.65 0.025 0  0.675 0.025 0  0.7 0.025 0  0.725 0.025 0  0.75 0.025 0  0.775 0.025 0  0.8 0.025 0  0.825 0.025 0  0.85 0.025 0  0.875 0.025 0  0.9 0.025 0  0.925 0.025 0  0.95 0.025 0  0.975 0.025 0  1 0.025 0  0 0.05 0  0.025 0.05 0  0.05 0.05 0  0.075 0.05 0  0.1 0.05 0  0.125 0.05 0  0.15 0.05 0  0.175 0.05 0  0.2 0.05 0  0.225 0.05 0  0.25 0.05 0  0.275 0.05 0  0.3 0.05 0  0.325 0.05 0  0.35 0.05 0  0.375 0.05 0  0.4 0.05 0  0.425 0.05 0  0.45 0.05 0  0.475 0.05 0  0.5 0.05 0  0.525 0.05 0  0.55 0.05 0  0.575 0.05 0  0.6 0.05 0  0.625 0.05 0  0.65 0.05 0  0.675 0.05 0  0.7 0.05 0  0.725 0.05 0  0.75 0.05 0  0.775 0.05 0  0.8 0.05 0  0.825 0.05 0  0.85 0.05 0  0.875 0.05 0  0.9 0.05 0  0.925 0.05 0  0.95 0.05 0  0.975 0.05 0  1 0.05 0  0 0.075 0  0.025 0.075 0  0.05 0.075 0  0.075 0.075 0  0.1 0.075 0  0.125 0.075 0  0.15 0.075 0  0.175 0.075 0  0.2 0.075 0  0.225 0.075 0  0.25 0.075 0  0.275 0.075 0  0.3 0.075 0  0.325 0.075 0  0.35 0.075 0  0.375 0.075 0  0.4 0.075 0  0.425 0.075 0  0.45 0.075 0  0.475 0.075 0  0.5 0.075 0  0.525 0.075 0  0.55 0.075 0  0.575 0.075 0  0.6 0.075 0  0.625 0.075 0  0.65 0.075 0  0.675 0.075 0  0.7 0.075 0  0.725 0.075 0  0.75 0.075 0  0.775 0.075 0  0.8 0.075 0  0.825 0.075 0  0.85 0.075 0  0.875 0.075 0  0.9 0.075 0  0.925 0.075 0  0.95 0.075 0  0.975 0.075 0  1 0.075 0  0 0.1 0  0.025 0.1 0  0.05 0.1 0  0.075 0.1 0  0.1 0.1 0  0.125 0.1 0  0.15 0.1 0  0.175 0.1 0  0.2 0.1 0  0.225 0.1 0  0.25 0.1 0  0.275 0.1 0  0.3 0.1 0  0.325 0.1 0  0.35 0.1 0  0.375 0.1 0  0.4 0.1 0  0.425 0.1 0  0.45 0.1 0  0.475 0.1 0  0.5 0.1 0  0.525 0.1 0  0.55 0.1 0  0.575 0.1 0  0.6 0.1 0  0.625 0.1 0  0.65 0.1 0  0.675 0.1 0  0.7 0.1 0  0.725 0.1 0  0.75 0.1 0  0.775 0.1 0  0.8 0.1 0  0.825 0.1 0  0.85 0.1 0  0.875 0.1 0  0.9 0.1 0  0.925 0.1 0  0.95 0.1 0  0.975 0.1 0  1 0.1 0  0 0.125 0  0.025 0.125 0  0.05 0.125 0  0.075 0.125 0  0.1 0.125 0  0.125 0.125 0  0.15 0.125 0  0.175 0.125 0  0.2 0.125 0  0.225 0.125 0  0.25 0.125 0  0.275 0.125 0  0.3 0.125 0  0.325 0.125 0  0.35 0.125 0  0.375 0.125 0  0.4 0.125 0  0.425 0.125 0  0.45 0.125 0  0.475 0.125 0  0.5 0.125 0  0.525 0.125 0  0.55 0.125 0  0.575 0.125 0  0.6 0.125 0  0.625 0.125 0  0.65 0.125 0  0.675 0.125 0  0.7 0.125 0  0.725 0.125 0  0.75 0.125 0  0.775 0.125 0  0.8 0.125 0  0.825 0.125 0  0.85 0.125 0  0.875 0.125 0  0.9 0.125 0  0.925 0.125 0  0.95 0.125 0  0.975 0.125 0  1 0.125 0  0 0.15 0  0.025 0.15 0  0.05 0.15 0  0.075 0.15 0  0.1 0.15 0  0.125 0.15 0  0.15 0.15 0  0.175 0.15 0  0.2 0.15 0  0.225 0.15 0  0.25 0.15 0  0.275 0.15 0  0.3 0.15 0  0.325 0.15 0  0.35 0.15 0  0.375 0.15 0  0.4 0.15 0  0.425 0.15 0  0.45 0.15 0  0.475 0.15 0  0.5 0.15 0  0.525 0.15 0  0.55 0.15 0  0.575 0.15 0  0.6 0.15 0  0.625 0.15 0  0.65 0.15 0  0.675 0.15 0  0.7 0.15 0  0.725 0.15 0  0.75 0.15 0  0.775 0.15 0  0.8 0.15 0  0.825 0.15 0  0.85 0.15 0  0.875 0.15 0  0.9 0.15 0  0.925 0.15 0  0.95 0.15 0  0.975 0.15 0  1 0.15 0  0 0.175 0  0.025 0.175 0  0.05 0.175 0  0.075 0.175 0  0.1 0.175 0  0.125 0.175 0  0.15 0.175 0  0.175 0.175 0  0.2 0.175 0  0.225 0.175 0  0.25 0.175 0  0.275 0.175 0  0.3 0.175 0  0.325 0.175 0  0.35 0.175 0  0.375 0.175 0  0.4 0.175 0  0.425 0.175 0  0.45 0.175 0  0.475 0.175 0  0.5 0.175 0  0.525 0.175 0  0.55 0.175 0  0.575 0.175 0  0.6 0.175 0  0.625 0.175 0  0.65 0.175 0  0.675 0.175 0  0.7 0.175 0  0.725 0.175 0  0.75 0.175 0  0.775 0.175 0  0.8 0.175 0  0.825 0.175 0  0.85 0.175 0  0.875 0.175 0  0.9 0.175 0  0.925 0.175 0  0.95 0.175 0  0.975 0.175 0  1 0.175 0  0 0.2 0  0.025 0.2 0  0.05 0.2 0  0.075 0.2 0  0.1 0.2 0  0.125 0.2 0  0.15 0.2 0  0.175 0.2 0  0.2 0.2 0  0.225 0.2 0  0.25 0.2 0  0.275 0.2 0  0.3 0.2 0  0.325 0.2 0  0.35 0.2 0  0.375 0.2 0  0.4 0.2 0  0.425 0.2 0  0.45 0.2 0  0.475 0.2 0  0.5 0.2 0  0.525 0.2 0  0.55 0.2 0  0.575 0.2 0  0.6 0.2 0  0.625 0.2 0  0.65 0.2 0  0.675 0.2 0  0.7 0.2 0  0.725 0.2 0  0.75 0.2 0  0.775 0.2 0  0.8 0.2 0  0.825 0.2 0  0.85 0.2 0  0.875 0.2 0  0.9 0.2 0  0.925 0.2 0  0.95 0.2 0  0.975 0.2 0  1 0.2 0  0 0.225 0  0.025 0.225 0  0.05 0.225 0  0.075 0.225 0  0.1 0.225 0  0.125 0.225 0  0.15 0.225 0  0.175 0.225 0  0.2 0.225 0  0.225 0.225 0  0.25 0.225 0  0.275 0.225 0  0.3 0.225 0  0.325 0.225 0  0.35 0.225 0  0.375 0.225 0  0.4 0.225 0  0.425 0.225 0  0.45 0.225 0  0.475 0.225 0  0.5 0.225 0  0.525 0.225 0  0.55 0.225 0  0.575 0.225 0  0.6 0.225 0  0.625 0.225 0  0.65 0.225 0  0.675 0.225 0  0.7 0.225 0  0.725 0.225 0  0.75 0.225 0  0.775 0.225 0  0.8 0.225 0  0.825 0.225 0  0.85 0.225 0  0.875 0.225 0  0.9 0.225 0  0.925 0.225 0  0.95 0.225 0  0.975 0.225 0  1 0.225 0  0 0.25 0  0.025 0.25 0  0.05 0.25 0  0.075 0.25 0  0.1 0.25 0  0.125 0.25 0  0.15 0.25 0  0.175 0.25 0  0.2 0.25 0  0.225 0.25 0  0.25 0.25 0  0.275 0.25 0  0.3 0.25 0  0.325 0.25 0  0.35 0.25 0  0.375 0.25 0  0.4 0.25 0  0.425 0.25 0  0.45 0.25 0  0.475 0.25 0  0.5 0.25 0  0.525 0.25 0  0.55 0.25 0  0.575 0.25 0  0.6 0.25 0  0.625 0.25 0  0.65 0.25 0  0.675 0.25 0  0.7 0.25 0  0.725 0.25 0  0.75 0.25 0  0.775 0.25 0  0.8 0.25 0  0.825 0.25 0  0.85 0.25 0  0.875 0.25 0  0.9 0.25 0  0.925 0.25 0  0.95 0.25 0  0.975 0.25 0  1 0.25 0  0 0.275 0  0.025 0.275 0  0.05 0.275 0  0.075 0.275 0  0.1 0.275 0  0.125 0.275 0  0.15 0.275 0  0.175 0.275 0  0.2 0.275 0  0.225 0.275 0  0.25 0.275 0  0.275 0.275 0  0.3 0.275 0  0.325 0.275 0  0.35 0.275 0  0.375 0.275 0  0.4 0.275 0  0.425 0.275 0  0.45 0.275 0  0.475 0.275 0  0.5 0.275 0  0.525 0.275 0  0.55 0.275 0  0.575 0.275 0  0.6 0.275 0  0.625 0.275 0  0.65 0.275 0  0.675 0.275 0  0.7 0.275 0  0.725 0.275 0  0.75 0.275 0  0.775 0.275 0  0.8 0.275 0  0.825 0.275 0  0.85 0.275 0  0.875 0.275 0  0.9 0.275 0  0.925 0.275 0  0.95 0.275 0  0.975 0.275 0  1 0.275 0  0 0.3 0  0.025 0.3 0  0.05 0.3 0  0.075 0.3 0  0.1 0.3 0  0.125 0.3 0  0.15 0.3 0  0.175 0.3 0  0.2 0.3 0  0.225 0.3 0  0.25 0.3 0  0.275 0.3 0  0.3 0.3 0  0.325 0.3 0  0.35 0.3 0  0.375 0.3 0  0.4 0.3 0  0.425 0.3 0  0.45 0.3 0  0.475 0.3 0  0.5 0.3 0  0.525 0.3 0  0.55 0.3 0  0.575 0.3 0  0.6 0.3 0  0.625 0.3 0  0.65 0.3 0  0.675 0.3 0  0.7 0.3 0  0.725 0.3 0  0.75 0.3 0  0.775 0.3 0  0.8 0.3 0  0.825 0.3 0  0.85 0.3 0  0.875 0.3 0  0.9 0.3 0  0.925 0.3 0  0.95 0.3 0  0.975 0.3 0  1 0.3 0  0 0.325 0  0.025 0.325 0  0.05 0.325 0  0.075 0.325 0  0.1 0.325 0  0.125 0.325 0  0.15 0.325 0  0.175 0.325 0  0.2 0.325 0  0.225 0.325 0  0.25 0.325 0  0.275 0.325 0  0.3 0.325 0  0.325 0.325 0  0.35 0.325 0  0.375 0.325 0  0.4 0.325 0  0.425 0.325 0  0.45 0.325 0  0.475 0.325 0  0.5 0.325 0  0.525 0.325 0  0.55 0.325 0  0.575 0.325 0  0.6 0.325 0  0.625 0.325 0  0.65 0.325 0  0.675 0.325 0  0.7 0.325 0  0.725 0.325 0  0.75 0.325 0  0.775 0.325 0  0.8 0.325 0  0.825 0.325 0  0.85 0.325 0  0.875 0.325 0  0.9 0.325 0  0.925 0.325 0  0.95 0.325 0  0.975 0.325 0  1 0.325 0  0 0.35 0  0.025 0.35 0  0.05 0.35 0  0.075 0.35 0  0.1 0.35 0  0.125 0.35 0  0.15 0.35 0  0.175 0.35 0  0.2 0.35 0  0.225 0.35 0  0.25 0.35 0  0.275 0.35 0  0.3 0.35 0  0.325 0.35 0  0.35 0.35 0  0.375 0.35 0  0.4 0.35 0  0.425 0.35 0  0.45 0.35 0  0.475 0.35 0  0.5 0.35 0  0.525 0.35 0  0.55 0.35 0  0.575 0.35 0  0.6 0.35 0  0.625 0.35 0  0.65 0.35 0  0.675 0.35 0  0.7 0.35 0  0.725 0.35 0  0.75 0.35 0  0.775 0.35 0  0.8 0.35 0  0.825 0.35 0  0.85 0.35 0  0.875 0.35 0  0.9 0.35 0  0.925 0.35 0  0.95 0.35 0  0.975 0.35 0  1 0.35 0  0 0.375 0  0.025 0.375 0  0.05 0.375 0  0.075 0.375 0  0.1 0.375 0  0.125 0.375 0  0.15 0.375 0  0.175 0.375 0  0.2 0.375 0  0.225 0.375 0  0.25 0.375 0  0.275 0.375 0  0.3 0.375 0  0.325 0.375 0  0.35 0.375 0  0.375 0.375 0  0.4 0.375 0  0.425 0.375 0  0.45 0.375 0  0.475 0.375 0  0.5 0.375 0  0.525 0.375 0  0.55 0.375 0  0.575 0.375 0  0.6 0.375 0  0.625 0.375 0  0.65 0.375 0  0.675 0.375 0  0.7 0.375 0  0.725 0.375 0  0.75 0.375 0  0.775 0.375 0  0.8 0.375 0  0.825 0.375 0  0.85 0.375 0  0.875 0.375 0  0.9 0.375 0  0.925 0.375 0  0.95 0.375 0  0.975 0.375 0  1 0.375 0  0 0.4 0  0.025 0.4 0  0.05 0.4 0  0.075 0.4 0  0.1 0.4 0  0.125 0.4 0  0.15 0.4 0  0.175 0.4 0  0.2 0.4 0  0.225 0.4 0  0.25 0.4 0  0.275 0.4 0  0.3 0.4 0  0.325 0.4 0  0.35 0.4 0  0.375 0.4 0  0.4 0.4 0  0.425 0.4 0  0.45 0.4 0  0.475 0.4 0  0.5 0.4 0  0.525 0.4 0  0.55 0.4 0  0.575 0.4 0  0.6 0.4 0  0.625 0.4 0  0.65 0.4 0  0.675 0.4 0  0.7 0.4 0  0.725 0.4 0  0.75 0.4 0  0.775 0.4 0  0.8 0.4 0  0.825 0.4 0  0.85 0.4 0  0.875 0.4 0  0.9 0.4 0  0.925 0.4 0  0.95 0.4 0  0.975 0.4 0  1 0.4 0  0 0.425 0  0.025 0.425 0  0.05 0.425 0  0.075 0.425 0  0.1 0.425 0  0.125 0.425 0  0.15 0.425 0  0.175 0.425 0  0.2 0.425 0  0.225 0.425 0  0.25 0.425 0  0.275 0.425 0  0.3 0.425 0  0.325 0.425 0  0.35 0.425 0  0.375 0.425 0  0.4 0.425 0  0.425 0.425 0  0.45 0.425 0  0.475 0.425 0  0.5 0.425 0  0.525 0.425 0  0.55 0.425 0  0.575 0.425 0  0.6 0.425 0  0.625 0.425 0  0.65 0.425 0  0.675 0.425 0  0.7 0.425 0  0.725 0.425 0  0.75 0.425 0  0.775 0.425 0  0.8 0.425 0  0.825 0.425 0  0.85 0.425 0  0.875 0.425 0  0.9 0.425 0  0.925 0.425 0  0.95 0.425 0  0.975 0.425 0  1 0.425 0  0 0.45 0  0.02
[...]
<PointData  Scalars="ControlVisualisation"> 
<DataArray  type="Float64"  Name="ControlVisualisation"  format="ascii">1.2346078342743536e-06  8.1976404676297127e-07  8.1983909702001499e-07  8.1996506062661250e-07  8.2013796939777109e-07  8.2035313158318932e-07  8.2060463011933952e-07  8.2088563388405054e-07  8.2118861334842505e-07  8.2150556585116505e-07  8.2182824938220995e-07  8.2214840834282291e-07  8.2245798584826370e-07  8.2274931746856385e-07  8.2301530295325059e-07  8.2324955426842187e-07  8.2344651959223104e-07  8.2360158393086927e-07  8.2371114769599621e-07  8.2377268478742869e-07  8.2378478172504021e-07  8.2374715903534067e-07  8.2366067561722403e-07  8.2352731621915646e-07  8.2335016153832562e-07  8.2313333991107798e-07  8.2288195916921450e-07  8.2260201704080960e-07  8.2230028859468736e-07  8.2198418970891200e-07  8.2166161636291518e-07  8.2134076078909994e-07  8.2102990708060463e-07  8.2073721033002078e-07  8.2047046647187817e-07  8.2023687796672849e-07  8.2004283094182792e-07  8.1989364366986753e-07  8.1979386471924770e-07  8.1974457826432552e-07  2.4792022286117356e-06  8.1976422506177337e-07  4.0490970070879703e-07  4.0498540142329373e-07  4.0511884041735742e-07  4.0530791119716255e-07  4.0554747386636665e-07  4.0583099153056812e-07  4.0615084293911650e-07  4.0649851612248135e-07  4.0686486683462222e-07  4.0724038186851809e-07  4.0761543915663960e-07  4.0798055797041699e-07  4.0832663233667100e-07  4.0864514287725609e-07  4.0892834397623667e-07  4.0916942464404503e-07  4.0936264260653055e-07  4.0950343201165530e-07  4.0958848559762496e-07  4.0961581233594532e-07  4.0958477147163196e-07  4.0949608355520642e-07  4.0935181866796550e-07  4.0915536155841129e-07  4.0891135300492805e-07  4.0862560644391824e-07  4.0830499880255450e-07  4.0795733468306058e-07  4.0759118356047266e-07  4.0721569053273348e-07  4.0684036237012486e-07  4.0647483213209211e-07  4.0612860726898847e-07  4.0581080872068742e-07  4.0552990557248440e-07  4.0529346630507117e-07  4.0510791899132223e-07  4.0497819749220660e-07  4.0490359384810967e-07  8.1974460450762259e-07  8.1984121108261627e-07  4.0498699430811218e-07  4.0508334234171138e-07  4.0523705039780816e-07  4.0545523942444108e-07  4.0573233192002893e-07  4.0606081453151409e-07  4.0643186434603028e-07  4.0683561293291047e-07  4.0726144913737781e-07  4.0769832040776544e-07  4.0813503470212158e-07  4.0856055145028080e-07  4.0896425365564712e-07  4.0933619557876231e-07  4.0966732227107549e-07  4.0994965891419839e-07  4.1017646925416996e-07  4.1034238338835378e-07  4.1044349570788077e-07  4.1047743401276020e-07  4.1044340074617553e-07  4.1034218696157832e-07  4.1017615924429433e-07  4.0994921930842885e-07  4.0966673554999401e-07  4.0933544558255838e-07  4.0896332867257119e-07  4.0855944723291533e-07  4.0813375712585672e-07  4.0769688748944477e-07  4.0725989218349882e-07  4.0683397666813236e-07  4.0643020602669819e-07  4.0605920235365657e-07  4.0573083844937151e-07  4.0545395577133263e-07  4.0523598042699658e-07  4.0508196127448245e-07  4.0497955588905578e-07  8.1979454756966818e-07  8.1997523532427316e-07  4.0512782090273601e-07  4.0524530861894638e-07  4.0540107927359218e-07  4.0562092131651557e-07  4.0590003582846638e-07  4.0623089187226421e-07  4.0660456203964345e-07  4.0701107736820817e-07  4.0743972936464728e-07  4.0787937757327268e-07  4.0831875543770420e-07  4.0874676291485346e-07  4.0915273876054158e-07  4.0952670704333517e-07  4.0985959448567625e-07  4.1014341697735224e-07  4.1037143493216304e-07  4.1053827810030323e-07  4.1064004092610222e-07  4.1067434970481284e-07  4.1064040263129064e-07  4.1053898346011712e-07  4.1037244901343403e-07  4.1014469023982082e-07  4.0986106600971006e-07  4.0952830849500954e-07  4.0915439883247414e-07  4.0874841191613719e-07  4.0832032970786196e-07  4.0788082338369236e-07  4.0744100601905681e-07  4.0701215928626732e-07  4.0660543959615628e-07  4.0623157190893474e-07  4.0590053778025837e-07  4.0562127793984407e-07  4.0540123259053002e-07  4.0524421047353813e-07  4.0511606651209440e-07  8.1989847051080347e-07  8.2016978655605954e-07  4.0533795212224341e-07  4.0548733273406117e-07  4.0564486337771077e-07  4.0586489332890901e-07  4.0614405499881241e-07  4.0647483985124597e-07  4.0684826618577341e-07  4.0725432398910966e-07  4.0768227894259919e-07  4.0812098672464501e-07  4.0855920037515636e-07  4.0898586211063794e-07  4.0939037253085917e-07  4.0976283219589642e-07  4.1009425279492063e-07  4.1037673688851376e-07  4.1060362650450395e-07  4.1076962172622590e-07  4.1087087080269406e-07  4.1090503335892698e-07  4.1087131801020483e-07  4.1077049524345406e-07  4.1060488583650260e-07  4.1037832446556749e-07  4.1009609757409869e-07  4.0976485411410901e-07  4.0939248752271839e-07  4.0898798734353964e-07  4.0856125932836430e-07  4.0812291372299859e-07  4.0768402279259709e-07  4.0725585046467861e-07  4.0684955902730539e-07  4.0647590082024768e-07  4.0614490051513536e-07  4.0586554692497539e-07  4.0564523251358159e-07  4.0548592444516325e-07  4.0532141621469610e-07  8.2006112599781805e-07  8.2043075399025063e-07  4.0562377105484684e-07  4.0581711637222660e-07  4.0597693280557929e-07  4.0619699720176884e-07  4.0647595511349830e-07  4.0680631908354335e-07  4.0717904625447496e-07  4.0758407970969129e-07  4.0801066210058636e-07  4.0844765625328953e-07  4.0888385405932788e-07  4.0930826676988250e-07  4.0971038954786394e-07  4.1008043604275936e-07  4.1040954102541619e-07  4.1068993092837372e-07  4.1091506337571106e-07  4.1107973750748729e-07  4.1118017718211358e-07  4.1121408900535711e-07  4.1118069676844988e-07  4.1108075328571526e-07  4.1091652996709408e-07  4.1069178372112906e-07  4.1041170011410741e-07  4.1008281113687402e-07  4.0971288554528166e-07  4.0931078962492075e-07  4.0888631652794985e-07  4.0844998306069825e-07  4.0801279410820362e-07  4.0758597673901033e-07  4.0718068823709059e-07  4.0680770564598890e-07  4.0647710200089070e-07  4.0619792576631707e-07  4.0597750569632592e-07  4.0581534483797574e-07  4.0560197461263002e-07  8.2028694659481436e-07  8.2076599954205508e-07  4.0599401018109960e-07  4.0624478693172487e-07  4.0640748219654518e-07  4.0662739254872515e-07  4.0690582860322435e-07  4.0723534582950290e-07  4.0760683264969871e-07  4.0801018127881220e-07  4.0843461645151676e-07  4.0886902212641303e-07  4.0930225180042565e-07  4.0972341605695333e-07  4.1012214059102026e-07  4.1048879146851994e-07  4.1081466673013266e-07  4.1109215526892565e-07  4.1131486505426952e-07  4.1147772329056605e-07  4.1157705120091069e-07  4.1161061579857829e-07  4.1157766049129861e-07  4.1147891566627560e-07  4.1131658961336146e-07  4.1109433936897674e-07  4.1081722025020273e-07  4.1049161216785979e-07  4.1012512025938818e-07  4.0972644707631394e-07  4.0930523364700000e-07  4.0887186730423071e-07  4.0843725533854972e-07  4.0801256543833876e-07  4.0760893622615170e-07  4.0723716503270698e-07  4.0690737741067598e-07  4.0662869098549752e-07  4.0640834698795660e-07  4.0624267464796747e-07  4.0596633636783398e-07  8.2058272838847435e-07  8.2118581473737984e-07  4.0646025356992741e-07  4.0678373874625567e-07  4.0694987707804059e-07  4.0716927310198856e-07  4.0744664631541386e-07  4.0777462443260709e-07  4.0814402540376085e-07  4.0854469559457559e-07  4.0896585630894022e-07  4.0939643691678308e-07  4.0982538587983859e-07  4.1024195374510798e-07  4.1063594224788475e-07  4.1099791753647210e-07  4.1131938801755911e-07  4.1159294905745673e-07  4.1181239773952027e-07  4.1197282113722423e-07  4.1207066138045922e-07  4.1210376028750630e-07  4.1207138561718553e-07  4.1197424021524042e-07  4.1181445444909040e-07  4.1159556148221252e-07  4.1132245406758176e-07  4.1100132071104746e-07  4.1063955835761012e-07  4.1024565820722913e-07  4.0982906108198177e-07  4.0939997908379811e-07  4.0896918124942339e-07  4.0854774275836888e-07  4.0814675975152358e-07  4.0777703616307799e-07  4.0744874589720103e-07  4.0717107760025578e-07  4.0695114889271990e-07  4.0678129526531839e-07  4.0642588523379107e-07  8.2095746890321340e-07  8.2170338567766247e-07  4.0703744347689079e-07  4.0745126276657608e-07  4.0762135222750948e-07  4.0783961460011660e-07  4.0811504503127267e-07  4.0844038747104905e-07  4.0880640007106944e-07  4.0920290207968285e-07  4.0961914077896346e-07  4.1004413092691947e-07  4.1046696482638101e-07  4.1087708818183130e-07  4.1126453721079785e-07  4.1162013668122656e-07  4.1193566109174728e-07  4.1220396275505832e-07  4.1241907119160531e-07  4.1257626813881707e-07  4.1267214199080704e-07  4.1270462472085201e-07  4.1267301347716577e-07  4.1257797817619299e-07  4.1242155550910572e-07  4.1220712891305622e-07  4.1193939316350181e-07  4.1162430131183117e-07  4.1126899083132042e-07  4.1088168502967671e-07  4.1047156526197883e-07  4.1004860942317552e-07  4.0962339285659903e-07  4.0920684947314350e-07  4.0880999345049277e-07  4.0844360674031863e-07  4.0811789390378554e-07  4.0784210468458731e-07  4.0762318090893040e-07  4.0744850170647972e-07  4.0699532967875087e-07  8.2142279727034675e-07  8.2233542213627977e-07  4.0774463886384958e-07  4.0826943055858809e-07  4.0844386319543004e-07  4.0865997776949113e-07  4.0893207725041101e-07  4.0925308842569602e-07  4.0961373960026741e-07  4.1000386320534813e-07  4.1041278497016456e-07  4.1082966818042209e-07  4.1124381985568449e-07  4.1164495579770352e-07  4.1202342185568473e-07  4.1237037324673382e-07  4.1267791618268544e-07  4.1293921723834661e-07  4.1314858603146772e-07  4.1330153625905713e-07  4.1339482921584582e-07  4.1342650295443083e-07  4.1339588924561563e-07  4.1330361959915815e-07  4.1315162077158350e-07  4.1294309933934227e-07  4.1268251409155439e-07  4.1237553402074605e-07  4.1202897867642115e-07  4.1165073660178687e-07  4.1124965662620897e-07  4.1083540624815710e-07  4.1041829149533702e-07  4.1000903395081628e-07  4.0961850307810709e-07  4.0925740731766030e-07  4.0893594282163133e-07  4.0866339164338820e-07  4.0844644324133541e-07  4.0826636811623753e-07  4.0769343763891695e-07  8.2199351541774311e-07  8.2310301891747691e-07  4.0860604984868299e-07  4.0926629071316214e-07  4.0944524416507159e-07  4.0965760012264244e-07  4.0992421997981353e-07  4.1023831615294554e-07  4.1059064900507155e-07  4.1097113889955050e-07  4.1136927774617963e-07  4.1177447448043832e-07  4.1217635254304471e-07  4.1256499903714468e-07  4.1293116550790178e-07  4.1326642487414376e-07  4.1356329105333214e-07  4.1381530835895955e-07  4.1401711720685171e-07  4.1416450155491984e-07  4.1425442221784533e-07  4.1428503897310135e-07  4.1425572337905450e-07  4.1416706336451591e-07  4.1402085995616313e-07  4.1382011584192733e-07  4.1356901474765305e-07  4.1327288972322505e-07  4.1293817733021791e-07  4.1257235346204219e-07  4.1218384514643897e-07  4.1178191151353225e-07  4.1137648656581730e-07  4.1097797702309722e-07  4.1059701055170320e-07  4.1024413534388671e-07  4.0992946607778345e-07  4.0966225724648067e-07  4.0944883103370116e-07  4.0926294716047992e-07  4.0854404943050206e-07  8.2268833177137670e-07  8.2403282797518674e-07  4.0965246106266445e-07  4.1047752061242590e-07  4.1066079610183133e-07  4.1086687698290346e-07  4.1112472593777287e-07  4.1142800211072577e-07  4.1176761252468880e-07  4.1213369509632309e-07  4.1251604956503806e-07  4.1290447727695371e-07  4.1328906250482592e-07  4.1366039898321777e-07  4.1400976504176098e-07  4.1432925497400665e-07  4.1461187549041022e-07  4.1485161562914894e-07  4.1504349710150379e-07  4.1518361031149140e-07  4.1526913965691983e-07  4.1529838040958730e-07  4.1527074853846959e-07  4.1518678420751829e-07  4.1504814918125680e-07  4.1485761802922898e-07  4.1461906250034440e-07  4.1433742777933344e-07  4.1401869830390392e-07  4.1366984941895134e-07  4.1329877941317764e-07  4.1291421459883763e-07  4.1252557862388297e-07  4.1214281681307538e-07  4.1177616747100243e-07  4.1143587771566598e-07  4.1113185337270673e-07  4.1087321012549118e-07  4.1066572740108791e-07  4.1047392007983161e-07  4.0957746756352119e-07  8.2353085521531858e-07  8.2515867301243388e-07  4.1092321500746151e-07  4.1194872807061007e-07  4.1213548413960258e-07  4.1233139031421195e-07  4.1257545015731214e-07  4.1286202516250395e-07  4.1318237067656870e-07  4.1352705938445385e-07  4.1388642294368830e-07  4.1425087397299584e-07  4.1461116020894037e-07  4.1495856014953813e-07  4.1528502775004489e-07  4.1558329697087362e-07  4.1584695672967069e-07  4.1607050504467339e-07  4.1624938876644019e-07  4.1638003304796228e-07  4.1645986295739445e-07  4.1648731842790792e-07  4.1646186310986954e-07  4.1638398735689922e-07  4.1625520544620226e-07  4.1607804711392838e-07  4.1585604335979314e-07  4.1559370610608280e-07  4.1529650060413230e-07  4.1497080816601293e-07  4.1462387490601578e-07  4.1426373971945307e-07  4.1389913212722085e-07  4.1353932880520639e-07  4.1319395715095029e-07  4.1287273915950467e-07  4.1258515739954245e-07  4.1233999249433094e-07  4.1214220877108252e-07  4.1194489482765510e-07  4.1083239011065217e-07  8.2455095546554549e-07  8.2652380450563674e-07  4.1246901719396887e-07  4.1373870683749431e-07  4.1392702196951549e-07  4.1410672313668038e-07  4.1432934385645500e-07  4.1459035893228987e-07  4.1488171813330023e-07  4.1519478637691314e-07  4.1552077733776653e-07  4.1585103761345626e-07  4.1617725845622811e-07  4.1649163177637079e-07  4.1678696229020435e-07  4.1705674873154722e-07  4.1729524467917967e-07  4.1749750628349344e-07  4.1765943104289946e-07  4.1777778949365631e-07  4.1785025024579229e-07  4.1787539813691437e-07  4.1785274512356771e-07  4.1778273364052763e-07  4.1766673238961579e-07  4.1750702480681232e-07  4.1730679074239603e-07  4.1707008196185725e-07  4.1680179197326877e-07  4.1650761992376048e-07  4.1619402675052632e-07  4.1586817918973818e-07  4.1553787372463747e-07  4.1521142896182292e-07  4.1489753200467285e-07  4.1460502741139182e-07  4.1434262002098992e-07  4.1411841789556373e-07  4.1393614066869751e-07  4.1373465437999505e-07  4.1235863844783723e-07  8.2578664541212445e-07  8.2818410161646528e-07  4.1435597742509082e-07  4.1592412762373322e-07  4.1611027742238509e-07  4.1626442501452720e-07  4.1645390343956433e-07  4.1667597110375978e-07  4.1692385969627895e-07  4.1719030949418798e-07  4.1746795865182637e-07  4.1774955790579064e-07  4.1802812071879359e-07  4.1829703386825035e-07  4.1855014278837373e-07  4.1878182326206574e-07  4.1898704607813916e-07  4.1916143701311517e-07  4.1930133163139087e-07  4.1940382309574014e-07  4.1946680105652465e-07  4.1948898005073490e-07  4.1946991639695288e-07  4.1941001308904737e-07  4.1931051258453041e-07  4.1917347776629866e-07  4.1900176183998231e-07  4.1879896850363772e-07  4.1856940443465906e-07  4.1831802662388719e-07  4.1805038685327535e-07  4.1777257410220668e-07  4.1749115216049216e-07  4.1721308461450751e-07  4.1694563318149526e-07  4.1669621470164736e-07  4.1647217484309167e-07  4.1628037480410166e-07  4.1612260012573956e-07  4.1591983289526158e-07  4.1422107510895194e-07  8.2728672479955073e-07  8.3021270551308453e-07  4.1667155853287285e-07  4.1860644658457909e-07  4.1878369664488664e-07  4.1889770439258601e-07  4.1903601413987380e-07  4.1919877921655627e-07  4.1938150868433068e-07  4.1957926668639229e-07  4.1978695089235400e-07  4.1999939054594912e-07  4.2021141579488857e-07  4.2041792912918338e-07  4.2061398857039386e-07  4.2079490435359692e-07  4.2095634410793604e-07  4.2109443835461932e-07  4.2120587828074597e-07  4.2128799961093668e-07  4.2133884886562743e-07  4.2135723036848180e-07  4.2134273357596059e-07  4.2129574078752147e-07  4.2121741530424751e-07  4.2110966996665010e-07  4.2097511610728760e-07  4.2081699367784889e-07  4.2063908489743231e-07  4.2044561626502387e-07  4.2024115654943959e-07  4.2003052039880097e-07  4.1981868642218378e-07  4.1961073403712482e-07  4.1941179374531786e-07  4.1922699870237512e-07  4.1906138268036919e-07  4.1891958358222257e-07  4.1880032545302253e-07  4.1860179364747256e-07  4.1650534913040022e-07  8.2911455735364537e-07  8.3270686663106910e-07  4.1953355081045580e-07  4.2192233898601254e-07  4.2207890038081046e-07  4.2212977966203198e-07  4.2218887433957084e-07  4.2226111097227617e-07  4.2234597110222466e-07  4.2244238699142093e-07  4.2254879189528994e-07  4.2266303758087011e-07  4.2278237741718487e-07  4.2290353847708647e-07  4.2302286870942213e-07  4.2313653263162742e-07  4.2324072504618024e-07  4.2333187658065675e-07  4.2340683331885301e-07  4.2346300178690673e-07  4.2349845722452119e-07  4.2351201688311239e-07  4.2350328130113497e-07  4.2347264583147219e-07  4.2342128312427277e-07  4.2335109540592761e-07  4.2326463393822739e-07  4.2316498280781273e-07  4.2305560598805316e-07  4.2294016142366148e-07  4.2282229399421257e-07  4.2270542916397070e-07  4.2259259777356208e-07  4.2248632427808438e-07  4.2238859927193782e-07  4.2230094527694642e-07  4.2222451858161645e-07  4.2216006253297359e-07  4.2210135362114227e-07  4.2191699889569978e-07  4.1932652213708224e-07  8.3135357174799714e-07  8.3579829837073137e-07  4.2310398965174806e-07  4.2605992124462822e-07  4.2617542767674142e-07  4.2612644659543382e-07  4.2606209907910021e-07  4.2599533453614628e-07  4.2593252491297319e-07  4.2587899196073864e-07  4.2583863190491618e-07  4.2581358500723780e-07  4.2580418022673604e-07  4.2580913013714654e-07  4.2582589412116137e-07  4.2585111885471580e-07  4.2588107796477221e-07  4.2591205915592419e-07  4.2594067478551498e-07  4.2596409286517513e-07  4.2598019726395117e-07  4.2598768967549835e-07  4.2598614461510289e-07  4.2597602467466030e-07  4.2595865809252415e-07  4.2593617527119889e-07  4.2591139586455553e-07  4.2588765437236412e-07  4.2586855151788460e-07  4.2585762464516317e-07  4.2585794492731964e-07  4.2587167420598028e-07  4.2589964630073937e-07  4.2594105928342934e-07  4.2599336648059421e-07  4.2605244199394832e-07  4.2611297843913486e-07  4.2616891401985878e-07  4.2620583109869259e-07  4.2605309290559625e-07  4.2284236857873310e-07  8.3411544392961389e-07  8.3966917874315630e-07  4.2761142281981796e-07  4.3128484336278323e-07  4.3132415129603664e-07  4.3111556875826879e-07  4.3085681423251972e-07  4.3057465431530655e-07  4.3028745568089268e-07  4.3001105456512337e-07  4.2975765545619487e-07  4.2953524437960144e-07  4.2934769817062174e-07  4.2919541174022943e-07  4.2907619970164928e-07  4.2898625111423429e-07  4.2892098229516178e-07  4.2887571249874525e-07  4.2884615187867428e-07  4.2882872823856964e-07  4.2882079163553809e-07  4.2882073321343405e-07  4.2882804506686834e-07  4.2884333668207614e-07  4.2886831221647798e-07  4.2890570179720011e-07  4.2895912880925550e-07  4.2903288321817197e-07  4.2913156252170795e-07  4.2925954189400325e-07  4.2942024945185067e-07  4.2961527511400229e-07  4.2984341693704491e-07  4.3009985610756077e-07  4.3037570467769544e-07  4.3065810981043037e-07  4.3093096206267097e-07  4.3117622801936445e-07  4.3136554999823297e-07  4.3127470660225148e-07  4.2727449924974645e-07  8.3755251968056383e-07  8.4457750034769193e-07  4.3338793491143351e-07  4.3798392465694039e-07  4.3788598691003950e-07  4.3741841737533902e-07  4.3684882120278965e-07  4.3622855551015533e-07  4.3559708056552764e-07  4.3498746493783172e-07  4.3442421993966473e-07  4.3392272011721769e-07  4.3349007761002351e-07  4.3312691517630418e-07  4.3282945224715804e-07  4.3259144168217479e-07  4.3240570135082539e-07  4.3226518214354200e-07  4.3216363820483087e-07  4.3209600997669314e-07  4.3205862446613282e-07  4.3204929065948918e-07  4.3206733962385958e-07  4.3211363527744816e-07  4.3219056261728562e-07  4.3230198290496986e-07  4.3245312487779834e-07  4.3265035607363207e-07  4.3290075158925942e-07  4.3321134269483997e-07  4.3358793161817059e-07  4.3403343772230116e-07  4.3454586887878882e-07  4.3511632100411927e-07  4.3572751808507625e-07  4.3635329942720071e-07  4.3695962323152986e-07  4.3750734430140371e-07  4.3794313754965002e-07  4.3796643241946879e-07  4.3294283541570415e-07  8.4187700858876473e-07  8.5089870630929550e-07  4.4093234456158872e-07  4.4674167628848426e-07  4.4639931184924367e-07  4.4550232596306241e-07  4.4442525812161066e-07  4.4326507008701144e-07  4.4209881901097990e-07  4.409874707