<?xml version="1.0"?>
<VTKFile type="UnstructuredGrid"  version="0.1"  >
<UnstructuredGrid>
<Piece  NumberOfPoints="1681" NumberOfCells="3200">
<Points>
<DataArray  type="Float64"  NumberOfComponents="3"  format="ascii">0 0 0  0.025 0 0  0.05 0 0  0.075 0 0  0.1 0 0  0.125 0 0  0.15 0 0  0.175 0 0  0.2 0 0  0.225 0 0  0.25 0 0  0.275 0 0  0.3 0 0  0.325 0 0  0.35 0 0  0.375 0 0  0.4 0 0  0.425 0 0  0.45 0 0  0.475 0 0  0.5 0 0  0.525 0 0  0.55 0 0  0.575 0 0  0.6 0 0  0.625 0 0  0.65 0 0  0.675 0 0  0.7 0 0  0.725 0 0  0.75 0 0  0.775 0 0  0.8 0 0  0.825 0 0  0.85 0 0  0.875 0 0  0.9 0 0  0.925 0 0  0.95 0 0  0.975 0 0  1 0 0  0 0.025 0  0.025 0.025 0  0.05 0.025 0  0.075 0.025 0  0.1 0.025 0  0.125 0.025 0  0.15 0.025 0  0.175 0.025 0  0.2 0.025 0  0.225 0.025 0  0.25 0.025 0  0.275 0.025 0  0.3 0.025 0  0.325 0.025 0  0.35 0.025 0  0.375 0.025 0  0.4 0.025 0  0.425 0.025 0  0.45 0.025 0  0.475 0.025 0  0.5 0.025 0  0.525 0.025 0  0.55 0.025 0  0.575 0.025 0  0.6 0.025 0  0.625 0.025 0  0.65 0.025 0  0.675 0.025 0  0.7 0.025 0  0.725 0.025 0  0.75 0.025 0  0.775 0.025 0  0.8 0.025 0  0.825 0.025 0  0.85 0.025 0  0.875 0.025 0  0.9 0.025 0  0.925 0.025 0  0.95 0.025 0  0.975 0.025 0  1 0.025 0  0 0.05 0  0.025 0.05 0  0.05 0.05 0  0.075 0.05 0  0.1 0.05 0  0.125 0.05 0  0.15 0.05 0  0.175 0.05 0  0.2 0.05 0  0.225 0.05 0  0.25 0.05 0  0.275 0.05 0  0.3 0.05 0  0.325 0.05 0  0.35 0.05 0  0.375 0.05 0  0.4 0.05 0  0.425 0.05 0  0.45 0.05 0  0.475 0.05 0  0.5 0.05 0  0.525 0.05 0  0.55 0.05 0  0.575 0.05 0  0.6 0.05 0  0.625 0.05 0  0.65 0.05 0  0.675 0.05 0  0.7 0.05 0  0.725 0.05 0  0.75 0.05 0  0.775 0.05 0  0.8 0.05 0  0.825 0.05 0  0.85 0.05 0  0.875 0.05 0  0.9 0.05 0  0.925 0.05 0  0.95 0.05 0  0.975 0.05 0  1 0.05 0  0 0.075 0  0.025 0.075 0  0.05 0.075 0  0.075 0.075 0  0.1 0.075 0  0.125 0.075 0  0.15 0.075 0  0.175 0.075 0  0.2 0.075 0  0.225 0.075 0  0.25 0.075 0  0.275 0.075 0  0.3 0.075 0  0.325 0.075 0  0.35 0.075 0  0.375 0.075 0  0.4 0.075 0  0.425 0.075 0  0.45 0.075 0  0.475 0.075 0  0.5 0.075 0  0.525 0.075 0  0.55 0.075 0  0.575 0.075 0  0.6 0.075 0  0.625 0.075 0  0.65 0.075 0  0.675 0.075 0  0.7 0.075 0  0.725 0.075 0  0.75 0.075 0  0.775 0.075 0  0.8 0.075 0  0.825 0.075 0  0.85 0.075 0  0.875 0.075 0  0.9 0.075 0  0.925 0.075 0  0.95 0.075 0  0.975 0.075 0  1 0.075 0  0 0.1 0  0.025 0.1 0  0.05 0.1 0  0.075 0.1 0  0.1 0.1 0  0.125 0.1 0  0.15 0.1 0  0.175 0.1 0  0.2 0.1 0  0.225 0.1 0  0.25 0.1 0  0.275 0.1 0  0.3 0.1 0  0.325 0.1 0  0.35 0.1 0  0.375 0.1 0  0.4 0.1 0  0.425 0.1 0  0.45 0.1 0  0.475 0.1 0  0.5 0.1 0  0.525 0.1 0  0.55 0.1 0  0.575 0.1 0  0.6 0.1 0  0.625 0.1 0  0.65 0.1 0  0.675 0.1 0  0.7 0.1 0  0.725 0.1 0  0.75 0.1 0  0.775 0.1 0  0.8 0.1 0  0.825 0.1 0  0.85 0.1 0  0.875 0.1 0  0.9 0.1 0  0.925 0.1 0  0.95 0.1 0  0.975 0.1 0  1 0.1 0  0 0.125 0  0.025 0.125 0  0.05 0.125 0  0.075 0.125 0  0.1 0.125 0  0.125 0.125 0  0.15 0.125 0  0.175 0.125 0  0.2 0.125 0  0.225 0.125 0  0.25 0.125 0  0.275 0.125 0  0.3 0.125 0  0.325 0.125 0  0.35 0.125 0  0.375 0.125 0  0.4 0.125 0  0.425 0.125 0  0.45 0.125 0  0.475 0.125 0  0.5 0.125 0  0.525 0.125 0  0.55 0.125 0  0.575 0.125 0  0.6 0.125 0  0.625 0.125 0  0.65 0.125 0  0.675 0.125 0  0.7 0.125 0  0.725 0.125 0  0.75 0.125 0  0.775 0.125 0  0.8 0.125 0  0.825 0.125 0  0.85 0.125 0  0.875 0.125 0  0.9 0.125 0  0.925 0.125 0  0.95 0.125 0  0.975 0.125 0  1 0.125 0  0 0.15 0  0.025 0.15 0  0.05 0.15 0  0.075 0.15 0  0.1 0.15 0  0.125 0.15 0  0.15 0.15 0  0.175 0.15 0  0.2 0.15 0  0.225 0.15 0  0.25 0.15 0  0.275 0.15 0  0.3 0.15 0  0.325 0.15 0  0.35 0.15 0  0.375 0.15 0  0.4 0.15 0  0.425 0.15 0  0.45 0.15 0  0.475 0.15 0  0.5 0.15 0  0.525 0.15 0  0.55 0.15 0  0.575 0.15 0  0.6 0.15 0  0.625 0.15 0  0.65 0.15 0  0.675 0.15 0  0.7 0.15 0  0.725 0.15 0  0.75 0.15 0  0.775 0.15 0  0.8 0.15 0  0.825 0.15 0  0.85 0.15 0  0.875 0.15 0  0.9 0.15 0  0.925 0.15 0  0.95 0.15 0  0.975 0.15 0  1 0.15 0  0 0.175 0  0.025 0.175 0  0.05 0.175 0  0.075 0.175 0  0.1 0.175 0  0.125 0.175 0  0.15 0.175 0  0.175 0.175 0  0.2 0.175 0  0.225 0.175 0  0.25 0.175 0  0.275 0.175 0  0.3 0.175 0  0.325 0.175 0  0.35 0.175 0  0.375 0.175 0  0.4 0.175 0  0.425 0.175 0  0.45 0.175 0  0.475 0.175 0  0.5 0.175 0  0.525 0.175 0  0.55 0.175 0  0.575 0.175 0  0.6 0.175 0  0.625 0.175 0  0.65 0.175 0  0.675 0.175 0  0.7 0.175 0  0.725 0.175 0  0.75 0.175 0  0.775 0.175 0  0.8 0.175 0  0.825 0.175 0  0.85 0.175 0  0.875 0.175 0  0.9 0.175 0  0.925 0.175 0  0.95 0.175 0  0.975 0.175 0  1 0.175 0  0 0.2 0  0.025 0.2 0  0.05 0.2 0  0.075 0.2 0  0.1 0.2 0  0.125 0.2 0  0.15 0.2 0  0.175 0.2 0  0.2 0.2 0  0.225 0.2 0  0.25 0.2 0  0.275 0.2 0  0.3 0.2 0  0.325 0.2 0  0.35 0.2 0  0.375 0.2 0  0.4 0.2 0  0.425 0.2 0  0.45 0.2 0  0.475 0.2 0  0.5 0.2 0  0.525 0.2 0  0.55 0.2 0  0.575 0.2 0  0.6 0.2 0  0.625 0.2 0  0.65 0.2 0  0.675 0.2 0  0.7 0.2 0  0.725 0.2 0  0.75 0.2 0  0.775 0.2 0  0.8 0.2 0  0.825 0.2 0  0.85 0.2 0  0.875 0.2 0  0.9 0.2 0  0.925 0.2 0  0.95 0.2 0  0.975 0.2 0  1 0.2 0  0 0.225 0  0.025 0.225 0  0.05 0.225 0  0.075 0.225 0  0.1 0.225 0  0.125 0.225 0  0.15 0.225 0  0.175 0.225 0  0.2 0.225 0  0.225 0.225 0  0.25 0.225 0  0.275 0.225 0  0.3 0.225 0  0.325 0.225 0  0.35 0.225 0  0.375 0.225 0  0.4 0.225 0  0.425 0.225 0  0.45 0.225 0  0.475 0.225 0  0.5 0.225 0  0.525 0.225 0  0.55 0.225 0  0.575 0.225 0  0.6 0.225 0  0.625 0.225 0  0.65 0.225 0  0.675 0.225 0  0.7 0.225 0  0.725 0.225 0  0.75 0.225 0  0.775 0.225 0  0.8 0.225 0  0.825 0.225 0  0.85 0.225 0  0.875 0.225 0  0.9 0.225 0  0.925 0.225 0  0.95 0.225 0  0.975 0.225 0  1 0.225 0  0 0.25 0  0.025 0.25 0  0.05 0.25 0  0.075 0.25 0  0.1 0.25 0  0.125 0.25 0  0.15 0.25 0  0.175 0.25 0  0.2 0.25 0  0.225 0.25 0  0.25 0.25 0  0.275 0.25 0  0.3 0.25 0  0.325 0.25 0  0.35 0.25 0  0.375 0.25 0  0.4 0.25 0  0.425 0.25 0  0.45 0.25 0  0.475 0.25 0  0.5 0.25 0  0.525 0.25 0  0.55 0.25 0  0.575 0.25 0  0.6 0.25 0  0.625 0.25 0  0.65 0.25 0  0.675 0.25 0  0.7 0.25 0  0.725 0.25 0  0.75 0.25 0  0.775 0.25 0  0.8 0.25 0  0.825 0.25 0  0.85 0.25 0  0.875 0.25 0  0.9 0.25 0  0.925 0.25 0  0.95 0.25 0  0.975 0.25 0  1 0.25 0  0 0.275 0  0.025 0.275 0  0.05 0.275 0  0.075 0.275 0  0.1 0.275 0  0.125 0.275 0  0.15 0.275 0  0.175 0.275 0  0.2 0.275 0  0.225 0.275 0  0.25 0.275 0  0.275 0.275 0  0.3 0.275 0  0.325 0.275 0  0.35 0.275 0  0.375 0.275 0  0.4 0.275 0  0.425 0.275 0  0.45 0.275 0  0.475 0.275 0  0.5 0.275 0  0.525 0.275 0  0.55 0.275 0  0.575 0.275 0  0.6 0.275 0  0.625 0.275 0  0.65 0.275 0  0.675 0.275 0  0.7 0.275 0  0.725 0.275 0  0.75 0.275 0  0.775 0.275 0  0.8 0.275 0  0.825 0.275 0  0.85 0.275 0  0.875 0.275 0  0.9 0.275 0  0.925 0.275 0  0.95 0.275 0  0.975 0.275 0  1 0.275 0  0 0.3 0  0.025 0.3 0  0.05 0.3 0  0.075 0.3 0  0.1 0.3 0  0.125 0.3 0  0.15 0.3 0  0.175 0.3 0  0.2 0.3 0  0.225 0.3 0  0.25 0.3 0  0.275 0.3 0  0.3 0.3 0  0.325 0.3 0  0.35 0.3 0  0.375 0.3 0  0.4 0.3 0  0.425 0.3 0  0.45 0.3 0  0.475 0.3 0  0.5 0.3 0  0.525 0.3 0  0.55 0.3 0  0.575 0.3 0  0.6 0.3 0  0.625 0.3 0  0.65 0.3 0  0.675 0.3 0  0.7 0.3 0  0.725 0.3 0  0.75 0.3 0  0.775 0.3 0  0.8 0.3 0  0.825 0.3 0  0.85 0.3 0  0.875 0.3 0  0.9 0.3 0  0.925 0.3 0  0.95 0.3 0  0.975 0.3 0  1 0.3 0  0 0.325 0  0.025 0.325 0  0.05 0.325 0  0.075 0.325 0  0.1 0.325 0  0.125 0.325 0  0.15 0.325 0  0.175 0.325 0  0.2 0.325 0  0.225 0.325 0  0.25 0.325 0  0.275 0.325 0  0.3 0.325 0  0.325 0.325 0  0.35 0.325 0  0.375 0.325 0  0.4 0.325 0  0.425 0.325 0  0.45 0.325 0  0.475 0.325 0  0.5 0.325 0  0.525 0.325 0  0.55 0.325 0  0.575 0.325 0  0.6 0.325 0  0.625 0.325 0  0.65 0.325 0  0.675 0.325 0  0.7 0.325 0  0.725 0.325 0  0.75 0.325 0  0.775 0.325 0  0.8 0.325 0  0.825 0.325 0  0.85 0.325 0  0.875 0.325 0  0.9 0.325 0  0.925 0.325 0  0.95 0.325 0  0.975 0.325 0  1 0.325 0  0 0.35 0  0.025 0.35 0  0.05 0.35 0  0.075 0.35 0  0.1 0.35 0  0.125 0.35 0  0.15 0.35 0  0.175 0.35 0  0.2 0.35 0  0.225 0.35 0  0.25 0.35 0  0.275 0.35 0  0.3 0.35 0  0.325 0.35 0  0.35 0.35 0  0.375 0.35 0  0.4 0.35 0  0.425 0.35 0  0.45 0.35 0  0.475 0.35 0  0.5 0.35 0  0.525 0.35 0  0.55 0.35 0  0.575 0.35 0  0.6 0.35 0  0.625 0.35 0  0.65 0.35 0  0.675 0.35 0  0.7 0.35 0  0.725 0.35 0  0.75 0.35 0  0.775 0.35 0  0.8 0.35 0  0.825 0.35 0  0.85 0.35 0  0.875 0.35 0  0.9 0.35 0  0.925 0.35 0  0.95 0.35 0  0.975 0.35 0  1 0.35 0  0 0.375 0  0.025 0.375 0  0.05 0.375 0  0.075 0.375 0  0.1 0.375 0  0.125 0.375 0  0.15 0.375 0  0.175 0.375 0  0.2 0.375 0  0.225 0.375 0  0.25 0.375 0  0.275 0.375 0  0.3 0.375 0  0.325 0.375 0  0.35 0.375 0  0.375 0.375 0  0.4 0.375 0  0.425 0.375 0  0.45 0.375 0  0.475 0.375 0  0.5 0.375 0  0.525 0.375 0  0.55 0.375 0  0.575 0.375 0  0.6 0.375 0  0.625 0.375 0  0.65 0.375 0  0.675 0.375 0  0.7 0.375 0  0.725 0.375 0  0.75 0.375 0  0.775 0.375 0  0.8 0.375 0  0.825 0.375 0  0.85 0.375 0  0.875 0.375 0  0.9 0.375 0  0.925 0.375 0  0.95 0.375 0  0.975 0.375 0  1 0.375 0  0 0.4 0  0.025 0.4 0  0.05 0.4 0  0.075 0.4 0  0.1 0.4 0  0.125 0.4 0  0.15 0.4 0  0.175 0.4 0  0.2 0.4 0  0.225 0.4 0  0.25 0.4 0  0.275 0.4 0  0.3 0.4 0  0.325 0.4 0  0.35 0.4 0  0.375 0.4 0  0.4 0.4 0  0.425 0.4 0  0.45 0.4 0  0.475 0.4 0  0.5 0.4 0  0.525 0.4 0  0.55 0.4 0  0.575 0.4 0  0.6 0.4 0  0.625 0.4 0  0.65 0.4 0  0.675 0.4 0  0.7 0.4 0  0.725 0.4 0  0.75 0.4 0  0.775 0.4 0  0.8 0.4 0  0.825 0.4 0  0.85 0.4 0  0.875 0.4 0  0.9 0.4 0  0.925 0.4 0  0.95 0.4 0  0.975 0.4 0  1 0.4 0  0 0.425 0  0.025 0.425 0  0.05 0.425 0  0.075 0.425 0  0.1 0.425 0  0.125 0.425 0  0.15 0.425 0  0.175 0.425 0  0.2 0.425 0  0.225 0.425 0  0.25 0.425 0  0.275 0.425 0  0.3 0.425 0  0.325 0.425 0  0.35 0.425 0  0.375 0.425 0  0.4 0.425 0  0.425 0.425 0  0.45 0.425 0  0.475 0.425 0  0.5 0.425 0  0.525 0.425 0  0.55 0.425 0  0.575 0.425 0  0.6 0.425 0  0.625 0.425 0  0.65 0.425 0  0.675 0.425 0  0.7 0.425 0  0.725 0.425 0  0.75 0.425 0  0.775 0.425 0  0.8 0.425 0  0.825 0.425 0  0.85 0.425 0  0.875 0.425 0  0.9 0.425 0  0.925 0.425 0  0.95 0.425 0  0.975 0.425 0  1 0.425 0  0 0.45 0  0.02
[...]
<PointData  Scalars="ControlVisualisation"> 
<DataArray  type="Float64"  Name="ControlVisualisation"  format="ascii">3.5996106761667057e-01  3.5994116101472401e-01  3.5995078845532136e-01  3.5998051360146643e-01  3.6002499461481086e-01  3.6007346932050277e-01  3.6011747009740341e-01  3.6015265683216952e-01  3.6017806441600758e-01  3.6019468740614896e-01  3.6020431881762327e-01  3.6020884572611561e-01  3.6020991885063003e-01  3.6020884980980966e-01  3.6020662111937302e-01  3.6020393965130038e-01  3.6020129827058966e-01  3.6019903052735103e-01  3.6019735356749860e-01  3.6019639894817912e-01  3.6019623257915423e-01  3.6019686513502180e-01  3.6019825380169912e-01  3.6020029551681698e-01  3.6020281113008579e-01  3.6020551930982919e-01  3.6020799883253418e-01  3.6020963872255957e-01  3.6020957870497688e-01  3.6020664987289092e-01  3.6019934103588463e-01  3.6018584221471672e-01  3.6016426313454081e-01  3.6013315628610570e-01  3.6009247537234046e-01  3.6004497202643038e-01  3.5999736246382813e-01  3.5995996997074964e-01  3.5994205307301547e-01  3.5994092664963856e-01  3.5998070556906292e-01  3.5994091744765111e-01  3.5991869158738321e-01  3.6007395394710123e-01  3.6039684930974047e-01  3.6085162172430313e-01  3.6134626433939876e-01  3.6179941679962174e-01  3.6216663198651589e-01  3.6243619806691385e-01  3.6261640821802804e-01  3.6272427928638490e-01  3.6277840817378759e-01  3.6279544557634674e-01  3.6278886447851866e-01  3.6276891864267130e-01  3.6274309489306128e-01  3.6271668957054237e-01  3.6269334168281531e-01  3.6267546266347789e-01  3.6266455239954409e-01  3.6266140992244894e-01  3.6266625068968666e-01  3.6267873909857279e-01  3.6269793890142515e-01  3.6272217761723557e-01  3.6274881541937870e-01  3.6277390666554576e-01  3.6279174802077363e-01  3.6279433027402286e-01  3.6277076988344142e-01  3.6270691737736521e-01  3.6258556206023307e-01  3.6238801673323706e-01  3.6209819883285144e-01  3.6171062839245727e-01  3.6124238524901114e-01  3.6074501616811094e-01  3.6030559673087031e-01  3.6001261296347603e-01  3.5989113843109166e-01  3.5994087633799321e-01  3.5994970676992527e-01  3.6008952145310169e-01  3.6059884319474367e-01  3.6135821356389330e-01  3.6231055552306818e-01  3.6330724148372290e-01  3.6420414623507974e-01  3.6492235037017584e-01  3.6544398176526677e-01  3.6578827740322784e-01  3.6599009015107670e-01  3.6608655346754188e-01  3.6611062260728211e-01  3.6608889309591042e-01  3.6604161291675891e-01  3.6598359557394289e-01  3.6592535206687715e-01  3.6587413284253273e-01  3.6583476886793542e-01  3.6581029314099262e-01  3.6580235896973373e-01  3.6581147814049053e-01  3.6583709608933107e-01  3.6587751003587643e-01  3.6592962355880054e-01  3.6598851999991366e-01  3.6604683125634896e-01  3.6609388577752539e-01  3.6611465545457900e-01  3.6608861587074576e-01  3.6598883387978609e-01  3.6578198506929394e-01  3.6543061429402768e-01  3.6489973770385536e-01  3.6417067421372062e-01  3.6326238050745013e-01  3.6225600724932594e-01  3.6129608584126521e-01  3.6052400657121547e-01  3.6001664189222765e-01  3.5994120864745827e-01  3.5998479468622374e-01  3.6054278271730250e-01  3.6165222394326202e-01  3.6277968481027884e-01  3.6392983093749720e-01  3.6503218430320034e-01  3.6597492853016750e-01  3.6669831829825000e-01  3.6719929080449165e-01  3.6750820948671348e-01  3.6766756574835641e-01  3.6771944897564357e-01  3.6769993733838369e-01  3.6763757173189926e-01  3.6755380492004092e-01  3.6746419039160771e-01  3.6737968710778723e-01  3.6730781129072021e-01  3.6725354875372274e-01  3.6722002315739916e-01  3.6720894456504072e-01  3.6722086600206744e-01  3.6725526761667776e-01  3.6731047539852585e-01  3.6738340756731835e-01  3.6746912893260963e-01  3.6756018498282950e-01  3.6764568986536078e-01  3.6771016950843527e-01  3.6773224022334389e-01  3.6768337862631761e-01  3.6752739917844496e-01  3.6722182600607861e-01  3.6672335664737959e-01  3.6600020908520559e-01  3.6505251339519623e-01  3.6393687816108117e-01  3.6275052144568587e-01  3.6154840184125914e-01  3.6038391726792002e-01  3.5995831530641670e-01  3.6006547687116519e-01  3.6150561963734434e-01  3.6374902699101364e-01  3.6522429596491851e-01  3.6625041340194947e-01  3.6706419911576904e-01  3.6769187717576712e-01  3.6812724990707990e-01  3.6838580916662245e-01  3.6850023103046509e-01  3.6850803809497262e-01  3.6844390180215847e-01  3.6833647298026578e-01  3.6820788775136115e-01  3.6807449027891914e-01  3.6794794798523534e-01  3.6783636005955833e-01  3.6774519885703766e-01  3.6767804211759081e-01  3.6763710464598454e-01  3.6762359411572249e-01  3.6763791516140837e-01  3.6767973821500688e-01  3.6774793904183184e-01  3.6784040369779231e-01  3.6795368297392639e-01  3.6808247225938573e-01  3.6821889119719714e-01  3.6835155135411979e-01  3.6846444678329376e-01  3.6853581203671437e-01  3.6853732548635426e-01  3.6843441573733809e-01  3.6818918630868885e-01  3.6776720660360063e-01  3.6714891851888065e-01  3.6632960107843465e-01  3.6524623100101239e-01  3.6361287149886029e-01  3.6121498837993543e-01  3.6000857631871491e-01  3.6022096552570693e-01  3.6376339726074630e-01  3.6808907463341445e-01  3.6964814555752407e-01  3.6990362085957812e-01  3.6987762549554659e-01  3.6979802258056155e-01  3.6968041654794381e-01  3.6952086741160239e-01  3.6932537870996202e-01  3.6910647994188311e-01  3.6887795077380481e-01  3.6865200018199956e-01  3.6843831441380304e-01  3.6824405686107575e-01  3.6807425556028861e-01  3.6793228713086790e-01  3.6782032676544990e-01  3.6773971610293898e-01  3.6769123905090279e-01  3.6767531074735044e-01  3.6769208846633639e-01  3.6774151150071116e-01  3.6782327302546641e-01  3.6793672233061475e-01  3.6808069184950809e-01  3.6825324173660096e-01  3.6845131830919459e-01  3.6867033766564666e-01  3.6890374277367688e-01  3.6914266299489951e-01  3.6937596529929634e-01  3.6959124111684583e-01  3.6977767088187058e-01  3.6993077481102876e-01  3.7005519150857458e-01  3.7011831045809290e-01  3.6981597640115998e-01  3.6788895744726208e-01  3.6295708176535169e-01  3.6009342365925590e-01  3.6150116888638556e-01  3.7068681152027527e-01  3.7774367484150051e-01  3.7751665760778230e-01  3.7545384540054721e-01  3.7368615714908088e-01  3.7240474834499426e-01  3.7146237290952777e-01  3.7073266648797654e-01  3.7014051562927625e-01  3.6964452405157938e-01  3.6922192190781339e-01  3.6885982434761527e-01  3.6855057024674104e-01  3.6828929656949694e-01  3.6807269398794495e-01  3.6789837870106329e-01  3.6776458337278567e-01  3.6767001105159719e-01  3.6761377054534594e-01  3.6759535128528392e-01  3.6761461686197211e-01  3.6767180806604005e-01  3.6776755347190077e-01  3.6790289161885170e-01  3.6807931644326608e-01  3.6829887016831347e-01  3.6856433069467820e-01  3.6887958346014110e-01  3.6925034772556897e-01  3.6968558398378815e-01  3.7020020030785539e-01  3.7082023516503299e-01  3.7159267909987048e-01  3.7260255726953095e-01  3.7399487437747064e-01  3.7593928761094936e-01  3.7822508056118259e-01  3.7817592424146179e-01  3.6914915961975037e-01  3.6047464839296733e-01  3.7512170310240311e-01  3.9457722231500258e-01  3.9776754875445458e-01  3.9008912725482703e-01  3.8302405993021893e-01  3.7835786427624091e-01  3.7536505022271383e-01  3.7336711532913658e-01  3.7196105260902834e-01  3.7092349172885825e-01  3.7012855352866031e-01  3.6950265657129960e-01  3.6900107214245581e-01  3.6859557445228130e-01  3.6826773741096958e-01  3.6800518112861086e-01  3.6779941267389804e-01  3.6764455702920174e-01  3.6753660060765081e-01  3.6747293999719627e-01  3.6745212085027573e-01  3.6747370418729824e-01  3.6753822929031849e-01  3.6764726463556546e-01  3.6780355793651665e-01  3.6801131931677011e-01  3.6827670516601285e-01  3.6860862591739063e-01  3.6902009992081547e-01  3.6953055927329481e-01  3.7016987296988502e-01  3.7098555992501403e-01  3.7205621111911341e-01  3.7351728072767221e-01  3.7561171204121624e-01  3.7878620677435187e-01  3.8382092025208575e-01  3.9163971690378147e-01  4.0045579263610437e-01  3.9672758192681540e-01  3.6726115279294413e-01  4.1679765925856382e-01  4.5033853552029879e-01  4.2906087576576496e-01  4.0614778216383318e-01  3.9165198281249947e-01  3.8327547049560190e-01  3.7829621737618407e-01  3.7515793370183936e-01  3.7306008433410587e-01  3.7158557059637942e-01  3.7050646168590040e-01  3.6969188391977209e-01  3.6906320761042993e-01  3.6857130031489954e-01  3.6818442891421860e-01  3.6788154661426714e-01  3.6764843356544302e-01  3.6747541485135721e-01  3.6735598572262224e-01  3.6728598061429479e-01  3.6726308516460404e-01  3.6728658160114530e-01  3.6735727315807171e-01  3.6747757178536344e-01  3.6765176732846128e-01  3.6788653571523011e-01  3.6819180086438852e-01  3.6858216011883405e-01  3.6907925373103251e-01  3.6971578296693702e-01  3.7054252519767961e-01  3.7164102920320630e-01  3.7314765641659181e-01  3.7530110426801372e-01  3.7854148135035603e-01  3.8372055906521169e-01  3.9251860667154970e-01  4.0796297800007908e-01  4.3280847978543124e-01  4.5775438374426947e-01  4.0164787525091739e-01  4.5808466139200144e-01  5.1231787886522429e-01  4.5921330512641834e-01  4.2079881848789680e-01  3.9921385570027101e-01  3.8741510769735515e-01  3.8066348375445430e-01  3.7653782031464900e-01  3.7385747152088356e-01  3.7202360483181435e-01  3.7071526196299842e-01  3.6975089675823242e-01  3.6902271209538923e-01  3.6846400451800737e-01  3.6803205898678476e-01  3.6769877068129425e-01  3.6744529810807808e-01  3.6725891723754944e-01  3.6713113050037438e-01  3.6705652378529136e-01  3.6703209400675468e-01  3.6705689657488239e-01  3.6713193812793865e-01  3.6726029246370423e-01  3.6744746350836704e-01  3.6770207231997826e-01  3.6803702259989396e-01  3.6847142898999335e-01  3.6903382814328251e-01  3.6976764548642116e-01  3.7074080180967645e-01  3.7206327666435324e-01  3.7392072739034238e-01  3.7664200698966621e-01  3.8084267986975417e-01  3.8773689419831808e-01  3.9981684277920393e-01  4.2205973194103791e-01  4.6202127815484534e-01  5.1770076894546535e-01  4.4733012675607009e-01  4.7084492042986964e-01  5.4176804638584652e-01  4.7466326655456154e-01  4.2877800054547366e-01  4.0346838366002941e-01  3.8975502276331114e-01  3.8196309794812133e-01  3.7724299694141583e-01  3.7420785771117354e-01  3.7215394771640342e-01  3.7070518695831689e-01  3.6964943062402084e-01  3.6886104464856628e-01  3.6826246467275070e-01  3.6780411702766935e-01  3.6745344404223368e-01  3.6718865955468605e-01  3.6699507857191793e-01  3.6686291080594957e-01  3.6678592566730961e-01  3.6676066544630204e-01  3.6678603140252886e-01  3.6686315584231688e-01  3.6699553408990648e-01  3.6718944312327179e-01  3.6745473465988704e-01  3.6780617929092790e-01  3.6826568716433639e-01  3.6886600163508854e-01  3.6965698359108912e-01  3.7071665625658418e-01  3.7217141031533835e-01  3.7423466860222054e-01  3.7728466108636299e-01  3.8202860817248191e-01  3.8985749319089563e-01  4.0361945611277944e-01  4.2895830362955994e-01  4.7469892807046354e-01  5.4134982271113352e-01  4.7067679371346327e-01  4.4805156028902621e-01  5.2286739375487135e-01  4.6907564612606195e-01  4.2747580309040190e-01  4.0324661164737557e-01  3.8973636796932942e-01  3.8192003255088591e-01  3.7713413130461793e-01  3.7403775601625977e-01  3.7193644906171597e-01  3.7045373993486197e-01  3.6937479037469390e-01  3.6857122178681517e-01  3.6796317977363108e-01  3.6749931083442688e-01  3.6714571846991878e-01  3.6687962984612743e-01  3.6668564751257748e-01  3.6655348201625820e-01  3.6647657241199927e-01  3.6645126921351234e-01  3.6647640243895752e-01  3.6655314634808100e-01  3.6668515392256401e-01  3.6687898750140713e-01  3.6714493316808772e-01  3.6749837472612368e-01  3.6796204963204371e-01  3.6856977327293183e-01  3.6937272072354160e-01  3.7045035861165571e-01  3.7193021137371307e-01  3.7402517930115858e-01  3.7710738040039965e-01  3.8186004923956429e-01  3.8959735210222735e-01  4.0291011017157519e-01  4.2652386650797347e-01  4.6630883665315565e-01  5.1670610544398210e-01  4.5848929493409030e-01  4.0279769516000635e-01  4.6642135952504837e-01  4.4517779809698449e-01  4.1770360018309416e-01  3.9883365041404006e-01  3.8747261977445824e-01  3.8058993189686624e-01  3.7624270511561941e-01  3.7336708656931755e-01  3.7138487487238170e-01  3.6997106619330944e-01  3.6893489450355488e-01  3.6815976105962417e-01  3.6757177893997522e-01  3.6712270701071614e-01  3.6678030711893855e-01  3.6652270337003079e-01  3.6633498703946998e-01  3.6620713358290108e-01  3.6613272051192686e-01  3.6610816090228765e-01  3.6613229505492956e-01  3.6620626096263176e-01  3.6633361897613559e-01  3.6652075375989634e-01  3.6677763075133807e-01  3.6711906090304397e-01  3.6756675182352161e-01  3.6815264216324073e-01  3.6892442193606600e-01  3.6995492756732007e-01  3.7135868124614924e-01  3.7332213004059178e-01  3.7616103601170831e-01  3.8043208913138205e-01  3.8714808380970395e-01  3.9812225010624597e-01  4.1604926922799251e-01  4.4147683818390160e-01  4.5867064895648235e-01  4.1774206705529071e-01  3.6829757090990145e-01  4.0606614565506066e-01  4.1474064276161482e-01  4.0348461035808403e-01  3.9181992172033564e-01  3.8367740748478846e-01  3.7832238298332221e-01  3.7475230170843310e-01  3.7229912789197328e-01  3.7056108700823642e-01  3.6929644513778420e-01  3.6835610101257149e-01  3.6764531239062515e-01  3.6710215727293438e-01  3.6668519016551038e-01  3.6636615380388504e-01  3.6612556307901173e-01  3.6594996845000349e-01  3.6583023677930060e-01  3.6576047295102476e-01  3.6573736571099602e-01  3.6575983531382655e-01  3.6582892018896562e-01  3.6594788275008483e-01  3.6612255219444878e-01  3.6636196430185308e-01  3.6667941600648857e-01  3.6709414269163837e-01  3.6763397799576342e-01  3.6833962396870173e-01  3.6927164852949529e-01  3.7052223946533275e-01  3.7223544186150820e-01  3.7464252080610194e-01  3.7812252381224759e-01  3.8329117683257907e-01  3.9102864322343034e-01  4.0184048522599169e-01  4.1181645943410183e-01  4.0386184784585533e-01  3.7629582269628975e-01  3.6107450382113199e-01  3.7620217133432299e-01  3.9096281551404710e-01  3.8993167372091642e-01  3.8435252907750345e-01  3.7934083726008855e-01  3.7561068464445529e-01  3.7292723111286202e-01  3.7098480050302712e-01  3.6955624065913073e-01  3.6848786731517763e-01  3.6767712697754784e-01  3.6705494494402668e-01  3.6657411205750468e-01  3.6620189864036357e-01  3.6591535729994590e-01  3.6569830918395491e-01  3.6553938998016128e-01  3.6543077791858741e-01  3.6536737342169845e-01  3.6534629098690641e-01  3.6536658135167527e-01  3.6542914072174459e-01  3.6553679301396014e-01  3.6569455712549609e-01  3.6591013974459063e-01  3.6619473133064245e-01  3.6656423706988461e-01  3.6704115885147448e-01  3.6765747916192509e-01  3.6845911383207353e-01  3.6951283040886512e-01  3.7091693264221776e-01  3.7281698559023879e-01  3.7542449266683187e-01  3.7901512283555910e-01  3.8378142155609779e-01  3.8902053409647930e-01  3.9030444680107212e-01  3.7799662598258199e-01  3.6232941372728611e-01  3.6051944453237267e-01  3.6806145623928366e-01  3.7818731940847111e-01  3.8016610601905659e-01  3.7805261161997866e-01  3.7529273710398070e-01  3.7290361112593090e-01  3.7102416303281360e-01  3.6957824960210023e-01  3.6846720151141549e-01  3.6760881646921473e-01  3.6694126711144376e-01  3.6641935265095849e-01  3.6601025849749896e-01  3.6569015620978179e-01  3.6544172460702412e-01  3.6525240004021664e-01  3.6511315991648174e-01  3.6501768803900603e-01  3.6496181456905408e-01  3.6494315897444307e-01  3.6496093082221198e-01  3.6501586348592996e-01  3.6511027234417143e-01  3.6524824422268964e-01  3.6543598088238843e-01  3.6568233849201970e-01  3.6599962951607673e-01  3.6640478511797486e-01  3.6692101413764389e-01  3.6758012715645344e-01  3.6842566924443437e-01  3.6951672412166930e-01  3.7093096943306408e-01  3.7276038588870558e-01  3.7507321410598021e-01  3.7774569795393659e-01  3.7986958151650507e-01  3.7837696446667585e-01  3.6918028476653864e-01  3.6071742852520938e-01  3.6036504802382846e-01  3.6532467084179610e-01  3.7200930418678807e-01  3.7406689209394595e-01  3.7339105020181707e-01  3.7193862873777755e-01  3.7048182121920414e-01  3.6922867403279608e-01  3.6820258014512608e-01  3.6737708192772239e-01  3.6671672682586193e-01  3.6618928040522419e-01  3.6576830208645600e-01  3.6543300765558118e-01  3.6516739010123944e-01  3.6495927958503427e-01  3.6479953690467631e-01  3.6468142027748490e-01  3.6460011304358869e-01  3.6455238754567937e-01  3.6453638182581516e-01  3.6455147153942191e-01  3.6459822632958322e-01  3.6467844674344346e-01  3.6479528446944243e-01  3.6495345528500928e-01  3.6515956043463060e-01  3.6542253709709399e-01  3.6575425869874190e-01  3.6617029183718774e-01  3.6669076442368537e-01  3.6734114493350556e-01  3.6815229173702063e-01  3.6915783616220071e-01  3.7038295521181436e-01  3.7180594439151965e-01  3.7323595057053638e-01  3.7396822576825184e-01  3.7216311666446639e-01  3.6578539379149061e-01  3.6046732059744885e-01  3.6024885707782528e-01  3.6373243738776012e-01  3.6845378963098913e-01  3.7019113187006475e-01  3.7007210241519267e-01  3.6931772953621766e-01  3.6844876395706172e-01  3.6763858010155537e-01  3.6693592864432562e-01  3.6634513807782149e-01  3.6585598837576272e-01  3.6545457878344600e-01  3.6512729231326657e-01  3.6486220610298581e-01  3.6464942240939863e-01  3.6448098911047572e-01  3.6435067976274849e-01  3.6425375300539170e-01  3.6418673955135739e-01  3.6414727399609864e-01  3.6413397539656489e-01  3.6414637582002168e-01  3.6418489518875191e-01  3.6425086151001324e-01  3.6434657677464199e-01  3.6447542951055562e-01  3.6464205399824234e-01  3.6485253131860146e-01  3.6511461433410536e-01  3.6543792833151789e-01  3.6583403201105252e-01  3.6631607577676706e-01  3.6689745439566579e-01  3.6758799918202495e-01  3.6838388284631879e-01  3.6924029764931665e-01  3.6999529994663977e-01  3.7016969583837506e-01  3.6859945108461079e-01  3.6404757866105147e-01  3.6031373423838814e-01  3.6017271239368048e-01  3.6274067364826584e-01  3.6623235194910264e-01  3.6761635524982045e-01  3.6769892668848814e-01  3.6731028795425286e-01  3.6679644637772640e-01  3.6628326475104611e-01  3.6581535731036430e-01  3.6540594445891433e-01  3.6505593553303112e-01  3.6476118463492979e-01  3.6451580813039958e-01  3.6431372455176786e-01  3.6414934758872247e-01  3.6401786581598350e-01  3.6391531647217734e-01  3.6383856651089141e-01  3.6378525894249658e-01  3.6375375442156799e-01  3.6374308281864226e-01  3.6375291166806245e-01  3.6378353435749772e-01  3.6383587874965967e-01  3.6391153530321241e-01  3.6401280161191174e-01  3.6414273634923866e-01  3.6430520798495769e-01  3.6450490911246319e-01  3.6474728012097263e-01  3.6503823581561295e-01  3.6538349399544401e-01  3.6578711204051750e-01  3.6624837719642817e-01  3.6675486249496281e-01  3.6726512623385815e-01  3.6766082712673509e-01  3.6761448091036270e-01  3.6633099322947310e-01  3.6294026380800110e-01  3.6021612481650317e-01  3.6011870172598642e-01  3.6205478383662981e-01  3.6470550775808602e-01  3.6580890830492063e-01  3.6596620189748208e-01  3.6577263886602240e-01  3.6547172165118091e-01  3.6515265485931248e-01  3.6484910025259815e-01  3.6457421217653319e-01  3.6433242418833250e-01  3.6412395126798602e-01  3.6394700996918522e-01  3.6379897516724086e-01  3.6367702593197265e-01  3.6357849289883343e-01  3.6350103313699489e-01  3.6344270855926891e-01  3.6340201289002855e-01  3.6337787415286088e-01  3.6336964812971645e-01  3.6337711131655326e-01  3.6340045757029260e-01  3.6344029969514369e-01  3.6349767470821015e-01  3.6357404863098469e-01  3.6367131246476508e-01  3.6379175433393718e-01  3.6393798193170068e-01  3.6411275190995812e-01  3.6431863481677979e-01  3.6455739739096754e-01  3.6482889178399219e-01  3.6512899420953432e-01  3.6544528274215793e-01  3.6574601269863283e-01  3.6594734814122548e-01  3.6581741069714147e-01  3.6477960966692458e-01  3.6219385119553882e-01  3.6014959842290828e-01  3.6007912173818313e-01  3.6156223131134624e-01  3.6361451430706365e-01  3.6449804691757270e-01  3.6467271040308075e-01  3.6458494065665198e-01  3.6441293963768456e-01  3.6421964016906122e-01  3.640289572