<?xml version="1.0"?>
<VTKFile type="UnstructuredGrid"  version="0.1"  >
<UnstructuredGrid>
<Piece  NumberOfPoints="1681" NumberOfCells="3200">
<Points>
<DataArray  type="Float64"  NumberOfComponents="3"  format="ascii">0 0 0  0.025 0 0  0.05 0 0  0.075 0 0  0.1 0 0  0.125 0 0  0.15 0 0  0.175 0 0  0.2 0 0  0.225 0 0  0.25 0 0  0.275 0 0  0.3 0 0  0.325 0 0  0.35 0 0  0.375 0 0  0.4 0 0  0.425 0 0  0.45 0 0  0.475 0 0  0.5 0 0  0.525 0 0  0.55 0 0  0.575 0 0  0.6 0 0  0.625 0 0  0.65 0 0  0.675 0 0  0.7 0 0  0.725 0 0  0.75 0 0  0.775 0 0  0.8 0 0  0.825 0 0  0.85 0 0  0.875 0 0  0.9 0 0  0.925 0 0  0.95 0 0  0.975 0 0  1 0 0  0 0.025 0  0.025 0.025 0  0.05 0.025 0  0.075 0.025 0  0.1 0.025 0  0.125 0.025 0  0.15 0.025 0  0.175 0.025 0  0.2 0.025 0  0.225 0.025 0  0.25 0.025 0  0.275 0.025 0  0.3 0.025 0  0.325 0.025 0  0.35 0.025 0  0.375 0.025 0  0.4 0.025 0  0.425 0.025 0  0.45 0.025 0  0.475 0.025 0  0.5 0.025 0  0.525 0.025 0  0.55 0.025 0  0.575 0.025 0  0.6 0.025 0  0.625 0.025 0  0.65 0.025 0  0.675 0.025 0  0.7 0.025 0  0.725 0.025 0  0.75 0.025 0  0.775 0.025 0  0.8 0.025 0  0.825 0.025 0  0.85 0.025 0  0.875 0.025 0  0.9 0.025 0  0.925 0.025 0  0.95 0.025 0  0.975 0.025 0  1 0.025 0  0 0.05 0  0.025 0.05 0  0.05 0.05 0  0.075 0.05 0  0.1 0.05 0  0.125 0.05 0  0.15 0.05 0  0.175 0.05 0  0.2 0.05 0  0.225 0.05 0  0.25 0.05 0  0.275 0.05 0  0.3 0.05 0  0.325 0.05 0  0.35 0.05 0  0.375 0.05 0  0.4 0.05 0  0.425 0.05 0  0.45 0.05 0  0.475 0.05 0  0.5 0.05 0  0.525 0.05 0  0.55 0.05 0  0.575 0.05 0  0.6 0.05 0  0.625 0.05 0  0.65 0.05 0  0.675 0.05 0  0.7 0.05 0  0.725 0.05 0  0.75 0.05 0  0.775 0.05 0  0.8 0.05 0  0.825 0.05 0  0.85 0.05 0  0.875 0.05 0  0.9 0.05 0  0.925 0.05 0  0.95 0.05 0  0.975 0.05 0  1 0.05 0  0 0.075 0  0.025 0.075 0  0.05 0.075 0  0.075 0.075 0  0.1 0.075 0  0.125 0.075 0  0.15 0.075 0  0.175 0.075 0  0.2 0.075 0  0.225 0.075 0  0.25 0.075 0  0.275 0.075 0  0.3 0.075 0  0.325 0.075 0  0.35 0.075 0  0.375 0.075 0  0.4 0.075 0  0.425 0.075 0  0.45 0.075 0  0.475 0.075 0  0.5 0.075 0  0.525 0.075 0  0.55 0.075 0  0.575 0.075 0  0.6 0.075 0  0.625 0.075 0  0.65 0.075 0  0.675 0.075 0  0.7 0.075 0  0.725 0.075 0  0.75 0.075 0  0.775 0.075 0  0.8 0.075 0  0.825 0.075 0  0.85 0.075 0  0.875 0.075 0  0.9 0.075 0  0.925 0.075 0  0.95 0.075 0  0.975 0.075 0  1 0.075 0  0 0.1 0  0.025 0.1 0  0.05 0.1 0  0.075 0.1 0  0.1 0.1 0  0.125 0.1 0  0.15 0.1 0  0.175 0.1 0  0.2 0.1 0  0.225 0.1 0  0.25 0.1 0  0.275 0.1 0  0.3 0.1 0  0.325 0.1 0  0.35 0.1 0  0.375 0.1 0  0.4 0.1 0  0.425 0.1 0  0.45 0.1 0  0.475 0.1 0  0.5 0.1 0  0.525 0.1 0  0.55 0.1 0  0.575 0.1 0  0.6 0.1 0  0.625 0.1 0  0.65 0.1 0  0.675 0.1 0  0.7 0.1 0  0.725 0.1 0  0.75 0.1 0  0.775 0.1 0  0.8 0.1 0  0.825 0.1 0  0.85 0.1 0  0.875 0.1 0  0.9 0.1 0  0.925 0.1 0  0.95 0.1 0  0.975 0.1 0  1 0.1 0  0 0.125 0  0.025 0.125 0  0.05 0.125 0  0.075 0.125 0  0.1 0.125 0  0.125 0.125 0  0.15 0.125 0  0.175 0.125 0  0.2 0.125 0  0.225 0.125 0  0.25 0.125 0  0.275 0.125 0  0.3 0.125 0  0.325 0.125 0  0.35 0.125 0  0.375 0.125 0  0.4 0.125 0  0.425 0.125 0  0.45 0.125 0  0.475 0.125 0  0.5 0.125 0  0.525 0.125 0  0.55 0.125 0  0.575 0.125 0  0.6 0.125 0  0.625 0.125 0  0.65 0.125 0  0.675 0.125 0  0.7 0.125 0  0.725 0.125 0  0.75 0.125 0  0.775 0.125 0  0.8 0.125 0  0.825 0.125 0  0.85 0.125 0  0.875 0.125 0  0.9 0.125 0  0.925 0.125 0  0.95 0.125 0  0.975 0.125 0  1 0.125 0  0 0.15 0  0.025 0.15 0  0.05 0.15 0  0.075 0.15 0  0.1 0.15 0  0.125 0.15 0  0.15 0.15 0  0.175 0.15 0  0.2 0.15 0  0.225 0.15 0  0.25 0.15 0  0.275 0.15 0  0.3 0.15 0  0.325 0.15 0  0.35 0.15 0  0.375 0.15 0  0.4 0.15 0  0.425 0.15 0  0.45 0.15 0  0.475 0.15 0  0.5 0.15 0  0.525 0.15 0  0.55 0.15 0  0.575 0.15 0  0.6 0.15 0  0.625 0.15 0  0.65 0.15 0  0.675 0.15 0  0.7 0.15 0  0.725 0.15 0  0.75 0.15 0  0.775 0.15 0  0.8 0.15 0  0.825 0.15 0  0.85 0.15 0  0.875 0.15 0  0.9 0.15 0  0.925 0.15 0  0.95 0.15 0  0.975 0.15 0  1 0.15 0  0 0.175 0  0.025 0.175 0  0.05 0.175 0  0.075 0.175 0  0.1 0.175 0  0.125 0.175 0  0.15 0.175 0  0.175 0.175 0  0.2 0.175 0  0.225 0.175 0  0.25 0.175 0  0.275 0.175 0  0.3 0.175 0  0.325 0.175 0  0.35 0.175 0  0.375 0.175 0  0.4 0.175 0  0.425 0.175 0  0.45 0.175 0  0.475 0.175 0  0.5 0.175 0  0.525 0.175 0  0.55 0.175 0  0.575 0.175 0  0.6 0.175 0  0.625 0.175 0  0.65 0.175 0  0.675 0.175 0  0.7 0.175 0  0.725 0.175 0  0.75 0.175 0  0.775 0.175 0  0.8 0.175 0  0.825 0.175 0  0.85 0.175 0  0.875 0.175 0  0.9 0.175 0  0.925 0.175 0  0.95 0.175 0  0.975 0.175 0  1 0.175 0  0 0.2 0  0.025 0.2 0  0.05 0.2 0  0.075 0.2 0  0.1 0.2 0  0.125 0.2 0  0.15 0.2 0  0.175 0.2 0  0.2 0.2 0  0.225 0.2 0  0.25 0.2 0  0.275 0.2 0  0.3 0.2 0  0.325 0.2 0  0.35 0.2 0  0.375 0.2 0  0.4 0.2 0  0.425 0.2 0  0.45 0.2 0  0.475 0.2 0  0.5 0.2 0  0.525 0.2 0  0.55 0.2 0  0.575 0.2 0  0.6 0.2 0  0.625 0.2 0  0.65 0.2 0  0.675 0.2 0  0.7 0.2 0  0.725 0.2 0  0.75 0.2 0  0.775 0.2 0  0.8 0.2 0  0.825 0.2 0  0.85 0.2 0  0.875 0.2 0  0.9 0.2 0  0.925 0.2 0  0.95 0.2 0  0.975 0.2 0  1 0.2 0  0 0.225 0  0.025 0.225 0  0.05 0.225 0  0.075 0.225 0  0.1 0.225 0  0.125 0.225 0  0.15 0.225 0  0.175 0.225 0  0.2 0.225 0  0.225 0.225 0  0.25 0.225 0  0.275 0.225 0  0.3 0.225 0  0.325 0.225 0  0.35 0.225 0  0.375 0.225 0  0.4 0.225 0  0.425 0.225 0  0.45 0.225 0  0.475 0.225 0  0.5 0.225 0  0.525 0.225 0  0.55 0.225 0  0.575 0.225 0  0.6 0.225 0  0.625 0.225 0  0.65 0.225 0  0.675 0.225 0  0.7 0.225 0  0.725 0.225 0  0.75 0.225 0  0.775 0.225 0  0.8 0.225 0  0.825 0.225 0  0.85 0.225 0  0.875 0.225 0  0.9 0.225 0  0.925 0.225 0  0.95 0.225 0  0.975 0.225 0  1 0.225 0  0 0.25 0  0.025 0.25 0  0.05 0.25 0  0.075 0.25 0  0.1 0.25 0  0.125 0.25 0  0.15 0.25 0  0.175 0.25 0  0.2 0.25 0  0.225 0.25 0  0.25 0.25 0  0.275 0.25 0  0.3 0.25 0  0.325 0.25 0  0.35 0.25 0  0.375 0.25 0  0.4 0.25 0  0.425 0.25 0  0.45 0.25 0  0.475 0.25 0  0.5 0.25 0  0.525 0.25 0  0.55 0.25 0  0.575 0.25 0  0.6 0.25 0  0.625 0.25 0  0.65 0.25 0  0.675 0.25 0  0.7 0.25 0  0.725 0.25 0  0.75 0.25 0  0.775 0.25 0  0.8 0.25 0  0.825 0.25 0  0.85 0.25 0  0.875 0.25 0  0.9 0.25 0  0.925 0.25 0  0.95 0.25 0  0.975 0.25 0  1 0.25 0  0 0.275 0  0.025 0.275 0  0.05 0.275 0  0.075 0.275 0  0.1 0.275 0  0.125 0.275 0  0.15 0.275 0  0.175 0.275 0  0.2 0.275 0  0.225 0.275 0  0.25 0.275 0  0.275 0.275 0  0.3 0.275 0  0.325 0.275 0  0.35 0.275 0  0.375 0.275 0  0.4 0.275 0  0.425 0.275 0  0.45 0.275 0  0.475 0.275 0  0.5 0.275 0  0.525 0.275 0  0.55 0.275 0  0.575 0.275 0  0.6 0.275 0  0.625 0.275 0  0.65 0.275 0  0.675 0.275 0  0.7 0.275 0  0.725 0.275 0  0.75 0.275 0  0.775 0.275 0  0.8 0.275 0  0.825 0.275 0  0.85 0.275 0  0.875 0.275 0  0.9 0.275 0  0.925 0.275 0  0.95 0.275 0  0.975 0.275 0  1 0.275 0  0 0.3 0  0.025 0.3 0  0.05 0.3 0  0.075 0.3 0  0.1 0.3 0  0.125 0.3 0  0.15 0.3 0  0.175 0.3 0  0.2 0.3 0  0.225 0.3 0  0.25 0.3 0  0.275 0.3 0  0.3 0.3 0  0.325 0.3 0  0.35 0.3 0  0.375 0.3 0  0.4 0.3 0  0.425 0.3 0  0.45 0.3 0  0.475 0.3 0  0.5 0.3 0  0.525 0.3 0  0.55 0.3 0  0.575 0.3 0  0.6 0.3 0  0.625 0.3 0  0.65 0.3 0  0.675 0.3 0  0.7 0.3 0  0.725 0.3 0  0.75 0.3 0  0.775 0.3 0  0.8 0.3 0  0.825 0.3 0  0.85 0.3 0  0.875 0.3 0  0.9 0.3 0  0.925 0.3 0  0.95 0.3 0  0.975 0.3 0  1 0.3 0  0 0.325 0  0.025 0.325 0  0.05 0.325 0  0.075 0.325 0  0.1 0.325 0  0.125 0.325 0  0.15 0.325 0  0.175 0.325 0  0.2 0.325 0  0.225 0.325 0  0.25 0.325 0  0.275 0.325 0  0.3 0.325 0  0.325 0.325 0  0.35 0.325 0  0.375 0.325 0  0.4 0.325 0  0.425 0.325 0  0.45 0.325 0  0.475 0.325 0  0.5 0.325 0  0.525 0.325 0  0.55 0.325 0  0.575 0.325 0  0.6 0.325 0  0.625 0.325 0  0.65 0.325 0  0.675 0.325 0  0.7 0.325 0  0.725 0.325 0  0.75 0.325 0  0.775 0.325 0  0.8 0.325 0  0.825 0.325 0  0.85 0.325 0  0.875 0.325 0  0.9 0.325 0  0.925 0.325 0  0.95 0.325 0  0.975 0.325 0  1 0.325 0  0 0.35 0  0.025 0.35 0  0.05 0.35 0  0.075 0.35 0  0.1 0.35 0  0.125 0.35 0  0.15 0.35 0  0.175 0.35 0  0.2 0.35 0  0.225 0.35 0  0.25 0.35 0  0.275 0.35 0  0.3 0.35 0  0.325 0.35 0  0.35 0.35 0  0.375 0.35 0  0.4 0.35 0  0.425 0.35 0  0.45 0.35 0  0.475 0.35 0  0.5 0.35 0  0.525 0.35 0  0.55 0.35 0  0.575 0.35 0  0.6 0.35 0  0.625 0.35 0  0.65 0.35 0  0.675 0.35 0  0.7 0.35 0  0.725 0.35 0  0.75 0.35 0  0.775 0.35 0  0.8 0.35 0  0.825 0.35 0  0.85 0.35 0  0.875 0.35 0  0.9 0.35 0  0.925 0.35 0  0.95 0.35 0  0.975 0.35 0  1 0.35 0  0 0.375 0  0.025 0.375 0  0.05 0.375 0  0.075 0.375 0  0.1 0.375 0  0.125 0.375 0  0.15 0.375 0  0.175 0.375 0  0.2 0.375 0  0.225 0.375 0  0.25 0.375 0  0.275 0.375 0  0.3 0.375 0  0.325 0.375 0  0.35 0.375 0  0.375 0.375 0  0.4 0.375 0  0.425 0.375 0  0.45 0.375 0  0.475 0.375 0  0.5 0.375 0  0.525 0.375 0  0.55 0.375 0  0.575 0.375 0  0.6 0.375 0  0.625 0.375 0  0.65 0.375 0  0.675 0.375 0  0.7 0.375 0  0.725 0.375 0  0.75 0.375 0  0.775 0.375 0  0.8 0.375 0  0.825 0.375 0  0.85 0.375 0  0.875 0.375 0  0.9 0.375 0  0.925 0.375 0  0.95 0.375 0  0.975 0.375 0  1 0.375 0  0 0.4 0  0.025 0.4 0  0.05 0.4 0  0.075 0.4 0  0.1 0.4 0  0.125 0.4 0  0.15 0.4 0  0.175 0.4 0  0.2 0.4 0  0.225 0.4 0  0.25 0.4 0  0.275 0.4 0  0.3 0.4 0  0.325 0.4 0  0.35 0.4 0  0.375 0.4 0  0.4 0.4 0  0.425 0.4 0  0.45 0.4 0  0.475 0.4 0  0.5 0.4 0  0.525 0.4 0  0.55 0.4 0  0.575 0.4 0  0.6 0.4 0  0.625 0.4 0  0.65 0.4 0  0.675 0.4 0  0.7 0.4 0  0.725 0.4 0  0.75 0.4 0  0.775 0.4 0  0.8 0.4 0  0.825 0.4 0  0.85 0.4 0  0.875 0.4 0  0.9 0.4 0  0.925 0.4 0  0.95 0.4 0  0.975 0.4 0  1 0.4 0  0 0.425 0  0.025 0.425 0  0.05 0.425 0  0.075 0.425 0  0.1 0.425 0  0.125 0.425 0  0.15 0.425 0  0.175 0.425 0  0.2 0.425 0  0.225 0.425 0  0.25 0.425 0  0.275 0.425 0  0.3 0.425 0  0.325 0.425 0  0.35 0.425 0  0.375 0.425 0  0.4 0.425 0  0.425 0.425 0  0.45 0.425 0  0.475 0.425 0  0.5 0.425 0  0.525 0.425 0  0.55 0.425 0  0.575 0.425 0  0.6 0.425 0  0.625 0.425 0  0.65 0.425 0  0.675 0.425 0  0.7 0.425 0  0.725 0.425 0  0.75 0.425 0  0.775 0.425 0  0.8 0.425 0  0.825 0.425 0  0.85 0.425 0  0.875 0.425 0  0.9 0.425 0  0.925 0.425 0  0.95 0.425 0  0.975 0.425 0  1 0.425 0  0 0.45 0  0.02
[...]
<PointData  Scalars="ControlVisualisation"> 
<DataArray  type="Float64"  Name="ControlVisualisation"  format="ascii">4.1891531030069085e-01  4.0293419788693202e-01  4.0293519689922941e-01  4.0294248177359543e-01  4.0295736527972420e-01  4.0297948541745232e-01  4.0300824393014140e-01  4.0304304713573974e-01  4.0308328863976256e-01  4.0312832508076124e-01  4.0317748123310926e-01  4.0323006735526468e-01  4.0328539914028438e-01  4.0334281566240637e-01  4.0340169326522429e-01  4.0346145444459941e-01  4.0352157111769893e-01  4.0358156171929405e-01  4.0364098140975285e-01  4.0369940431767048e-01  4.0375639616015535e-01  4.0381147476866358e-01  4.0386405501277234e-01  4.0391337345515449e-01  4.0395838707510562e-01  4.0399764027224461e-01  4.0402909661362985e-01  4.0404993961740321e-01  4.0405636572482551e-01  4.0404343265328280e-01  4.0400510118763450e-01  4.0393472104702616e-01  4.0382638064100690e-01  4.0367757834311507e-01  4.0349341789447074e-01  4.0329163388534794e-01  4.0310461793462521e-01  4.0297309177927987e-01  4.0292305833976205e-01  4.0292947985987515e-01  4.3501553120526337e-01  4.0293419097574529e-01  3.5582692601433730e-01  3.5587003570197162e-01  3.5597759541202534e-01  3.5616566038720615e-01  3.5643452523293784e-01  3.5677866086399668e-01  3.5719135785194267e-01  3.5766544452218713e-01  3.5819333078900872e-01  3.5876711634957037e-01  3.5937877799389112e-01  3.6002038163223321e-01  3.6068427393095537e-01  3.6136323139660242e-01  3.6205055578691220e-01  3.6274010934666534e-01  3.6342628474116268e-01  3.6410390358537259e-01  3.6476803443172984e-01  3.6541371594740418e-01  3.6603556375567514e-01  3.6662723023704719e-01  3.6718067640047553e-01  3.6768520620664980e-01  3.6812621231679876e-01  3.6848360052878310e-01  3.6872992344485173e-01  3.6882840623855534e-01  3.6873137156725611e-01  3.6838016241570470e-01  3.6770864416560212e-01  3.6665374870392764e-01  3.6517726516962062e-01  3.6330258452413106e-01  3.6116129483242559e-01  3.5902391291791763e-01  3.5726654131236307e-01  3.5619464981002014e-01  3.5581185073739613e-01  4.0292928436167624e-01  4.0293514656105772e-01  3.5587019391412966e-01  3.5603080376717472e-01  3.5631655182331778e-01  3.5676203801630763e-01  3.5737954420328827e-01  3.5816274215795996e-01  3.5909850704628704e-01  3.6017106016848899e-01  3.6136331537389532e-01  3.6265745381781794e-01  3.6403541610054052e-01  3.6547937627941829e-01  3.6697215868165528e-01  3.6849756328978178e-01  3.7004057679851471e-01  3.7158745573136698e-01  3.7312567166543797e-01  3.7464370759107951e-01  3.7613068912113778e-01  3.7757582467906337e-01  3.7896761502039578e-01  3.8029277492172447e-01  3.8153479029884069e-01  3.8267201671341533e-01  3.8367522032100077e-01  3.8450449089706601e-01  3.8510556129716739e-01  3.8540582345014102e-01  3.8531087794970748e-01  3.8470345722070187e-01  3.8344834502358172e-01  3.8140931110886145e-01  3.7848659100744375e-01  3.7468406482169492e-01  3.7019903153685607e-01  3.6549996766556503e-01  3.6127166166232216e-01  3.5808258275335275e-01  3.5618577109433353e-01  4.0291854976734692e-01  4.0294240225982836e-01  3.5597945695084687e-01  3.5632130357955560e-01  3.5676670542123967e-01  3.5737204049725829e-01  3.5817819390081562e-01  3.5918978320682299e-01  3.6039469098652582e-01  3.6177414636700800e-01  3.6330662481432385e-01  3.6496936418718273e-01  3.6673925154431353e-01  3.6859349361517391e-01  3.7051016561576938e-01  3.7246863405514730e-01  3.7444983674311605e-01  3.7643640737304085e-01  3.7841263540826597e-01  3.8036425158682979e-01  3.8227802418102869e-01  3.8414114109986625e-01  3.8594033806632821e-01  3.8766071389887474e-01  3.8928415188329196e-01  3.9078724522533381e-01  3.9213861352567247e-01  3.9329551489077003e-01  3.9419974232802707e-01  3.9477300956522937e-01  3.9491251030159247e-01  3.9448822699032698e-01  3.9334527252449747e-01  3.9131680592950147e-01  3.8825709921432161e-01  3.8410433845538539e-01  3.7897247740469031e-01  3.7324086617969254e-01  3.6745494317602190e-01  3.6199862693739893e-01  3.5738031661376934e-01  4.0295218753806944e-01  4.0295755604212069e-01  3.5617460092498743e-01  3.5678509219447413e-01  3.5739568468994409e-01  3.5810164890797380e-01  3.5899279894329023e-01  3.6009476107769189e-01  3.6140186377454492e-01  3.6289622229691970e-01  3.6455522154282344e-01  3.6635437598050324e-01  3.6826870762186315e-01  3.7027361090341321e-01  3.7234549827946400e-01  3.7446228282114957e-01  3.7660370434085988e-01  3.7875149598890939e-01  3.8088938914840309e-01  3.8300295456993450e-01  3.8507927413243126e-01  3.8710642988582833e-01  3.8907278516452176e-01  3.9096601694260302e-01  3.9277184022515921e-01  3.9447234653066449e-01  3.9604386458505014e-01  3.9745425316348632e-01  3.9865957471948771e-01  3.9960021147484942e-01  4.0019674994987314e-01  4.0034644857270235e-01  3.9992213808674043e-01  3.9877662107696776e-01  3.9675889499539663e-01  3.9374449143172319e-01  3.8968150935370383e-01  3.8457896544200842e-01  3.7825018411730810e-01  3.6996555822697502e-01  3.6013710031794915e-01  4.0307918278395655e-01  4.0298080336367575e-01  3.5646282190021233e-01  3.5745015910044409e-01  3.5826389560056432e-01  3.5905940965956512e-01  3.5999870580214144e-01  3.6113792329310429e-01  3.6248145459889558e-01  3.6401406888429289e-01  3.6571332904104931e-01  3.6755418777521198e-01  3.6951095737855993e-01  3.7155839806943985e-01  3.7367245933202242e-01  3.7583081443813893e-01  3.7801322650562830e-01  3.8020175849214788e-01  3.8238083728044664e-01  3.8453718255970415e-01  3.8665961013223338e-01  3.8873871557829492e-01  3.9076643810075329e-01  3.9273549657982076e-01  3.9463868146071884e-01  3.9646797880807882e-01  3.9821349973655923e-01  3.9986219480471069e-01  4.0139635742806101e-01  4.0279197798807809e-01  4.0401712355535463e-01  4.0503069200712299e-01  4.0578226840069265e-01  4.0621371477480589e-01  4.0626363742061189e-01  4.0586448351213872e-01  4.0490416001007445e-01  4.0293874545619374e-01  3.9832808411496734e-01  3.8662223212773161e-01  3.6592161561206793e-01  4.0326998167656253e-01  4.0301236910566446e-01  3.5684856332439197e-01  3.5833293763918056e-01  3.5940512356470089e-01  3.6030170358486818e-01  3.6128130046414553e-01  3.6244076016802512e-01  3.6379792109421405e-01  3.6534126436900394e-01  3.6704896403756282e-01  3.6889571693637035e-01  3.7085544452619373e-01  3.7290263984358207e-01  3.7501320939146598e-01  3.7716505654765786e-01  3.7933848194843139e-01  3.8151643290248904e-01  3.8368462758520588e-01  3.8583158079813068e-01  3.8794855987942267e-01  3.9002950060827613e-01  3.9207091450954978e-01  3.9407182249442768e-01  3.9603375767304760e-01  3.9796089588403744e-01  3.9986040134621054e-01  4.0174312520103561e-01  4.0362487959503185e-01  4.0552865102975277e-01  4.0748833842418841e-01  4.0955495026900618e-01  4.1180669534198022e-01  4.1436444120664562e-01  4.1741359405362749e-01  4.2121544239306608e-01  4.2604016530259631e-01  4.3163715184886647e-01  4.3536842145076499e-01  4.2659904238701624e-01  3.8793810937871787e-01  4.0449593897290098e-01  4.0305274740033881e-01  3.5733812848993751e-01  3.5944997577241877e-01  3.6084563760334837e-01  3.6186442363448645e-01  3.6288705252396325e-01  3.6406204753843047e-01  3.6542437901536423e-01  3.6696728915948562e-01  3.6866982006867055e-01  3.7050648528965524e-01  3.7245089174089269e-01  3.7447739150976633e-01  3.7656203001601557e-01  3.7868317074109686e-01  3.8082191791204378e-01  3.8296239259441278e-01  3.8509190544628114e-01  3.8720107047898078e-01  3.8928390856883094e-01  3.9133799574676137e-01  3.9336472129834543e-01  3.9536973762539412e-01  3.9736371264519205e-01  3.9936354392764345e-01  4.0139427463383553e-01  4.0349208651630630e-01  4.0570897352413049e-01  4.0812009013442174e-01  4.1083544246662823e-01  4.1401878528408720e-01  4.1791855917389392e-01  4.2291885800645873e-01  4.2962167692775677e-01  4.3895805983774872e-01  4.5226080324002482e-01  4.7079412975904678e-01  4.9335760584036709e-01  5.0853998821166824e-01  4.8798825776284616e-01  4.3183456540750231e-01  4.0310269042842617e-01  3.5794045831364274e-01  3.6082215731625022e-01  3.6261419274513756e-01  3.6378144322357830e-01  3.6485376419090637e-01  3.6604318805410085e-01  3.6740596239607348e-01  3.6894135047768273e-01  3.7062958345969882e-01  3.7244506858684479e-01  3.7436115737440057e-01  3.7635216217217832e-01  3.7839441593033291e-01  3.8046692412537186e-01  3.8255178916586252e-01  3.8463449031634972e-01  3.8670408122729866e-01  3.8875336678794575e-01  3.9077912681638027e-01  3.9278246445803328e-01  3.9476937481194779e-01  3.9675165926213729e-01  3.9874836139395953e-01  4.0078798456345976e-01  4.0291189255365817e-01  4.0517953542955987e-01  4.0767656107721340e-01  4.1052761672860022e-01  4.1391700015628158e-01  4.1812283056683808e-01  4.2357500197974007e-01  4.3095561248962250e-01  4.4137172435649241e-01  4.5663359579946283e-01  4.7959218901046446e-01  5.1392790660997467e-01  5.6157103984522594e-01  6.1417664164484342e-01  6.6916387772985297e-01  5.5473608218945203e-01  4.0316319662119843e-01  3.5866732781288091e-01  3.6247640368573802e-01  3.6474636124212378e-01  3.6609238183795378e-01  3.6722277856127655e-01  3.6842605579497789e-01  3.6978443597513883e-01  3.7130474357075233e-01  3.7296887452811733e-01  3.7475130861021488e-01  3.7662528057705880e-01  3.7856523176761320e-01  3.8054798423711844e-01  3.8255339835903257e-01  3.8456476928531447e-01  3.8656907815439595e-01  3.8855717987684768e-01  3.9052400479164318e-01  3.9246885658781938e-01  3.9439590123954699e-01  3.9631496451106329e-01  3.9824279532955076e-01  4.0020501970740890e-01  4.0223912321343247e-01  4.0439899210174668e-01  4.0676187491774890e-01  4.0943921313853443e-01  4.1259385503442386e-01  4.1646815323983005e-01  4.2143120662910899e-01  4.2806068629973382e-01  4.3728790665957867e-01  4.5065472551290359e-01  4.7074793322249259e-01  5.0176308025345540e-01  5.4947645574138526e-01  6.1783544084270003e-01  6.9600734196850489e-01  7.8115235410994899e-01  6.6851599643342641e-01  4.0323553827879216e-01  3.5953373195394589e-01  3.6444691812304397e-01  3.6728697449966341e-01  3.6884644912620229e-01  3.7004438486633418e-01  3.7126020233538071e-01  3.7260750819117766e-01  3.7410259459759920e-01  3.7572972261241661e-01  3.7746379358006904e-01  3.7927821213532548e-01  3.8114784873925261e-01  3.8305032536914740e-01  3.8496664867689245e-01  3.8688154030072763e-01  3.8878361932817312e-01  3.9066553870154819e-01  3.9252416500073828e-01  3.9436089267429414e-01  3.9618219523737896e-01  3.9800054016654374e-01  3.9983583805346445e-01  4.0171767171352463e-01  4.0368867783087709e-01  4.0580966941646029e-01  4.0816746127008785e-01  4.1088702521350062e-01  4.1415081569982765e-01  4.1823037924913881e-01  4.2353969360013349e-01  4.3072799142624146e-01  4.4084497103843534e-01  4.5563534101700265e-01  4.7803544450524305e-01  5.1280747300423013e-01  5.6650700675884258e-01  6.4314882359584169e-01  7.2904282698568301e-01  8.1083694600304690e-01  7.0301790425860666e-01  4.0332131641435809e-01  3.6055853088452616e-01  3.6677677839764700e-01  3.7029255006148337e-01  3.7210554658304862e-01  3.7338144152362096e-01  3.7460692196986894e-01  3.7593333975529997e-01  3.7738886900723523e-01  3.7896116379974915e-01  3.8062615678978756e-01  3.8235793919694461e-01  3.8413231276180898e-01  3.8592817595119333e-01  3.8772809357694621e-01  3.8951851664555603e-01  3.9128985323516519e-01  3.9303651114357646e-01  3.9475700864945068e-01  3.9645424493300563e-01  3.9813602924658864e-01  3.9981598943652702e-01  4.0151502172164077e-01  4.0326351520705728e-01  4.0510470519182301e-01  4.0709971299885644e-01  4.0933518049279993e-01  4.1193502550011901e-01  4.1507896345441680e-01  4.1903251518954643e-01  4.2419713269133902e-01  4.3119642979070205e-01  4.4102764223153196e-01  4.5532725746661545e-01  4.7680429403762542e-01  5.0976531298350769e-01  5.5993105086934802e-01  6.3026376017405372e-01  7.0986990578265385e-01  7.8048953530884135e-01  6.7881631089931260e-01  4.0342253884046259e-01  3.6176537079521526e-01  3.6952011177347588e-01  3.7383434549059369e-01  3.7594782978489910e-01  3.7731312639250925e-01  3.7854294751618617e-01  3.7983403885815120e-01  3.8122960754697816e-01  3.8272222896380304e-01  3.8428988007742104e-01  3.8590820363494488e-01  3.8755472907709243e-01  3.8921033904638436e-01  3.9085972992406864e-01  3.9249147684739183e-01  3.9409795575877438e-01  3.9567525901363776e-01  3.9722320041536574e-01  3.9874549197879827e-01  4.0025017626529746e-01  4.0175041378612347e-01  4.0326575820340488e-01  4.0482411025298504e-01  4.0646463815244493e-01  4.0824211284406320e-01  4.1023337699960122e-01  4.1254713340116239e-01  4.1533906287831346e-01  4.1883576889150370e-01  4.2337375462291094e-01  4.2946449281232124e-01  4.3790470568853124e-01  4.4996040655959968e-01  4.6764285324035809e-01  4.9396828505400042e-01  5.3246728249420805e-01  5.8374074276359578e-01  6.3735020698045841e-01  6.6345146782551745e-01  5.8943478465103105e-01  4.0354172319192594e-01  3.6318392033717078e-01  3.7274503385845942e-01  3.7800246494960904e-01  3.8047240769332996e-01  3.8193970710255898e-01  3.8316488907649204e-01  3.8439951323887567e-01  3.8570607201652252e-01  3.8708437498625281e-01  3.8851608579704022e-01  3.8997978489202673e-01  3.9145594055955774e-01  3.9292843032929387e-01  3.9438484960834003e-01  3.9581639018908898e-01  3.9721759597030232e-01  3.9858614138537962e-01  3.9992271800467133e-01  4.0123109186289801e-01  4.0251838940373769e-01  4.0379567872687017e-01  4.0507893530718031e-01  4.0639052088692040e-01  4.0776136813106295e-01  4.0923416566942283e-01  4.1086800317951661e-01  4.1274520872826470e-01  4.1498156974666545e-01  4.1774191135158906e-01  4.2126432688156790e-01  4.2589845730434295e-01  4.3216583606837300e-01  4.4084967832467220e-01  4.5309818480327796e-01  4.7039725818797978e-01  4.9377036896553916e-01  5.2042457475140702e-01  5.3450139650966189e-01  4.9682469483149422e-01  4.6089583068150003e-01  4.0368202948711990e-01  3.6485150473913142e-01  3.7653760994172680e-01  3.8291148160582505e-01  3.8580579819482846e-01  3.8738901655519925e-01  3.8859509240922047e-01  3.8974231636768669e-01  3.9091841149906265e-01  3.9213398560092838e-01  3.9337701414521481e-01  3.9463116826212807e-01  3.9588162732027160e-01  3.9711664124371843e-01  3.9832766989378282e-01  3.9950908049496342e-01  4.0065776172685991e-01  4.0177279677681071e-01  4.0285525803983335e-01  4.0390815625658855e-01  4.0493656850955390e-01  4.0594797313305536e-01  4.0695283222014306e-01  4.0796548380714753e-01  4.0900543799482020e-01  4.1009921871858607e-01  4.1128296372064177e-01  4.1260610265638659e-01  4.1413659741121084e-01  4.1596847423944150e-01  4.1823271214338592e-01  4.2111284826222406e-01  4.2486610424709859e-01  4.2984565078439424e-01  4.3649422498354545e-01  4.4517528873368301e-01  4.5537019644838012e-01  4.6299842637744848e-01  4.5430023877001846e-01  4.0857144076840241e-01  4.0983593841193733e-01  4.0384742707978377e-01  3.6681525334276455e-01  3.8100721927322900e-01  3.8870824977522611e-01  3.9211099806050581e-01  3.9382548620320262e-01  3.9498960882596101e-01  3.9600395270905098e-01  3.9699010178442479e-01  3.9797504596935385e-01  3.9895722139391093e-01  3.9992863890263519e-01  4.0088167362089666e-01  4.0181071185405193e-01  4.0271217815872007e-01  4.0358413736433096e-01  4.0442586724702090e-01  4.0523752302721955e-01  4.0601992063858472e-01  4.0677443505035588e-01  4.0750300290210201e-01  4.0820822104960253e-01  4.0889353902226944e-01  4.0956355181804499e-01  4.1022440948694178e-01  4.1088437185336069e-01  4.1155455145433012e-01  4.1224990638592002e-01  4.1299056731498612e-01  4.1380360377921321e-01  4.1472532456671102e-01  4.1580402568189978e-01  4.1710216480019163e-01  4.1869283719152284e-01  4.2062865546174694e-01  4.2280036741119764e-01  4.2442427266937482e-01  4.2256600564309776e-01  4.0972607895093632e-01  3.7967430140626940e-01  4.0461225770081194e-01  4.0404289560819967e-01  3.6913490133696014e-01  3.8629389108335410e-01  3.9558297453054336e-01  3.9960051593768531e-01  4.0146300210034275e-01  4.0254918399006684e-01  4.0336309788551528e-01  4.0407321691699832e-01  4.0473178351120814e-01  4.0535416617991127e-01  4.0594545618205086e-01  4.0650851564988599e-01  4.0704591945038615e-01  4.0756009564432599e-01  4.0805306775579747e-01  4.0852620617804514e-01  4.0898006986032370e-01  4.0941432223542801e-01  4.0982768318075974e-01  4.1021787905313783e-01  4.1058155778050959e-01  4.1091414015046812e-01  4.1120958047966472e-01  4.1146001035808710e-01  4.1165523976776414e-01  4.1178209394022419e-01  4.1182357802113961e-01  4.1175789591274736e-01  4.1155742489017555e-01  4.1118789044998033e-01  4.1060820563576683e-01  4.0977157621607302e-01  4.0862740113442764e-01  4.0711648604037454e-01  4.0512335673480382e-01  4.0226202041771564e-01  3.9723203514995431e-01  3.8689531908706698e-01  3.6899177166142499e-01  4.0398333768282213e-01  4.0427464470372887e-01  3.7188640341996571e-01  3.9257849030027919e-01  4.0378533434815422e-01  4.0855561884445390e-01  4.1058356872894602e-01  4.1153450927083490e-01  4.1204614619650365e-01  4.1235429607964147e-01  4.1255066784138195e-01  4.1267745693383528e-01  4.1275943026739281e-01  4.1281392511753351e-01  4.1285369236987024e-01  4.1288770880624487e-01  4.1292154425475214e-01  4.1295768027580387e-01  4.1299581887897346e-01  4.1303313500633926e-01  4.1306442051932107e-01  4.1308207716533762e-01  4.1307592367862161e-01  4.1303278492159978e-01  4.1293583063483519e-01  4.1276363215901402e-01  4.1248891415006395e-01  4.1207700641925799e-01  4.1148406834414242e-01  4.1065529943826412e-01  4.0952362190855623e-01  4.0800980621644517e-01  4.0602581600648280e-01  4.0348424505049640e-01  4.0031741764204337e-01  3.9650693665515840e-01  3.9210737360495385e-01  3.8719258708779197e-01  3.8155186762678628e-01  3.7403764663018724e-01  3.6352901472347937e-01  4.0357072309121500e-01  4.0455029770368089e-01  3.7516642995679556e-01  4.0009725561908521e-01  4.1364891088189804e-01  4.1935571110613251e-01  4.2156492266898138e-01  4.2228732299281457e-01  4.2234017559082609e-01  4.2205991122773356e-01  4.2160046163350545e-01  4.2104545699113483e-01  4.2044782386039509e-01  4.1984344568107224e-01  4.1925633743449392e-01  4.1870126692220760e-01  4.1818559189124843e-01  4.1771073191422714e-01  4.1727332448542703e-01  4.1686604690354989e-01  4.1647808977281509e-01  4.1609527765718457e-01  4.1569983400681998e-01  4.1526978298302097e-01  4.1477797621998636e-01  4.1419073643057791e-01  4.1346613458569575e-01  4.1255198376281366e-01  4.1138377411383570e-01  4.0988304469899706e-01  4.0795716539552618e-01  4.0550228518039411e-01  4.0241236185623475e-01  3.9859852076158198e-01  3.9402365625089208e-01  3.8875391396076947e-01  3.8301318279516527e-01  3.7718384639638902e-01  3.7161514114883443e-01  3.6611684503372710e-01  3.6004975482833573e-01  4.0329653900871548e-01  4.0487880894445893e-01  3.7909785197578438e-01  4.0916379990455914e-01  4.2563027478762844e-01  4.3252490658877363e-01  4.3492190365698102e-01  4.3525889769792536e-01  4.3460728557807338e-01  4.3345959639912501e-01  4.3206776921732515e-01  4.3057708913040943e-01  4.2907802223523361e-01  4.2762749484055140e-01  4.2625933272435651e-01  4.2499069237706216e-01  4.2382663478978888e-01  4.2276349193522711e-01  4.2179126564258945e-01  4.2089520489267773e-01  4.2005668154591813e-01  4.1925346211457215e-01  4.1845944615256198e-01  4.1764391557139430e-01  4.1677032173506801e-01  4.1579463896093044e-01  4.1466335003056565e-01  4.1331122770184020e-01  4.1165927872541130e-01  4.0961358820528199e-01  4.0706642213047217e-01  4.0390190600247183e-01  4.0000984098804387e-01  3.9531239017135006e-01  3.8980825359454069e-01  3.8363389641640461e-01  3.7712642402151270e-01  3.7083874020009605e-01  3.6540696552350893e-01  3.6116308258434204e-01  3.5783732687963943e-01  4.0311205201915579e-01  4.0526993750247908e-01  3.8383740156008078e-01  4.2020536340738246e-01  4.4037638702783766e-01  4.4880852300606650e-01  4.5136797936830458e-01  4.5104568558629859e-01  4.4929611561055516e-01  4.468608660