<?xml version="1.0"?>
<VTKFile type="UnstructuredGrid"  version="0.1"  >
<UnstructuredGrid>
<Piece  NumberOfPoints="1681" NumberOfCells="3200">
<Points>
<DataArray  type="Float64"  NumberOfComponents="3"  format="ascii">0 0 0  0.025 0 0  0.05 0 0  0.075 0 0  0.1 0 0  0.125 0 0  0.15 0 0  0.175 0 0  0.2 0 0  0.225 0 0  0.25 0 0  0.275 0 0  0.3 0 0  0.325 0 0  0.35 0 0  0.375 0 0  0.4 0 0  0.425 0 0  0.45 0 0  0.475 0 0  0.5 0 0  0.525 0 0  0.55 0 0  0.575 0 0  0.6 0 0  0.625 0 0  0.65 0 0  0.675 0 0  0.7 0 0  0.725 0 0  0.75 0 0  0.775 0 0  0.8 0 0  0.825 0 0  0.85 0 0  0.875 0 0  0.9 0 0  0.925 0 0  0.95 0 0  0.975 0 0  1 0 0  0 0.025 0  0.025 0.025 0  0.05 0.025 0  0.075 0.025 0  0.1 0.025 0  0.125 0.025 0  0.15 0.025 0  0.175 0.025 0  0.2 0.025 0  0.225 0.025 0  0.25 0.025 0  0.275 0.025 0  0.3 0.025 0  0.325 0.025 0  0.35 0.025 0  0.375 0.025 0  0.4 0.025 0  0.425 0.025 0  0.45 0.025 0  0.475 0.025 0  0.5 0.025 0  0.525 0.025 0  0.55 0.025 0  0.575 0.025 0  0.6 0.025 0  0.625 0.025 0  0.65 0.025 0  0.675 0.025 0  0.7 0.025 0  0.725 0.025 0  0.75 0.025 0  0.775 0.025 0  0.8 0.025 0  0.825 0.025 0  0.85 0.025 0  0.875 0.025 0  0.9 0.025 0  0.925 0.025 0  0.95 0.025 0  0.975 0.025 0  1 0.025 0  0 0.05 0  0.025 0.05 0  0.05 0.05 0  0.075 0.05 0  0.1 0.05 0  0.125 0.05 0  0.15 0.05 0  0.175 0.05 0  0.2 0.05 0  0.225 0.05 0  0.25 0.05 0  0.275 0.05 0  0.3 0.05 0  0.325 0.05 0  0.35 0.05 0  0.375 0.05 0  0.4 0.05 0  0.425 0.05 0  0.45 0.05 0  0.475 0.05 0  0.5 0.05 0  0.525 0.05 0  0.55 0.05 0  0.575 0.05 0  0.6 0.05 0  0.625 0.05 0  0.65 0.05 0  0.675 0.05 0  0.7 0.05 0  0.725 0.05 0  0.75 0.05 0  0.775 0.05 0  0.8 0.05 0  0.825 0.05 0  0.85 0.05 0  0.875 0.05 0  0.9 0.05 0  0.925 0.05 0  0.95 0.05 0  0.975 0.05 0  1 0.05 0  0 0.075 0  0.025 0.075 0  0.05 0.075 0  0.075 0.075 0  0.1 0.075 0  0.125 0.075 0  0.15 0.075 0  0.175 0.075 0  0.2 0.075 0  0.225 0.075 0  0.25 0.075 0  0.275 0.075 0  0.3 0.075 0  0.325 0.075 0  0.35 0.075 0  0.375 0.075 0  0.4 0.075 0  0.425 0.075 0  0.45 0.075 0  0.475 0.075 0  0.5 0.075 0  0.525 0.075 0  0.55 0.075 0  0.575 0.075 0  0.6 0.075 0  0.625 0.075 0  0.65 0.075 0  0.675 0.075 0  0.7 0.075 0  0.725 0.075 0  0.75 0.075 0  0.775 0.075 0  0.8 0.075 0  0.825 0.075 0  0.85 0.075 0  0.875 0.075 0  0.9 0.075 0  0.925 0.075 0  0.95 0.075 0  0.975 0.075 0  1 0.075 0  0 0.1 0  0.025 0.1 0  0.05 0.1 0  0.075 0.1 0  0.1 0.1 0  0.125 0.1 0  0.15 0.1 0  0.175 0.1 0  0.2 0.1 0  0.225 0.1 0  0.25 0.1 0  0.275 0.1 0  0.3 0.1 0  0.325 0.1 0  0.35 0.1 0  0.375 0.1 0  0.4 0.1 0  0.425 0.1 0  0.45 0.1 0  0.475 0.1 0  0.5 0.1 0  0.525 0.1 0  0.55 0.1 0  0.575 0.1 0  0.6 0.1 0  0.625 0.1 0  0.65 0.1 0  0.675 0.1 0  0.7 0.1 0  0.725 0.1 0  0.75 0.1 0  0.775 0.1 0  0.8 0.1 0  0.825 0.1 0  0.85 0.1 0  0.875 0.1 0  0.9 0.1 0  0.925 0.1 0  0.95 0.1 0  0.975 0.1 0  1 0.1 0  0 0.125 0  0.025 0.125 0  0.05 0.125 0  0.075 0.125 0  0.1 0.125 0  0.125 0.125 0  0.15 0.125 0  0.175 0.125 0  0.2 0.125 0  0.225 0.125 0  0.25 0.125 0  0.275 0.125 0  0.3 0.125 0  0.325 0.125 0  0.35 0.125 0  0.375 0.125 0  0.4 0.125 0  0.425 0.125 0  0.45 0.125 0  0.475 0.125 0  0.5 0.125 0  0.525 0.125 0  0.55 0.125 0  0.575 0.125 0  0.6 0.125 0  0.625 0.125 0  0.65 0.125 0  0.675 0.125 0  0.7 0.125 0  0.725 0.125 0  0.75 0.125 0  0.775 0.125 0  0.8 0.125 0  0.825 0.125 0  0.85 0.125 0  0.875 0.125 0  0.9 0.125 0  0.925 0.125 0  0.95 0.125 0  0.975 0.125 0  1 0.125 0  0 0.15 0  0.025 0.15 0  0.05 0.15 0  0.075 0.15 0  0.1 0.15 0  0.125 0.15 0  0.15 0.15 0  0.175 0.15 0  0.2 0.15 0  0.225 0.15 0  0.25 0.15 0  0.275 0.15 0  0.3 0.15 0  0.325 0.15 0  0.35 0.15 0  0.375 0.15 0  0.4 0.15 0  0.425 0.15 0  0.45 0.15 0  0.475 0.15 0  0.5 0.15 0  0.525 0.15 0  0.55 0.15 0  0.575 0.15 0  0.6 0.15 0  0.625 0.15 0  0.65 0.15 0  0.675 0.15 0  0.7 0.15 0  0.725 0.15 0  0.75 0.15 0  0.775 0.15 0  0.8 0.15 0  0.825 0.15 0  0.85 0.15 0  0.875 0.15 0  0.9 0.15 0  0.925 0.15 0  0.95 0.15 0  0.975 0.15 0  1 0.15 0  0 0.175 0  0.025 0.175 0  0.05 0.175 0  0.075 0.175 0  0.1 0.175 0  0.125 0.175 0  0.15 0.175 0  0.175 0.175 0  0.2 0.175 0  0.225 0.175 0  0.25 0.175 0  0.275 0.175 0  0.3 0.175 0  0.325 0.175 0  0.35 0.175 0  0.375 0.175 0  0.4 0.175 0  0.425 0.175 0  0.45 0.175 0  0.475 0.175 0  0.5 0.175 0  0.525 0.175 0  0.55 0.175 0  0.575 0.175 0  0.6 0.175 0  0.625 0.175 0  0.65 0.175 0  0.675 0.175 0  0.7 0.175 0  0.725 0.175 0  0.75 0.175 0  0.775 0.175 0  0.8 0.175 0  0.825 0.175 0  0.85 0.175 0  0.875 0.175 0  0.9 0.175 0  0.925 0.175 0  0.95 0.175 0  0.975 0.175 0  1 0.175 0  0 0.2 0  0.025 0.2 0  0.05 0.2 0  0.075 0.2 0  0.1 0.2 0  0.125 0.2 0  0.15 0.2 0  0.175 0.2 0  0.2 0.2 0  0.225 0.2 0  0.25 0.2 0  0.275 0.2 0  0.3 0.2 0  0.325 0.2 0  0.35 0.2 0  0.375 0.2 0  0.4 0.2 0  0.425 0.2 0  0.45 0.2 0  0.475 0.2 0  0.5 0.2 0  0.525 0.2 0  0.55 0.2 0  0.575 0.2 0  0.6 0.2 0  0.625 0.2 0  0.65 0.2 0  0.675 0.2 0  0.7 0.2 0  0.725 0.2 0  0.75 0.2 0  0.775 0.2 0  0.8 0.2 0  0.825 0.2 0  0.85 0.2 0  0.875 0.2 0  0.9 0.2 0  0.925 0.2 0  0.95 0.2 0  0.975 0.2 0  1 0.2 0  0 0.225 0  0.025 0.225 0  0.05 0.225 0  0.075 0.225 0  0.1 0.225 0  0.125 0.225 0  0.15 0.225 0  0.175 0.225 0  0.2 0.225 0  0.225 0.225 0  0.25 0.225 0  0.275 0.225 0  0.3 0.225 0  0.325 0.225 0  0.35 0.225 0  0.375 0.225 0  0.4 0.225 0  0.425 0.225 0  0.45 0.225 0  0.475 0.225 0  0.5 0.225 0  0.525 0.225 0  0.55 0.225 0  0.575 0.225 0  0.6 0.225 0  0.625 0.225 0  0.65 0.225 0  0.675 0.225 0  0.7 0.225 0  0.725 0.225 0  0.75 0.225 0  0.775 0.225 0  0.8 0.225 0  0.825 0.225 0  0.85 0.225 0  0.875 0.225 0  0.9 0.225 0  0.925 0.225 0  0.95 0.225 0  0.975 0.225 0  1 0.225 0  0 0.25 0  0.025 0.25 0  0.05 0.25 0  0.075 0.25 0  0.1 0.25 0  0.125 0.25 0  0.15 0.25 0  0.175 0.25 0  0.2 0.25 0  0.225 0.25 0  0.25 0.25 0  0.275 0.25 0  0.3 0.25 0  0.325 0.25 0  0.35 0.25 0  0.375 0.25 0  0.4 0.25 0  0.425 0.25 0  0.45 0.25 0  0.475 0.25 0  0.5 0.25 0  0.525 0.25 0  0.55 0.25 0  0.575 0.25 0  0.6 0.25 0  0.625 0.25 0  0.65 0.25 0  0.675 0.25 0  0.7 0.25 0  0.725 0.25 0  0.75 0.25 0  0.775 0.25 0  0.8 0.25 0  0.825 0.25 0  0.85 0.25 0  0.875 0.25 0  0.9 0.25 0  0.925 0.25 0  0.95 0.25 0  0.975 0.25 0  1 0.25 0  0 0.275 0  0.025 0.275 0  0.05 0.275 0  0.075 0.275 0  0.1 0.275 0  0.125 0.275 0  0.15 0.275 0  0.175 0.275 0  0.2 0.275 0  0.225 0.275 0  0.25 0.275 0  0.275 0.275 0  0.3 0.275 0  0.325 0.275 0  0.35 0.275 0  0.375 0.275 0  0.4 0.275 0  0.425 0.275 0  0.45 0.275 0  0.475 0.275 0  0.5 0.275 0  0.525 0.275 0  0.55 0.275 0  0.575 0.275 0  0.6 0.275 0  0.625 0.275 0  0.65 0.275 0  0.675 0.275 0  0.7 0.275 0  0.725 0.275 0  0.75 0.275 0  0.775 0.275 0  0.8 0.275 0  0.825 0.275 0  0.85 0.275 0  0.875 0.275 0  0.9 0.275 0  0.925 0.275 0  0.95 0.275 0  0.975 0.275 0  1 0.275 0  0 0.3 0  0.025 0.3 0  0.05 0.3 0  0.075 0.3 0  0.1 0.3 0  0.125 0.3 0  0.15 0.3 0  0.175 0.3 0  0.2 0.3 0  0.225 0.3 0  0.25 0.3 0  0.275 0.3 0  0.3 0.3 0  0.325 0.3 0  0.35 0.3 0  0.375 0.3 0  0.4 0.3 0  0.425 0.3 0  0.45 0.3 0  0.475 0.3 0  0.5 0.3 0  0.525 0.3 0  0.55 0.3 0  0.575 0.3 0  0.6 0.3 0  0.625 0.3 0  0.65 0.3 0  0.675 0.3 0  0.7 0.3 0  0.725 0.3 0  0.75 0.3 0  0.775 0.3 0  0.8 0.3 0  0.825 0.3 0  0.85 0.3 0  0.875 0.3 0  0.9 0.3 0  0.925 0.3 0  0.95 0.3 0  0.975 0.3 0  1 0.3 0  0 0.325 0  0.025 0.325 0  0.05 0.325 0  0.075 0.325 0  0.1 0.325 0  0.125 0.325 0  0.15 0.325 0  0.175 0.325 0  0.2 0.325 0  0.225 0.325 0  0.25 0.325 0  0.275 0.325 0  0.3 0.325 0  0.325 0.325 0  0.35 0.325 0  0.375 0.325 0  0.4 0.325 0  0.425 0.325 0  0.45 0.325 0  0.475 0.325 0  0.5 0.325 0  0.525 0.325 0  0.55 0.325 0  0.575 0.325 0  0.6 0.325 0  0.625 0.325 0  0.65 0.325 0  0.675 0.325 0  0.7 0.325 0  0.725 0.325 0  0.75 0.325 0  0.775 0.325 0  0.8 0.325 0  0.825 0.325 0  0.85 0.325 0  0.875 0.325 0  0.9 0.325 0  0.925 0.325 0  0.95 0.325 0  0.975 0.325 0  1 0.325 0  0 0.35 0  0.025 0.35 0  0.05 0.35 0  0.075 0.35 0  0.1 0.35 0  0.125 0.35 0  0.15 0.35 0  0.175 0.35 0  0.2 0.35 0  0.225 0.35 0  0.25 0.35 0  0.275 0.35 0  0.3 0.35 0  0.325 0.35 0  0.35 0.35 0  0.375 0.35 0  0.4 0.35 0  0.425 0.35 0  0.45 0.35 0  0.475 0.35 0  0.5 0.35 0  0.525 0.35 0  0.55 0.35 0  0.575 0.35 0  0.6 0.35 0  0.625 0.35 0  0.65 0.35 0  0.675 0.35 0  0.7 0.35 0  0.725 0.35 0  0.75 0.35 0  0.775 0.35 0  0.8 0.35 0  0.825 0.35 0  0.85 0.35 0  0.875 0.35 0  0.9 0.35 0  0.925 0.35 0  0.95 0.35 0  0.975 0.35 0  1 0.35 0  0 0.375 0  0.025 0.375 0  0.05 0.375 0  0.075 0.375 0  0.1 0.375 0  0.125 0.375 0  0.15 0.375 0  0.175 0.375 0  0.2 0.375 0  0.225 0.375 0  0.25 0.375 0  0.275 0.375 0  0.3 0.375 0  0.325 0.375 0  0.35 0.375 0  0.375 0.375 0  0.4 0.375 0  0.425 0.375 0  0.45 0.375 0  0.475 0.375 0  0.5 0.375 0  0.525 0.375 0  0.55 0.375 0  0.575 0.375 0  0.6 0.375 0  0.625 0.375 0  0.65 0.375 0  0.675 0.375 0  0.7 0.375 0  0.725 0.375 0  0.75 0.375 0  0.775 0.375 0  0.8 0.375 0  0.825 0.375 0  0.85 0.375 0  0.875 0.375 0  0.9 0.375 0  0.925 0.375 0  0.95 0.375 0  0.975 0.375 0  1 0.375 0  0 0.4 0  0.025 0.4 0  0.05 0.4 0  0.075 0.4 0  0.1 0.4 0  0.125 0.4 0  0.15 0.4 0  0.175 0.4 0  0.2 0.4 0  0.225 0.4 0  0.25 0.4 0  0.275 0.4 0  0.3 0.4 0  0.325 0.4 0  0.35 0.4 0  0.375 0.4 0  0.4 0.4 0  0.425 0.4 0  0.45 0.4 0  0.475 0.4 0  0.5 0.4 0  0.525 0.4 0  0.55 0.4 0  0.575 0.4 0  0.6 0.4 0  0.625 0.4 0  0.65 0.4 0  0.675 0.4 0  0.7 0.4 0  0.725 0.4 0  0.75 0.4 0  0.775 0.4 0  0.8 0.4 0  0.825 0.4 0  0.85 0.4 0  0.875 0.4 0  0.9 0.4 0  0.925 0.4 0  0.95 0.4 0  0.975 0.4 0  1 0.4 0  0 0.425 0  0.025 0.425 0  0.05 0.425 0  0.075 0.425 0  0.1 0.425 0  0.125 0.425 0  0.15 0.425 0  0.175 0.425 0  0.2 0.425 0  0.225 0.425 0  0.25 0.425 0  0.275 0.425 0  0.3 0.425 0  0.325 0.425 0  0.35 0.425 0  0.375 0.425 0  0.4 0.425 0  0.425 0.425 0  0.45 0.425 0  0.475 0.425 0  0.5 0.425 0  0.525 0.425 0  0.55 0.425 0  0.575 0.425 0  0.6 0.425 0  0.625 0.425 0  0.65 0.425 0  0.675 0.425 0  0.7 0.425 0  0.725 0.425 0  0.75 0.425 0  0.775 0.425 0  0.8 0.425 0  0.825 0.425 0  0.85 0.425 0  0.875 0.425 0  0.9 0.425 0  0.925 0.425 0  0.95 0.425 0  0.975 0.425 0  1 0.425 0  0 0.45 0  0.02
[...]
<PointData  Scalars="ControlVisualisation"> 
<DataArray  type="Float64"  Name="ControlVisualisation"  format="ascii">-9.8778861300625700e-09  -9.9184078493238527e-09  -9.9178606627186242e-09  -9.9169915023072774e-09  -9.9159106889636460e-09  -9.9147278595482019e-09  -9.9135369987657356e-09  -9.9124054732710712e-09  -9.9113740640339094e-09  -9.9104622980547682e-09  -9.9096749529933008e-09  -9.9090077179459319e-09  -9.9084513879561031e-09  -9.9079946951605253e-09  -9.9076260955264567e-09  -9.9073348298742083e-09  -9.9071115116640107e-09  -9.9069484224844887e-09  -9.9068396381066631e-09  -9.9067810655128454e-09  -9.9067704415007550e-09  -9.9068073225931832e-09  -9.9068930810595836e-09  -9.9070309100677018e-09  -9.9072258296641177e-09  -9.9074846719877863e-09  -9.9078160064539206e-09  -9.9082299407345380e-09  -9.9087376975970539e-09  -9.9093508165681371e-09  -9.9100797646350953e-09  -9.9109316599180121e-09  -9.9119067701416235e-09  -9.9129935836484595e-09  -9.9141623997313921e-09  -9.9153590802631332e-09  -9.9165018523800877e-09  -9.9174860985603201e-09  -9.9181956658234756e-09  -9.9185534162860291e-09  -9.7558394405169441e-09  -9.9184000520741877e-09  -9.9589653478918241e-09  -9.9583383904477688e-09  -9.9572741204292046e-09  -9.9558562393022299e-09  -9.9542042250665156e-09  -9.9524367959776248e-09  -9.9506557319443276e-09  -9.9489394068762904e-09  -9.9473420769209755e-09  -9.9458968003990141e-09  -9.9446198097822366e-09  -9.9435150385757123e-09  -9.9425781744275853e-09  -9.9417999927656237e-09  -9.9411689365316116e-09  -9.9406730137559800e-09  -9.9403011296317139e-09  -9.9400439789688775e-09  -9.9398946140588389e-09  -9.9398487812983560e-09  -9.9399050935154892e-09  -9.9400650776993820e-09  -9.9403331114806650e-09  -9.9407162354343081e-09  -9.9412238010737066e-09  -9.9418668869028965e-09  -9.9426573893716772e-09  -9.9436066744772445e-09  -9.9447236647128079e-09  -9.9460122465988715e-09  -9.9474679151593337e-09  -9.9490737088828533e-09  -9.9507956290966937e-09  -9.9525780909460096e-09  -9.9543413953941763e-09  -9.9559816227853590e-09  -9.9573780623933063e-09  -9.9584112521498508e-09  -9.9590284461261147e-09  -9.9185525089969133e-09  -9.9177645906481980e-09  -9.9582524220382256e-09  -9.9573747894053497e-09  -9.9560642849468437e-09  -9.9543138067215027e-09  -9.9522611696728961e-09  -9.9500444099763299e-09  -9.9477829656096081e-09  -9.9455721752850637e-09  -9.9434827183074989e-09  -9.9415626802329098e-09  -9.9398408582470086e-09  -9.9383306344137845e-09  -9.9370339319227469e-09  -9.9359449029916586e-09  -9.9350531243072529e-09  -9.9343461968618878e-09  -9.9338117442420125e-09  -9.9334388671299382e-09  -9.9332191431448150e-09  -9.9331472638089615e-09  -9.9332213829143063e-09  -9.9334432231181258e-09  -9.9338179590501637e-09  -9.9343538645512709e-09  -9.9350616781521822e-09  -9.9359536126782937e-09  -9.9370419210214205e-09  -9.9383369321430186e-09  -9.9398445018073417e-09  -9.9415628832285858e-09  -9.9434791041856834e-09  -9.9455651054121242e-09  -9.9477736600875823e-09  -9.9500352522152230e-09  -9.9522554577108833e-09  -9.9543121450299916e-09  -9.9560681077199494e-09  -9.9573903939515758e-09  -9.9583436214520136e-09  -9.9181676493785570e-09  -9.9164809211954415e-09  -9.9567446855775096e-09  -9.9555441391566955e-09  -9.9541830797538014e-09  -9.9524308131476607e-09  -9.9504206101634539e-09  -9.9482846121082058e-09  -9.9461296291488258e-09  -9.9440381361108212e-09  -9.9420706044252293e-09  -9.9402680338370995e-09  -9.9386547954571204e-09  -9.9372418078080780e-09  -9.9360298616828798e-09  -9.9350128263469367e-09  -9.9341804991988386e-09  -9.9335209601055697e-09  -9.9330223981668677e-09  -9.9326744474895415e-09  -9.9324691067525399e-09  -9.9324013283173948e-09  -9.9324693425364560e-09  -9.9326747543492992e-09  -9.9330224298123991e-09  -9.9335201677998629e-09  -9.9341781161189728e-09  -9.9350078609329447e-09  -9.9360211101478308e-09  -9.9372279009788142e-09  -9.9386342999507726e-09  -9.9402396283046782e-09  -9.9420333788464239e-09  -9.9439920369433407e-09  -9.9460757624721833e-09  -9.9482268489406111e-09  -9.9503623219912561e-09  -9.9523804881343283e-09  -9.9541608579721369e-09  -9.9555645460432338e-09  -9.9569296337422789e-09  -9.9172632500600425e-09  -9.9142487726775512e-09  -9.9539444745520679e-09  -9.9519812871221637e-09  -9.9506925806770564e-09  -9.9491459453363967e-09  -9.9474034948511474e-09  -9.9455594619552773e-09  -9.9436990740393745e-09  -9.9418916529703262e-09  -9.9401895338278200e-09  -9.9386289564635650e-09  -9.9372318217069226e-09  -9.9360081492548547e-09  -9.9349588854586854e-09  -9.9340787621402413e-09  -9.9333588599603578e-09  -9.9327887053833352e-09  -9.9323579083634436e-09  -9.9320573495948123e-09  -9.9318799787152141e-09  -9.9318213360117482e-09  -9.9318798496509593e-09  -9.9320569207333953e-09  -9.9323568004188963e-09  -9.9327862892420182e-09  -9.9333542320623071e-09  -9.9340707136136616e-09  -9.9349458685068669e-09  -9.9359882761235640e-09  -9.9372028776727658e-09  -9.9385884425610084e-09  -9.9401348726238753e-09  -9.9418204248643904e-09  -9.9436097449887050e-09  -9.9454536998080558e-09  -9.9472814198541214e-09  -9.9490385254992132e-09  -9.9505688006529523e-09  -9.9518704677312844e-09  -9.9541532743257765e-09  -9.9155858621914168e-09  -9.9108470434401040e-09  -9.9471589729025085e-09  -9.9438696309900034e-09  -9.9435217691627061e-09  -9.9430059356357815e-09  -9.9420887811612155e-09  -9.9408827437059721e-09  -9.9395190847527176e-09  -9.9381007080264694e-09  -9.9367040215779210e-09  -9.9353824118179001e-09  -9.9341707661676012e-09  -9.9330894177753064e-09  -9.9321477430220574e-09  -9.9313475839909645e-09  -9.9306860335034309e-09  -9.9301575704228858e-09  -9.9297557962894234e-09  -9.9294746643613881e-09  -9.9293092547129865e-09  -9.9292563380494791e-09  -9.9293147387515011e-09  -9.9294854365091019e-09  -9.9297713590604361e-09  -9.9301770360253837e-09  -9.9307081082841007e-09  -9.9313704773091954e-09  -9.9321689967873249e-09  -9.9331058215787179e-09  -9.9341781439877663e-09  -9.9353752504100258e-09  -9.9366751193970435e-09  -9.9380402055485512e-09  -9.9394136243690535e-09  -9.9407117823411781e-09  -9.9418202515584980e-09  -9.9426467387810180e-09  -9.9429704349439792e-09  -9.9440205825112623e-09  -9.9492096122141532e-09  -9.9133478982292702e-09  -9.8903089416219322e-09  -9.9247484213988270e-09  -9.9142238685563541e-09  -9.9184995354088097e-09  -9.9213916880749531e-09  -9.9221213660721963e-09  -9.9215243045520064e-09  -9.9200748341699852e-09  -9.9181099484319726e-09  -9.9158547070953279e-09  -9.9134702778182901e-09  -9.9110774727635663e-09  -9.9087678823410588e-09  -9.9066101605150550e-09  -9.9046566710528754e-09  -9.9029472012826965e-09  -9.9015107028030631e-09  -9.9003683573677938e-09  -9.8995354303938848e-09  -9.8990217578783504e-09  -9.8988329984349209e-09  -9.8989717137952690e-09  -9.8994374756852496e-09  -9.9002259129539993e-09  -9.9013280631346967e-09  -9.9027301500347451e-09  -9.9044120526824478e-09  -9.9063448908383893e-09  -9.9084893110927441e-09  -9.9107925386471755e-09  -9.9131836558645540e-09  -9.9155686602376520e-09  -9.9178227524823662e-09  -9.9197778161105459e-09  -9.9211900115329716e-09  -9.9217284843488699e-09  -9.9209351433896721e-09  -9.9175675791205264e-09  -9.9147151379962436e-09  -9.9211165373444244e-09  -9.9038353954830506e-09  5.4639597312291774e-02  5.6475989962615790e-02  5.0622505238126746e-02  3.8440339015102062e-02  3.4319956103771546e-02  3.3359074597445658e-02  3.4955506882935666e-02  3.8010585660033638e-02  4.1916311744387473e-02  4.6227158427089805e-02  5.0645069543900079e-02  5.4962478697484697e-02  5.9033980530827201e-02  6.2763129326626407e-02  6.6083652341608082e-02  6.8950556067187377e-02  7.1336742731784544e-02  7.3225220346098213e-02  7.4604064277747933e-02  7.5466756183871220e-02  7.5811373907765336e-02  7.5636328296444399e-02  7.4938935370773049e-02  7.3719240644573678e-02  7.1981189481925778e-02  6.9731688766046782e-02  6.6983133165476744e-02  6.3759856023463957e-02  6.0098375606241553e-02  5.6051748383797888e-02  5.1708451298464755e-02  4.7204326162212540e-02  4.2729943140466797e-02  3.8575809015851385e-02  3.5180048887343336e-02  3.3123409184977706e-02  3.3418081640598576e-02  3.7878302667263712e-02  4.5496875597874534e-02  7.2607113350740729e-02  9.5495286649462680e-03  5.2019608390553274e-01  4.8224914949071218e-01  4.2726034103364602e-01  4.0861519075965547e-01  4.0122026619026624e-01  3.9636558212223078e-01  3.9372092077843618e-01  3.9214223726428160e-01  3.9143525122763417e-01  3.9135943766156234e-01  3.9176197479778435e-01  3.9250590070524405e-01  3.9346959074906240e-01  3.9454679345389659e-01  3.9564736141159063e-01  3.9669609950756451e-01  3.9763293908643355e-01  3.9841161646495243e-01  3.9899726373235211e-01  3.9936547958201973e-01  3.9950198299701556e-01  3.9940134483693396e-01  3.9906586398424437e-01  3.9850639723396802e-01  3.9774376532396305e-01  3.9680932495256427e-01  3.9574587472546735e-01  3.9461002437044640e-01  3.9347410059826088e-01  3.9242531469290498e-01  3.9157110255071242e-01  3.9104162897229772e-01  3.9098309093614592e-01  3.9158430972396779e-01  3.9307164397655375e-01  3.9583917536731583e-01  4.0069419559867653e-01  4.0849720844312326e-01  4.2529130990072816e-01  4.6513141677129144e-01  5.3491347769671704e-01  7.6626431975112486e-01  7.4590664763232883e-01  7.2200373338313129e-01  7.0779128714618000e-01  6.9273504189589752e-01  6.8077870432866538e-01  6.7085776006374309e-01  6.6228146139113375e-01  6.5502716251938486e-01  6.4893583643529462e-01  6.4391121581793520e-01  6.3982204281860600e-01  6.3653686582335622e-01  6.3393001834630702e-01  6.3188916950916119e-01  6.3031767360901436e-01  6.2913537491261562e-01  6.2827839758329262e-01  6.2769823521521761e-01  6.2736085614653925e-01  6.2724605146276102e-01  6.2734684973933175e-01  6.2766917313644599e-01  6.2823205956598038e-01  6.2906831496622051e-01  6.3022531703304241e-01  6.3176565157480324e-01  6.3376792103492463e-01  6.3632674995089844e-01  6.3955146017750109e-01  6.4356661344903310e-01  6.4849238366384365e-01  6.5445352285637126e-01  6.6158379863678063e-01  6.6997988369400030e-01  6.7988290536907203e-01  6.9138897758016193e-01  7.0567857826096658e-01  7.2621767709986373e-01  7.5235030403739056e-01  7.7265028170061623e-01  8.4995963121862228e-01  8.4259720883383282e-01  8.1943613169928187e-01  7.9644192018771154e-01  7.7735491235730969e-01  7.6234089069215472e-01  7.4902846453509409e-01  7.3726240476014171e-01  7.2694032058160940e-01  7.1799331518833309e-01  7.1033037246190978e-01  7.0381934848926164e-01  6.9833376834597638e-01  6.9375644730207819e-01  6.8998468231177079e-01  6.8693089561547194e-01  6.8452272193076569e-01  6.8270245160559573e-01  6.8142629293058077e-01  6.8066369385833014e-01  6.8039678268514414e-01  6.8061998113638844e-01  6.8133986235770250e-01  6.8257533194001041e-01  6.8435813928131228e-01  6.8673347326646295e-01  6.8976059145142010e-01  6.9351357640516831e-01  6.9808173257093442e-01  7.0356978808353954e-01  7.1009711051361335e-01  7.1778251560907380e-01  7.2679333776104804e-01  7.3717990039173342e-01  7.4893619281723700e-01  7.6216378824367148e-01  7.7704579975250232e-01  7.9611572108632411e-01  8.1907902797602916e-01  8.4242756086441595e-01  8.4989343692861152e-01  7.7420223055606319e-01  7.5018096737833995e-01  7.1926670561434913e-01  6.9331411244893981e-01  6.7370632450862766e-01  6.5722005145243401e-01  6.4229524695046192e-01  6.2890841134762265e-01  6.1717338804823951e-01  6.0698315240407208e-01  5.9817177208232375e-01  5.9057230256652271e-01  5.8405247081865508e-01  5.7850394682021999e-01  5.7383996280014593e-01  5.6999091147723169e-01  5.6690169573166360e-01  5.6452970893329824e-01  5.6284344443536727e-01  5.6182148656752484e-01  5.6145183564063639e-01  5.6173151847360858e-01  5.6266644486154727e-01  5.6427160092949424e-01  5.6657152365807817e-01  5.6960093093251163e-01  5.7340561443782667e-01  5.7804356064104601e-01  5.8358627312681544e-01  5.9012102688670920e-01  5.9775182799270654e-01  6.0659674785554263e-01  6.1679106512383863e-01  6.2831692881228662e-01  6.4164024430240718e-01  6.5677716557329913e-01  6.7401605059413860e-01  6.9441524869358029e-01  7.1370269263880171e-01  7.4274962055886862e-01  7.6628430883417387e-01  5.3432875492121346e-01  4.5853156787738325e-01  4.0822349873412067e-01  3.8031647429776100e-01  3.6211309400848241e-01  3.4636352439619655e-01  3.3249419419313025e-01  3.2140706975255512e-01  3.1222549601098171e-01  3.0448839795476396e-01  2.9783617063484535e-01  2.9206940888666916e-01  2.8706314795519572e-01  2.8274013087108701e-01  2.7905100558877743e-01  2.7596341362863658e-01  2.7345598388931419e-01  2.7151456064330248e-01  2.7013004125865625e-01  2.6929703968399454e-01  2.6901314282960670e-01  2.6927858012148848e-01  2.7009610879319612e-01  2.7147117561683437e-01  2.7341254212039756e-01  2.7593329387052706e-01  2.7905223242153882e-01  2.8279645778988471e-01  2.8720572466186101e-01  2.9233964115669947e-01  2.9829159066921279e-01  3.0521267095851279e-01  3.1333681135852076e-01  3.2311314105263811e-01  3.3509415410044402e-01  3.4772913093093616e-01  3.6246335740243446e-01  3.8069431377007490e-01  4.1024269760517673e-01  4.7646972528784187e-01  5.2107930890985277e-01  1.0650659935468163e-02  7.2010313399859027e-02  3.7217598018045452e-02  2.1184589503783012e-02  8.6439523097827358e-03  1.5760933656549825e-04  -8.3893625786109569e-09  -9.0795418691739767e-09  -9.2602393709168012e-09  -9.3441633875467446e-09  -9.3944747558838230e-09  -9.4291354390099466e-09  -9.4553360912037818e-09  -9.4762282479591129e-09  -9.4932951043608391e-09  -9.5072656733874729e-09  -9.5185153651873745e-09  -9.5272494275326868e-09  -9.5335871823856491e-09  -9.5376007954880615e-09  -9.5393323198050931e-09  -9.5388012276974626e-09  -9.5360061772786395e-09  -9.5309203288221908e-09  -9.5234808665902195e-09  -9.5135679876056775e-09  -9.5009582111634030e-09  -9.4852254801549074e-09  -9.4655370928498738e-09  -9.4402071104313170e-09  -9.4056417040979503e-09  -9.3536432987900062e-09  -9.2622009062130413e-09  -9.0441647570246281e-09  -8.1009076863109347e-09  1.7118210772695574e-03  1.0761787616468165e-02  2.2987373793887492e-02  4.3408092787777797e-02  5.6103916066435659e-02  5.5259154168447587e-02  -9.9023468348984238e-09  -9.9166346762445521e-09  -9.9106418306610692e-09  -9.9160659109348781e-09  -9.9218295027536657e-09  -9.9246813405848910e-09  -9.9263100628507118e-09  -9.9271225456432235e-09  -9.9269608720480047e-09  -9.9264319938558838e-09  -9.9257635653747040e-09  -9.9250669641551384e-09  -9.9244028041402319e-09  -9.9238030665216929e-09  -9.9232835263837164e-09  -9.9228502994967541e-09  -9.9225040053493750e-09  -9.9222424816385432e-09  -9.9220625732902896e-09  -9.9219613055755170e-09  -9.9219366195368190e-09  -9.9219877807639667e-09  -9.9221155126248076e-09  -9.9223218680813794e-09  -9.9226098383152246e-09  -9.9229826486185248e-09  -9.9234426270575917e-09  -9.9239894809768692e-09  -9.9246177077199279e-09  -9.9253126384731446e-09  -9.9260441658355215e-09  -9.9267558534691617e-09  -9.9273419160714509e-09  -9.9275960384452570e-09  -9.9271033924014180e-09  -9.9252821305042324e-09  -9.9221005134295023e-09  -9.9167539783419182e-09  -9.9094594609269745e-09  -9.9206148412219780e-09  -9.8884899196397174e-09  -9.9125424272667356e-09  -9.9477222776448351e-09  -9.9420354347185176e-09  -9.9413914555572287e-09  -9.9416231655319807e-09  -9.9413191277043221e-09  -9.9407240767479158e-09  -9.9398638154666078e-09  -9.9387852030529382e-09  -9.9376505193744051e-09  -9.9365333452931397e-09  -9.9354851851671429e-09  -9.9345349399298213e-09  -9.9336976440608749e-09  -9.9329795172263444e-09  -9.9323812386457359e-09  -9.9319003534854096e-09  -9.9315329878249114e-09  -9.9312750687104041e-09  -9.9311231656197575e-09  -9.9310750370843735e-09  -9.9311299390153730e-09  -9.9312887252938124e-09  -9.9315537504135689e-09  -9.9319285665404727e-09  -9.9324173838257188e-09  -9.9330242373541494e-09  -9.9337517822996998e-09  -9.9345996107000551e-09  -9.9355619428510160e-09  -9.9366244739814964e-09  -9.9377599863864110e-09  -9.9389224255595457e-09  -9.9400407629258689e-09  -9.9410199706150714e-09  -9.9417595115409199e-09  -9.9421630095019143e-09  -9.9421717316603205e-09  -9.9420248894249147e-09  -9.9454802946625145e-09  -9.9097945938359739e-09  -9.9150276889702533e-09  -9.9533035750288953e-09  -9.9508575639335573e-09  -9.9497039397916388e-09  -9.9483784623415296e-09  -9.9468482168682270e-09  -9.9452603355304275e-09  -9.9436389309584192e-09  -9.9420235947226240e-09  -9.9404641140483714e-09  -9.9389961977758049e-09  -9.9376512280314725e-09  -9.9364477967693527e-09  -9.9353954620501807e-09  -9.9344968576915623e-09  -9.9337500216756570e-09  -9.9331503806178516e-09  -9.9326923234549989e-09  -9.9323703957779873e-09  -9.9321801563199324e-09  -9.9321187465119959e-09  -9.9321852149983879e-09  -9.9323806239654867e-09  -9.9327079465864033e-09  -9.9331717467460498e-09  -9.9337776143696063e-09  -9.9345313150740651e-09  -9.9354376062945333e-09  -9.9364986797492907e-09  -9.9377122218334805e-09  -9.9390691592791833e-09  -9.9405513438194797e-09  -9.9421298631727849e-09  -9.9437653655060218e-09  -9.9454114131309243e-09  -9.9470175892550731e-09  -9.9485271786049405e-09  -9.9498681212355220e-09  -9.9510043219351265e-09  -9.9530843221824250e-09  -9.9135637812437659e-09  -9.9168952560395328e-09  -9.9564201977036125e-09  -9.9549883703342477e-09  -9.9536746763627166e-09  -9.9520283422198058e-09  -9.9501701713070727e-09  -9.9482062238801885e-09  -9.9462211191239091e-09  -9.9442803526125114e-09  -9.9424303253444918e-09  -9.9407079864773265e-09  -9.9391397708251649e-09  -9.9377416609376891e-09  -9.9365214325748568e-09  -9.9354803489078728e-09  -9.9346152756370667e-09  -9.9339205564789254e-09  -9.9333895921388680e-09  -9.9330160793215274e-09  -9.9327949207969016e-09  -9.9327228398363165e-09  -9.9327987330531520e-09  -9.9330237858610378e-09  -9.9334013591461725e-09  -9.9339366384464858e-09  -9.9346360212458816e-09  -9.9355062078619962e-09  -9.9365529625314328e-09  -9.9377795309437516e-09  -9.9391847480157681e-09  -9.9407609551275324e-09  -9.9424919696098825e-09  -9.9443514412920446e-09  -9.9463017065538302e-09  -9.9482923012519541e-09  -9.9502563975050169e-09  -9.9521040159087665e-09  -9.9537175656924313e-09  -9.9549806383964693e-09  -9.9562230031907896e-09  -9.9160271851880073e-09  -9.9179489668049361e-09  -9.9580429239765375e-09  -9.9570609328847148e-09  -9.9558040681199848e-09  -9.9541430404372208e-09  -9.9521973610281535e-09  -9.9500927842512037e-09  -9.9479393214312517e-09  -9.9458196685805344e-09  -9.9437949104035105e-09  -9.9419091334440981e-09  -9.9401916493619566e-09  -9.9386601254965600e-09  -9.9373229100508502e-09  -9.9361813797897645e-09  -9.9352322252465454e-09  -9.9344694441231727e-09  -9.9338860155124901e-09  -9.9334752176159275e-09  -9.9332316025987762e-09  -9.9331516587262425e-09  -9.9332341920702865e-09  -9.9334804512810964e-09  -9.9338940038179902e-09  -9.9344803549156679e-09  -9.9352462852999831e-09  -9.9361988743726519e-09  -9.9373441768645412e-09  -9.9386855375946371e-09  -9.9402215632925082e-09  -9.9419438171242989e-09  -9.9438343409591696e-09  -9.9458630765515666e-09  -9.9479851038889874e-09  -9.9501374943528021e-09  -9.9522360177300750e-09  -9.9541732296362336e-09  -9.9558231070588399e-09  -9.9570589518998312e-09  -9.9579440228181652e-09  -9.9174728176244467e-09  -9.9184638041193417e-09  -9.9588558211629846e-09  -9.9581035235340598e-09  -9.9568928509233677e-09  -9.9552491027811604e-09  -9.9532910368555053e-09  -9.9511439505296202e-09  -9.9489216627050518e-09  -9.9467171434447968e-09  -9.9446015425063908e-09  -9.9426255912632769e-09  -9.9408229547918061e-09  -9.9392136990899135e-09  -9.9378073853750109e-09  -9.9366059724010048e-09  -9.9356063469891815e-09  -9.9348024868461516e-09  -9.9341872377394702e-09  -9.9337537030609660e-09  -9.9334962706614221e-09  -9.9334113107631740e-09  -9.9334975786705971e-09  -9.9337563462617548e-09  -9.9341912708196252e-09  -9.9348079923845660e-09  -9.9356134352463326e-09  -9.9366147791518