<?xml version="1.0"?>
<VTKFile type="UnstructuredGrid"  version="0.1"  >
<UnstructuredGrid>
<Piece  NumberOfPoints="1681" NumberOfCells="3200">
<Points>
<DataArray  type="Float64"  NumberOfComponents="3"  format="ascii">0 0 0  0.025 0 0  0.05 0 0  0.075 0 0  0.1 0 0  0.125 0 0  0.15 0 0  0.175 0 0  0.2 0 0  0.225 0 0  0.25 0 0  0.275 0 0  0.3 0 0  0.325 0 0  0.35 0 0  0.375 0 0  0.4 0 0  0.425 0 0  0.45 0 0  0.475 0 0  0.5 0 0  0.525 0 0  0.55 0 0  0.575 0 0  0.6 0 0  0.625 0 0  0.65 0 0  0.675 0 0  0.7 0 0  0.725 0 0  0.75 0 0  0.775 0 0  0.8 0 0  0.825 0 0  0.85 0 0  0.875 0 0  0.9 0 0  0.925 0 0  0.95 0 0  0.975 0 0  1 0 0  0 0.025 0  0.025 0.025 0  0.05 0.025 0  0.075 0.025 0  0.1 0.025 0  0.125 0.025 0  0.15 0.025 0  0.175 0.025 0  0.2 0.025 0  0.225 0.025 0  0.25 0.025 0  0.275 0.025 0  0.3 0.025 0  0.325 0.025 0  0.35 0.025 0  0.375 0.025 0  0.4 0.025 0  0.425 0.025 0  0.45 0.025 0  0.475 0.025 0  0.5 0.025 0  0.525 0.025 0  0.55 0.025 0  0.575 0.025 0  0.6 0.025 0  0.625 0.025 0  0.65 0.025 0  0.675 0.025 0  0.7 0.025 0  0.725 0.025 0  0.75 0.025 0  0.775 0.025 0  0.8 0.025 0  0.825 0.025 0  0.85 0.025 0  0.875 0.025 0  0.9 0.025 0  0.925 0.025 0  0.95 0.025 0  0.975 0.025 0  1 0.025 0  0 0.05 0  0.025 0.05 0  0.05 0.05 0  0.075 0.05 0  0.1 0.05 0  0.125 0.05 0  0.15 0.05 0  0.175 0.05 0  0.2 0.05 0  0.225 0.05 0  0.25 0.05 0  0.275 0.05 0  0.3 0.05 0  0.325 0.05 0  0.35 0.05 0  0.375 0.05 0  0.4 0.05 0  0.425 0.05 0  0.45 0.05 0  0.475 0.05 0  0.5 0.05 0  0.525 0.05 0  0.55 0.05 0  0.575 0.05 0  0.6 0.05 0  0.625 0.05 0  0.65 0.05 0  0.675 0.05 0  0.7 0.05 0  0.725 0.05 0  0.75 0.05 0  0.775 0.05 0  0.8 0.05 0  0.825 0.05 0  0.85 0.05 0  0.875 0.05 0  0.9 0.05 0  0.925 0.05 0  0.95 0.05 0  0.975 0.05 0  1 0.05 0  0 0.075 0  0.025 0.075 0  0.05 0.075 0  0.075 0.075 0  0.1 0.075 0  0.125 0.075 0  0.15 0.075 0  0.175 0.075 0  0.2 0.075 0  0.225 0.075 0  0.25 0.075 0  0.275 0.075 0  0.3 0.075 0  0.325 0.075 0  0.35 0.075 0  0.375 0.075 0  0.4 0.075 0  0.425 0.075 0  0.45 0.075 0  0.475 0.075 0  0.5 0.075 0  0.525 0.075 0  0.55 0.075 0  0.575 0.075 0  0.6 0.075 0  0.625 0.075 0  0.65 0.075 0  0.675 0.075 0  0.7 0.075 0  0.725 0.075 0  0.75 0.075 0  0.775 0.075 0  0.8 0.075 0  0.825 0.075 0  0.85 0.075 0  0.875 0.075 0  0.9 0.075 0  0.925 0.075 0  0.95 0.075 0  0.975 0.075 0  1 0.075 0  0 0.1 0  0.025 0.1 0  0.05 0.1 0  0.075 0.1 0  0.1 0.1 0  0.125 0.1 0  0.15 0.1 0  0.175 0.1 0  0.2 0.1 0  0.225 0.1 0  0.25 0.1 0  0.275 0.1 0  0.3 0.1 0  0.325 0.1 0  0.35 0.1 0  0.375 0.1 0  0.4 0.1 0  0.425 0.1 0  0.45 0.1 0  0.475 0.1 0  0.5 0.1 0  0.525 0.1 0  0.55 0.1 0  0.575 0.1 0  0.6 0.1 0  0.625 0.1 0  0.65 0.1 0  0.675 0.1 0  0.7 0.1 0  0.725 0.1 0  0.75 0.1 0  0.775 0.1 0  0.8 0.1 0  0.825 0.1 0  0.85 0.1 0  0.875 0.1 0  0.9 0.1 0  0.925 0.1 0  0.95 0.1 0  0.975 0.1 0  1 0.1 0  0 0.125 0  0.025 0.125 0  0.05 0.125 0  0.075 0.125 0  0.1 0.125 0  0.125 0.125 0  0.15 0.125 0  0.175 0.125 0  0.2 0.125 0  0.225 0.125 0  0.25 0.125 0  0.275 0.125 0  0.3 0.125 0  0.325 0.125 0  0.35 0.125 0  0.375 0.125 0  0.4 0.125 0  0.425 0.125 0  0.45 0.125 0  0.475 0.125 0  0.5 0.125 0  0.525 0.125 0  0.55 0.125 0  0.575 0.125 0  0.6 0.125 0  0.625 0.125 0  0.65 0.125 0  0.675 0.125 0  0.7 0.125 0  0.725 0.125 0  0.75 0.125 0  0.775 0.125 0  0.8 0.125 0  0.825 0.125 0  0.85 0.125 0  0.875 0.125 0  0.9 0.125 0  0.925 0.125 0  0.95 0.125 0  0.975 0.125 0  1 0.125 0  0 0.15 0  0.025 0.15 0  0.05 0.15 0  0.075 0.15 0  0.1 0.15 0  0.125 0.15 0  0.15 0.15 0  0.175 0.15 0  0.2 0.15 0  0.225 0.15 0  0.25 0.15 0  0.275 0.15 0  0.3 0.15 0  0.325 0.15 0  0.35 0.15 0  0.375 0.15 0  0.4 0.15 0  0.425 0.15 0  0.45 0.15 0  0.475 0.15 0  0.5 0.15 0  0.525 0.15 0  0.55 0.15 0  0.575 0.15 0  0.6 0.15 0  0.625 0.15 0  0.65 0.15 0  0.675 0.15 0  0.7 0.15 0  0.725 0.15 0  0.75 0.15 0  0.775 0.15 0  0.8 0.15 0  0.825 0.15 0  0.85 0.15 0  0.875 0.15 0  0.9 0.15 0  0.925 0.15 0  0.95 0.15 0  0.975 0.15 0  1 0.15 0  0 0.175 0  0.025 0.175 0  0.05 0.175 0  0.075 0.175 0  0.1 0.175 0  0.125 0.175 0  0.15 0.175 0  0.175 0.175 0  0.2 0.175 0  0.225 0.175 0  0.25 0.175 0  0.275 0.175 0  0.3 0.175 0  0.325 0.175 0  0.35 0.175 0  0.375 0.175 0  0.4 0.175 0  0.425 0.175 0  0.45 0.175 0  0.475 0.175 0  0.5 0.175 0  0.525 0.175 0  0.55 0.175 0  0.575 0.175 0  0.6 0.175 0  0.625 0.175 0  0.65 0.175 0  0.675 0.175 0  0.7 0.175 0  0.725 0.175 0  0.75 0.175 0  0.775 0.175 0  0.8 0.175 0  0.825 0.175 0  0.85 0.175 0  0.875 0.175 0  0.9 0.175 0  0.925 0.175 0  0.95 0.175 0  0.975 0.175 0  1 0.175 0  0 0.2 0  0.025 0.2 0  0.05 0.2 0  0.075 0.2 0  0.1 0.2 0  0.125 0.2 0  0.15 0.2 0  0.175 0.2 0  0.2 0.2 0  0.225 0.2 0  0.25 0.2 0  0.275 0.2 0  0.3 0.2 0  0.325 0.2 0  0.35 0.2 0  0.375 0.2 0  0.4 0.2 0  0.425 0.2 0  0.45 0.2 0  0.475 0.2 0  0.5 0.2 0  0.525 0.2 0  0.55 0.2 0  0.575 0.2 0  0.6 0.2 0  0.625 0.2 0  0.65 0.2 0  0.675 0.2 0  0.7 0.2 0  0.725 0.2 0  0.75 0.2 0  0.775 0.2 0  0.8 0.2 0  0.825 0.2 0  0.85 0.2 0  0.875 0.2 0  0.9 0.2 0  0.925 0.2 0  0.95 0.2 0  0.975 0.2 0  1 0.2 0  0 0.225 0  0.025 0.225 0  0.05 0.225 0  0.075 0.225 0  0.1 0.225 0  0.125 0.225 0  0.15 0.225 0  0.175 0.225 0  0.2 0.225 0  0.225 0.225 0  0.25 0.225 0  0.275 0.225 0  0.3 0.225 0  0.325 0.225 0  0.35 0.225 0  0.375 0.225 0  0.4 0.225 0  0.425 0.225 0  0.45 0.225 0  0.475 0.225 0  0.5 0.225 0  0.525 0.225 0  0.55 0.225 0  0.575 0.225 0  0.6 0.225 0  0.625 0.225 0  0.65 0.225 0  0.675 0.225 0  0.7 0.225 0  0.725 0.225 0  0.75 0.225 0  0.775 0.225 0  0.8 0.225 0  0.825 0.225 0  0.85 0.225 0  0.875 0.225 0  0.9 0.225 0  0.925 0.225 0  0.95 0.225 0  0.975 0.225 0  1 0.225 0  0 0.25 0  0.025 0.25 0  0.05 0.25 0  0.075 0.25 0  0.1 0.25 0  0.125 0.25 0  0.15 0.25 0  0.175 0.25 0  0.2 0.25 0  0.225 0.25 0  0.25 0.25 0  0.275 0.25 0  0.3 0.25 0  0.325 0.25 0  0.35 0.25 0  0.375 0.25 0  0.4 0.25 0  0.425 0.25 0  0.45 0.25 0  0.475 0.25 0  0.5 0.25 0  0.525 0.25 0  0.55 0.25 0  0.575 0.25 0  0.6 0.25 0  0.625 0.25 0  0.65 0.25 0  0.675 0.25 0  0.7 0.25 0  0.725 0.25 0  0.75 0.25 0  0.775 0.25 0  0.8 0.25 0  0.825 0.25 0  0.85 0.25 0  0.875 0.25 0  0.9 0.25 0  0.925 0.25 0  0.95 0.25 0  0.975 0.25 0  1 0.25 0  0 0.275 0  0.025 0.275 0  0.05 0.275 0  0.075 0.275 0  0.1 0.275 0  0.125 0.275 0  0.15 0.275 0  0.175 0.275 0  0.2 0.275 0  0.225 0.275 0  0.25 0.275 0  0.275 0.275 0  0.3 0.275 0  0.325 0.275 0  0.35 0.275 0  0.375 0.275 0  0.4 0.275 0  0.425 0.275 0  0.45 0.275 0  0.475 0.275 0  0.5 0.275 0  0.525 0.275 0  0.55 0.275 0  0.575 0.275 0  0.6 0.275 0  0.625 0.275 0  0.65 0.275 0  0.675 0.275 0  0.7 0.275 0  0.725 0.275 0  0.75 0.275 0  0.775 0.275 0  0.8 0.275 0  0.825 0.275 0  0.85 0.275 0  0.875 0.275 0  0.9 0.275 0  0.925 0.275 0  0.95 0.275 0  0.975 0.275 0  1 0.275 0  0 0.3 0  0.025 0.3 0  0.05 0.3 0  0.075 0.3 0  0.1 0.3 0  0.125 0.3 0  0.15 0.3 0  0.175 0.3 0  0.2 0.3 0  0.225 0.3 0  0.25 0.3 0  0.275 0.3 0  0.3 0.3 0  0.325 0.3 0  0.35 0.3 0  0.375 0.3 0  0.4 0.3 0  0.425 0.3 0  0.45 0.3 0  0.475 0.3 0  0.5 0.3 0  0.525 0.3 0  0.55 0.3 0  0.575 0.3 0  0.6 0.3 0  0.625 0.3 0  0.65 0.3 0  0.675 0.3 0  0.7 0.3 0  0.725 0.3 0  0.75 0.3 0  0.775 0.3 0  0.8 0.3 0  0.825 0.3 0  0.85 0.3 0  0.875 0.3 0  0.9 0.3 0  0.925 0.3 0  0.95 0.3 0  0.975 0.3 0  1 0.3 0  0 0.325 0  0.025 0.325 0  0.05 0.325 0  0.075 0.325 0  0.1 0.325 0  0.125 0.325 0  0.15 0.325 0  0.175 0.325 0  0.2 0.325 0  0.225 0.325 0  0.25 0.325 0  0.275 0.325 0  0.3 0.325 0  0.325 0.325 0  0.35 0.325 0  0.375 0.325 0  0.4 0.325 0  0.425 0.325 0  0.45 0.325 0  0.475 0.325 0  0.5 0.325 0  0.525 0.325 0  0.55 0.325 0  0.575 0.325 0  0.6 0.325 0  0.625 0.325 0  0.65 0.325 0  0.675 0.325 0  0.7 0.325 0  0.725 0.325 0  0.75 0.325 0  0.775 0.325 0  0.8 0.325 0  0.825 0.325 0  0.85 0.325 0  0.875 0.325 0  0.9 0.325 0  0.925 0.325 0  0.95 0.325 0  0.975 0.325 0  1 0.325 0  0 0.35 0  0.025 0.35 0  0.05 0.35 0  0.075 0.35 0  0.1 0.35 0  0.125 0.35 0  0.15 0.35 0  0.175 0.35 0  0.2 0.35 0  0.225 0.35 0  0.25 0.35 0  0.275 0.35 0  0.3 0.35 0  0.325 0.35 0  0.35 0.35 0  0.375 0.35 0  0.4 0.35 0  0.425 0.35 0  0.45 0.35 0  0.475 0.35 0  0.5 0.35 0  0.525 0.35 0  0.55 0.35 0  0.575 0.35 0  0.6 0.35 0  0.625 0.35 0  0.65 0.35 0  0.675 0.35 0  0.7 0.35 0  0.725 0.35 0  0.75 0.35 0  0.775 0.35 0  0.8 0.35 0  0.825 0.35 0  0.85 0.35 0  0.875 0.35 0  0.9 0.35 0  0.925 0.35 0  0.95 0.35 0  0.975 0.35 0  1 0.35 0  0 0.375 0  0.025 0.375 0  0.05 0.375 0  0.075 0.375 0  0.1 0.375 0  0.125 0.375 0  0.15 0.375 0  0.175 0.375 0  0.2 0.375 0  0.225 0.375 0  0.25 0.375 0  0.275 0.375 0  0.3 0.375 0  0.325 0.375 0  0.35 0.375 0  0.375 0.375 0  0.4 0.375 0  0.425 0.375 0  0.45 0.375 0  0.475 0.375 0  0.5 0.375 0  0.525 0.375 0  0.55 0.375 0  0.575 0.375 0  0.6 0.375 0  0.625 0.375 0  0.65 0.375 0  0.675 0.375 0  0.7 0.375 0  0.725 0.375 0  0.75 0.375 0  0.775 0.375 0  0.8 0.375 0  0.825 0.375 0  0.85 0.375 0  0.875 0.375 0  0.9 0.375 0  0.925 0.375 0  0.95 0.375 0  0.975 0.375 0  1 0.375 0  0 0.4 0  0.025 0.4 0  0.05 0.4 0  0.075 0.4 0  0.1 0.4 0  0.125 0.4 0  0.15 0.4 0  0.175 0.4 0  0.2 0.4 0  0.225 0.4 0  0.25 0.4 0  0.275 0.4 0  0.3 0.4 0  0.325 0.4 0  0.35 0.4 0  0.375 0.4 0  0.4 0.4 0  0.425 0.4 0  0.45 0.4 0  0.475 0.4 0  0.5 0.4 0  0.525 0.4 0  0.55 0.4 0  0.575 0.4 0  0.6 0.4 0  0.625 0.4 0  0.65 0.4 0  0.675 0.4 0  0.7 0.4 0  0.725 0.4 0  0.75 0.4 0  0.775 0.4 0  0.8 0.4 0  0.825 0.4 0  0.85 0.4 0  0.875 0.4 0  0.9 0.4 0  0.925 0.4 0  0.95 0.4 0  0.975 0.4 0  1 0.4 0  0 0.425 0  0.025 0.425 0  0.05 0.425 0  0.075 0.425 0  0.1 0.425 0  0.125 0.425 0  0.15 0.425 0  0.175 0.425 0  0.2 0.425 0  0.225 0.425 0  0.25 0.425 0  0.275 0.425 0  0.3 0.425 0  0.325 0.425 0  0.35 0.425 0  0.375 0.425 0  0.4 0.425 0  0.425 0.425 0  0.45 0.425 0  0.475 0.425 0  0.5 0.425 0  0.525 0.425 0  0.55 0.425 0  0.575 0.425 0  0.6 0.425 0  0.625 0.425 0  0.65 0.425 0  0.675 0.425 0  0.7 0.425 0  0.725 0.425 0  0.75 0.425 0  0.775 0.425 0  0.8 0.425 0  0.825 0.425 0  0.85 0.425 0  0.875 0.425 0  0.9 0.425 0  0.925 0.425 0  0.95 0.425 0  0.975 0.425 0  1 0.425 0  0 0.45 0  0.02
[...]
<PointData  Scalars="ControlVisualisation"> 
<DataArray  type="Float64"  Name="ControlVisualisation"  format="ascii">1.9000446193563009e-01  1.8996409659666000e-01  1.9000294811082727e-01  1.9007890692834806e-01  1.9017365272718120e-01  1.9026864369718893e-01  1.9035157202490771e-01  1.9041687833813919e-01  1.9046400778576292e-01  1.9049519013252730e-01  1.9051372663197774e-01  1.9052296467390795e-01  1.9052581815946604e-01  1.9052462015487956e-01  1.9052114265413933e-01  1.9051668266080382e-01  1.9051216186915454e-01  1.9050821636585996e-01  1.9050526812038740e-01  1.9050357709160720e-01  1.9050327537827344e-01  1.9050438523801996e-01  1.9050682219852058e-01  1.9051038349453919e-01  1.9051472101830297e-01  1.9051929715678270e-01  1.9052332176262804e-01  1.9052566998288076e-01  1.9052478542054338e-01  1.9051858432834320e-01  1.9050439905740291e-01  1.9047903613983810e-01  1.9043909052515504e-01  1.9038169687264389e-01  1.9030593567101037e-01  1.9021492622732386e-01  1.9011791258931224e-01  1.9003105536924420e-01  1.8997439479334735e-01  1.8995698847409778e-01  1.9005204251092392e-01  1.8996422895121667e-01  1.8994205130551328e-01  1.9029438097507553e-01  1.9091353624126886e-01  1.9169342368386602e-01  1.9248797635319789e-01  1.9319120941088008e-01  1.9375240864049173e-01  1.9416316308274648e-01  1.9443956602547521e-01  1.9460785001442640e-01  1.9469550971759075e-01  1.9472695527697542e-01  1.9472201490524216e-01  1.9469592758119758e-01  1.9465996539710462e-01  1.9462222033436111e-01  1.9458833822350022e-01  1.9456211751209548e-01  1.9454595505167346e-01  1.9454114680073481e-01  1.9454805727320915e-01  1.9456616825284009e-01  1.9459401016405087e-01  1.9462897144361538e-01  1.9466697452589574e-01  1.9470200480273420e-01  1.9472548720799046e-01  1.9472553527862432e-01  1.9468617139172817e-01  1.9458676475298206e-01  1.9440220272566500e-01  1.9410474622279653e-01  1.9366892458710647e-01  1.9308137947804793e-01  1.9235601900903629e-01  1.9155183887055047e-01  1.9078364962860184e-01  1.9019783124251405e-01  1.8988094038587253e-01  1.8995693914923614e-01  1.9000875903311601e-01  1.9034885044544855e-01  1.9116715366405804e-01  1.9225086955708018e-01  1.9354065133822718e-01  1.9483150203691896e-01  1.9595939052440006e-01  1.9684837488477691e-01  1.9749011875631031e-01  1.9791411761324990e-01  1.9816455299279920e-01  1.9828658707349928e-01  1.9831986815889788e-01  1.9829642475064327e-01  1.9824080738444363e-01  1.9817115727859347e-01  1.9810049824592407e-01  1.9803792684892244e-01  1.9798957991163324e-01  1.9795935575754195e-01  1.9794940390354615e-01  1.9796040642577459e-01  1.9799166869191706e-01  1.9804102577529945e-01  1.9810455790817330e-01  1.9817609691566773e-01  1.9824649996964089e-01  1.9830267538217516e-01  1.9832638326890881e-01  1.9829293167635870e-01  1.9817009073898603e-01  1.9791793853026579e-01  1.9749095724871749e-01  1.9684453231775342e-01  1.9594906546390625e-01  1.9481264565261205e-01  1.9351310025727200e-01  1.9221429186592320e-01  1.9110614406816645e-01  1.9022856042556294e-01  1.8997502777405342e-01  1.9012439471162298e-01  1.9129782742798210e-01  1.9277139591521447e-01  1.9401810855203530e-01  1.9530070016529968e-01  1.9651565926561657e-01  1.9753341528820220e-01  1.9830123352239748e-01  1.9882611715147680e-01  1.9914553287870812e-01  1.9930638557708022e-01  1.9935363839093695e-01  1.9932545393935849e-01  1.9925202650972479e-01  1.9915617382064577e-01  1.9905457743465882e-01  1.9895910961253971e-01  1.9887800163449032e-01  1.9881677318268257e-01  1.9877891752621438e-01  1.9876636457125385e-01  1.9877974743073709e-01  1.9881849087211456e-01  1.9888072823564365e-01  1.9896304042000232e-01  1.9905999855880543e-01  1.9916348418583413e-01  1.9926176317327657e-01  1.9933831483463885e-01  1.9937048935716264e-01  1.9932822341225281e-01  1.9917336607147648e-01  1.9886066305245378e-01  1.9834245610520096e-01  1.9757981558246526e-01  1.9656275489238353e-01  1.9534283240221698e-01  1.9403362747238898e-01  1.9270641285364870e-01  1.9105504022622843e-01  1.9004531382685277e-01  1.9036259607103198e-01  1.9317771933687769e-01  1.9581948606984048e-01  1.9702462335649429e-01  1.9790462207421908e-01  1.9864900194644836e-01  1.9922335423957158e-01  1.9960982720043607e-01  1.9982473350024310e-01  1.9990153573563005e-01  1.9987730464586861e-01  1.9978577884256912e-01  1.9965474021944696e-01  1.9950571238131232e-01  1.9935468692220526e-01  1.9921317494205690e-01  1.9908924365944708e-01  1.9898839938010646e-01  1.9891427884815094e-01  1.9886915509801625e-01  1.9885427844588635e-01  1.9887007334826290e-01  1.9891620542623054e-01  1.9899152390015146e-01  1.9909387490782227e-01  1.9921977197861024e-01  1.9936390310689839e-01  1.9951845299312840e-01  1.9967223157051675e-01  1.9980964040276686e-01  1.9990960132995725e-01  1.9994476990640897e-01  1.9988166783690609e-01  1.9968314958369890e-01  1.9931445895560843e-01  1.9875709492228932e-01  1.9802312067908454e-01  1.9711916425915002e-01  1.9578660777203277e-01  1.9276733755802791e-01  1.9020430266836907e-01  1.9081620668649543e-01  1.9721630764810449e-01  2.0171637945526386e-01  2.0221966726347851e-01  2.0193268848154333e-01  2.0165649798155433e-01  2.0142357330679619e-01  2.0119274534223525e-01  2.0094513690134325e-01  2.0068036233555533e-01  2.0040650183272685e-01  2.0013391084390098e-01  1.9987225755284999e-01  1.9962942876658418e-01  1.9941136055723585e-01  1.9922226805605833e-01  1.9906500237563735e-01  1.9894140678416214e-01  1.9885261932656265e-01  1.9879930560564901e-01  1.9878182122994331e-01  1.9880030856272127e-01  1.9885473232556583e-01  1.9894485624288163e-01  1.9907015993803470e-01  1.9922969300943633e-01  1.9942186327756378e-01  1.9964416140891258e-01  1.9989284002292093e-01  2.0016260126598526e-01  2.0044642128023643e-01  2.0073578628516661e-01  2.0102184846961893e-01  2.0129854384025950e-01  2.0156841325870645e-01  2.0185434082633044e-01  2.0218971808244096e-01  2.0250546460367486e-01  2.0174081866818988e-01  1.9614738615614907e-01  1.9048659082107594e-01  1.9309103977568298e-01  2.0781620941647175e-01  2.1372422673507549e-01  2.1089644335019475e-01  2.0779950986687784e-01  2.0563730755039281e-01  2.0413936109845340e-01  2.0304412170317127e-01  2.0219758941223273e-01  2.0151425351545629e-01  2.0094633842818249e-01  2.0046647249032523e-01  2.0005841888250084e-01  1.9971211272463099e-01  1.9942099171588404e-01  1.9918055809107613e-01  1.9898760488298517e-01  1.9883980196179046e-01  1.9873547694637597e-01  1.9867350166868158e-01  1.9865323622455150e-01  1.9867450566661002e-01  1.9873759778807720e-01  1.9884327925150369e-01  1.9899283488035330e-01  1.9918814413316790e-01  1.9943182307980145e-01  1.9972748494095141e-01  2.0008021694803571e-01  2.0049745242882647e-01  2.0099057195625808e-01  2.0157785295810196e-01  2.0228994980738882e-01  2.0318027095535851e-01  2.0434436672288109e-01  2.0595745955419922e-01  2.0831618368990737e-01  2.1176093478051616e-01  2.1468858091796561e-01  2.0622087752901963e-01  1.9138366857017111e-01  2.1000468782084691e-01  2.3810067504200880e-01  2.3627099901870904e-01  2.2389430840526220e-01  2.1546279368540933e-01  2.1037947087613429e-01  2.0716631060814167e-01  2.0500464130580179e-01  2.0346773663636133e-01  2.0232517394144717e-01  2.0144604085764645e-01  2.0075251657389676e-01  2.0019648023457240e-01  1.9974711317220856e-01  1.9938405958790870e-01  1.9909352632607646e-01  1.9886599861867499e-01  1.9869487451852347e-01  1.9857563801429612e-01  1.9850535886824000e-01  1.9848239979485280e-01  1.9850626505568814e-01  1.9857755773000649e-01  1.9869803646417464e-01  1.9887078337611985e-01  1.9910051898891049e-01  1.9939413482736484e-01  1.9976157097023764e-01  2.0021726479785898e-01  2.0078257795809321e-01  2.0148995658923452e-01  2.0239025700072197e-01  2.0356616021322371e-01  2.0515777116446049e-01  2.0741413397992930e-01  2.1080445351456140e-01  2.1625233000508629e-01  2.2550931637775212e-01  2.3949470848028279e-01  2.4145714475083369e-01  2.0047905288659040e-01  2.5808935625806345e-01  2.9916328809307052e-01  2.6804009121589939e-01  2.3957466161309121e-01  2.2390352728531462e-01  2.1525218717800099e-01  2.1010900798678087e-01  2.0682178965783840e-01  2.0459160726335662e-01  2.0300511528791843e-01  2.0183366545664427e-01  2.0094379706323931e-01  2.0025404567175728e-01  1.9971279533970923e-01  1.9928631667080099e-01  1.9895202420930186e-01  1.9869454305082984e-01  1.9850335234789054e-01  1.9837134919981497e-01  1.9829397203674587e-01  1.9826868177552012e-01  1.9829468952052517e-01  1.9837287527876343e-01  1.9850588151101844e-01  1.9869840008723744e-01  1.9895771129561254e-01  1.9929459104105079e-01  1.9972479658323344e-01  2.0027150789017178e-01  2.0096941341077870e-01  2.0187173966942470e-01  2.0306277439350387e-01  2.0468122423708573e-01  2.0696586801007333e-01  2.1035147359107695e-01  2.1568339246955409e-01  2.2472188630387971e-01  2.4126364161750194e-01  2.7155262048945045e-01  3.0856548280120349e-01  2.4119089840703370e-01  3.0495578757833364e-01  3.6277416217526604e-01  2.9617796608349750e-01  2.5334209769812588e-01  2.3115827049232990e-01  2.1929364839734322e-01  2.1245348545879891e-01  2.0820291653407788e-01  2.0539465938671778e-01  2.0344599079043893e-01  2.0204024811206431e-01  2.0099530450491523e-01  2.0020127881998265e-01  1.9958921065141863e-01  1.9911440198152314e-01  1.9874714319360784e-01  1.9846735024668802e-01  1.9826136944137246e-01  1.9812003563138084e-01  1.9803748773346605e-01  1.9801046684244844e-01  1.9803794637257852e-01  1.9812101912525890e-01  1.9826301898939649e-01  1.9846990130564099e-01  1.9875095928736772e-01  1.9912003073876139e-01  1.9959747628181915e-01  2.0021343762423643e-01  2.0101331493426916e-01  2.0206725703554193e-01  2.0348724979344571e-01  2.0545934368476965e-01  2.0830762304144759e-01  2.1263051953348328e-01  2.1960508963225506e-01  2.3172006091452979e-01  2.5446826377411597e-01  2.9865469557247309e-01  3.6969093386817381e-01  2.9323315519831489e-01  3.1975160133074493e-01  3.9384918695339355e-01  3.1077712234740984e-01  2.6094785655494579e-01  2.3526641057380654e-01  2.2157419226171327e-01  2.1372856185784558e-01  2.0889563799702016e-01  2.0573473288735847e-01  2.0356409028200834e-01  2.0201468829047459e-01  2.0087498848363125e-01  2.0001773498488321e-01  1.9936324831725652e-01  1.9885997927223062e-01  1.9847372177935663e-01  1.9818138957502873e-01  1.9796731275842702e-01  1.9782098749172319e-01  1.9773570230585821e-01  1.9770772283347179e-01  1.9773586085637110e-01  1.9782134075665966e-01  1.9796793718672012e-01  1.9818241081029817e-01  1.9847532987334371e-01  1.9886245299653035e-01  1.9936699351224865e-01  2.0002334569733704e-01  2.0088334673326680e-01  2.0202713166848088e-01  2.0358270302259240e-01  2.0576286600176044e-01  2.0893883595129883e-01  2.1379627184362399e-01  2.2168198513264292e-01  2.3543600600250350e-01  2.6119399735206833e-01  3.1096454957638775e-01  3.9335619686670381e-01  3.1944127305312003e-01  2.9460995888336378e-01  3.7776404142458025e-01  3.0752747940995107e-01  2.6038457735428233e-01  2.3522347789605066e-01  2.2158864602076567e-01  2.1367914102474883e-01  2.0876829761436241e-01  2.0554107685933046e-01  2.0332001454322010e-01  2.0173445999095579e-01  2.0056983584075611e-01  1.9969602206386208e-01  1.9903098573077449e-01  1.9852134994127799e-01  1.9813152857988028e-01  1.9783741291566481e-01  1.9762259053122605e-01  1.9747603454830651e-01  1.9739068574107221e-01  1.9736260717842585e-01  1.9739053527124595e-01  1.9747573887502748e-01  1.9762215943140365e-01  1.9783685864830056e-01  1.9813086129763338e-01  1.9852056782752558e-01  1.9903005426038003e-01  1.9969483066307928e-01  2.0056810659469190e-01  2.0173155362470024e-01  2.0331450562554401e-01  2.0552978843331651e-01  2.0874429227556288e-01  2.1362606846659490e-01  2.2147075362283442e-01  2.3496310212979801e-01  2.5968387959005423e-01  3.0535384817835526e-01  3.6992749177872297e-01  3.0575406175621095e-01  2.4338300271415020e-01  3.2229717931565721e-01  2.8730801897455494e-01  2.5200023467681820e-01  2.3122060636891270e-01  2.1942882096523036e-01  2.1235536969312530e-01  2.0785081346967810e-01  2.0483319789809898e-01  2.0272752506092087e-01  2.0120985848371375e-01  2.0008797080967247e-01  1.9924287697579768e-01  1.9859826703705924e-01  1.9810378468207079e-01  1.9772546883601805e-01  1.9744009618987543e-01  1.9723173915244510e-01  1.9708963421393977e-01  1.9700685965418654e-01  1.9697954026729819e-01  1.9700642194914833e-01  1.9708873650852662e-01  1.9723033194178716e-01  1.9743809144893421e-01  1.9772271876279762e-01  1.9810004339834009e-01  1.9859312141595487e-01  1.9923561929044314e-01  2.0007735743985200e-01  2.0119363725696857e-01  2.0270147872692992e-01  2.0478908362094728e-01  2.0777197788429316e-01  2.1220593447726899e-01  2.1912917807218327e-01  2.3058554555206215e-01  2.5054941037184353e-01  2.8400977890059137e-01  3.1252085224280918e-01  2.5990625206217705e-01  2.0254708357550036e-01  2.5656946015465909e-01  2.5794833615073554e-01  2.3871631271436702e-01  2.2456832513352842e-01  2.1572743026965291e-01  2.1008016021955866e-01  2.0631736929859343e-01  2.0371127534874062e-01  2.0184779360624955e-01  2.0048039158830180e-01  1.9945630362001715e-01  1.9867758588335099e-01  1.9807961425010231e-01  1.9761875412636609e-01  1.9726502587548347e-01  1.9699762022688025e-01  1.9680209485406119e-01  1.9666859948237808e-01  1.9659075527723421e-01  1.9656497161594608e-01  1.9659007681458740e-01  1.9666719920289813e-01  1.9679987837731894e-01  1.9699442479929005e-01  1.9726058862536902e-01  1.9761265670235936e-01  1.9807118638695984e-01  1.9866573449849118e-01  1.9943920199244250e-01  2.0045489316546497e-01  2.0180829470645362e-01  2.0364736939018263e-01  2.0620882004463914e-01  2.0988552713091874e-01  2.1535533427269868e-01  2.2380221931481548e-01  2.3702743019350506e-01  2.5444764232287354e-01  2.5306066656728604e-01  2.1227324995795327e-01  1.9271934286713022e-01  2.1810386186033370e-01  2.3155310612764576e-01  2.2503012541220435e-01  2.1718238085469410e-01  2.1139221954996090e-01  2.0731705965570307e-01  2.0442181914993776e-01  2.0232310715877125e-01  2.0077164695948707e-01  1.9960474299399161e-01  1.9871455890867221e-01  1.9802826259502943e-01  1.9749580634153116e-01  1.9708228859770033e-01  1.9676310345860168e-01  1.9652081686767275e-01  1.9634313100512291e-01  1.9622155239533115e-01  1.9615052906568398e-01  1.9612691418657674e-01  1.9614967208070999e-01  1.9621978211898308e-01  1.9634032603918364e-01  1.9651677111635643e-01  1.9675749098452230e-01  1.9707460397712540e-01  1.9748526415358433e-01  1.9801362593683206e-01  1.9869384115162195e-01  1.9957467327983441e-01  2.0072668698487781e-01  2.0225357734625307e-01  2.0431012007051505e-01  2.0713010916962782e-01  2.1106412928898816e-01  2.1658726144278215e-01  2.2393977691847769e-01  2.3022689183841547e-01  2.1992912546617524e-01  1.9481070396221489e-01  1.9146694138989245e-01  2.0500854460848469e-01  2.1561719241046440e-01  2.1445185646177581e-01  2.1067118945152474e-01  2.0722449197148243e-01  2.0450178820378714e-01  2.0241674858628164e-01  2.0082258083423341e-01  1.9959711987272077e-01  1.9864798042593060e-01  1.9790762734098738e-01  1.9732706658520147e-01  1.9687075969349635e-01  1.9651285756109318e-01  1.9623452265681979e-01  1.9602205428394784e-01  1.9586558794750045e-01  1.9575820267958019e-01  1.9569532139172974e-01  1.9567432807682655e-01  1.9569435404055044e-01  1.9575620679347069e-01  1.9586243271802367e-01  1.9601752069945347e-01  1.9622827093838641e-01  1.9650437355602174e-01  1.9685926797194980e-01  1.9731138900728351e-01  1.9788595062533837e-01  1.9861746900043556e-01  1.9955325987920827e-01  2.0075807703615101e-01  2.0231960593058149e-01  2.0435260007024644e-01  2.0699136391362319e-01  2.1032196045496515e-01  2.1400338607934641e-01  2.1548529531251404e-01  2.0645400488267412e-01  1.9194623013568402e-01  1.9101344669282971e-01  1.9995097491325492e-01  2.0726415904800824e-01  2.0744659510197094e-01  2.0564201438920640e-01  2.0366096743106621e-01  2.0192479411845166e-01  2.0049285449106174e-01  1.9933657677921537e-01  1.9841042447131374e-01  1.9767013377389411e-01  1.9707844579039255e-01  1.9660559685864923e-01  1.9622843808817558e-01  1.9592921935422244e-01  1.9569446667188856e-01  1.9551406338385596e-01  1.9538054319656853e-01  1.9528856806015149e-01  1.9523455849207716e-01  1.9521644864330839e-01  1.9523354602305132e-01  1.9528648381852817e-01  1.9537726147121687e-01  1.9550937666388765e-01  1.9568805936103181e-01  1.9592062604023752e-01  1.9621697900104393e-01  1.9659027897010364e-01  1.9705781191958313e-01  1.9764203526605087e-01  1.9837168188779547e-01  1.9928252163377660e-01  2.0041667508850269e-01  2.0181751785528029e-01  2.0351157296351197e-01  2.0544602807899562e-01  2.0724485548365174e-01  2.0724291233660641e-01  2.0056858171466219e-01  1.9127137640505182e-01  1.9070963522307460e-01  1.9695364851163877e-01  2.0223376964772297e-01  2.0279896965360453e-01  2.0192644007274335e-01  2.0079380193081542e-01  1.9971212975972744e-01  1.9875926929145310e-01  1.9794994525376147e-01  1.9727534473990987e-01  1.9671891375125122e-01  1.9626299387613186e-01  1.9589140934395077e-01  1.9559038050907862e-01  1.9534862164963757e-01  1.9515713097532020e-01  1.9500888840665687e-01  1.9489856003587508e-01  1.9482224760498468e-01  1.9477729486309939e-01  1.9476215165353386e-01  1.9477629312562975e-01  1.9482019144123444e-01  1.9489533875169726e-01  1.9500432199320181e-01  1.9515095138194813e-01  1.9534044433451569e-01  1.9557966294617415e-01  1.9587739222681047e-01  1.9624462017410518e-01  1.9669472394281085e-01  1.9724334876177546e-01  1.9790753047727602e-01  1.9870314563512947e-01  1.9963879738923593e-01  2.0070154902663437e-01  2.0181824013024297e-01  2.0271402570067151e-01  2.0229935174295419e-01  1.9739710760286916e-01  1.9086833958560934e-01  1.9051614918823104e-01  1.9508713900373328e-01  1.9903563674216107e-01  1.9962886803118141e-01  1.9919580281689417e-01  1.9854452873678702e-01  1.9787764457217780e-01  1.9725756733065150e-01  1.9670715362950039e-01  1.9623136761424048e-01  1.9582716118586305e-01  1.9548794001649819e-01  1.9520607096782785e-01  1.9497415110232688e-01  1.9478557552868422e-01  1.9463474451172935e-01  1.9451708868690540e-01  1.9442901594357317e-01  1.9436783351346723e-01  1.9433167263306661e-01  1.9431942893160314e-01  1.9433072445881591e-01  1.9436589368148380e-01  1.9442599395574031e-01  1.9451283968431848e-01  1.9462905756495952e-01  1.9477815682408445e-01  1.9496460128330684e-01  1.9519385648067780e-01  1.9547235971570820e-01  1.9580731543112304e-01  1.9620614012556983e-01  1.9667525343921824e-01  1.9721771415501002e-01  1.9782885412931916e-01  1.9848788746181192e-01  1.9913618287217413e-01  1.9958605126272172e-01  1.9908779045129238e-01  1.9537265189773093e-01  1.9061988357633966e-01  1.9038280948153233e-01  1.9381176720962218e-01  1.9682787838411703e-01  1.9737058182399225e-01  1.9716575924959362e-01  1.9679030981059742e-01  1.9638261953549699e-01  1.9598705805229705e-01  1.9562264988812078e-01  1.9529752624072996e-01  1.9501389039698652e-01  1.9477054833179641e-01  1.9456465110439797e-01  1.9439272135224653e-01  1.9425125053640552e-01  1.9413701844137343e-01  1.9404724706202278e-01  1.9397966251565477e-01  1.9393250927925054e-01  1.9390454325057374e-01  1.9389501872323095e-01  1.9390367751858514e-01  1.9393074429224758e-01  1.9397692919500364e-01  1.9404343666948487e-01  1.9413197637525734e-01  1.9424476814167063e-01  1.9438452624309771e-01  1.9455439748875755e-01  1.9475781033296322e-01  1.9499816579864040e-01  1.9527826370116694e-01  1.9559931183530535e-01  1.9595931850532503e-01  1.9635058098343006e-01  1.9675527966296305e-01  1.9713244385570911e-01  1.9735309097990650e-01  1.9687383135688805e-01  1.9401134076641538e-01  1.9045514920897669e-01  1.9028674426406317e-01  1.9290254112009028e-01  1.9524799599758658e-01  1.9571950657820567e-01  1.9563237657800403e-01  1.9541739211396128e-01  1.9517228077493276e-01  1.9492616076370761e-01  1.946924338