<?xml version="1.0"?>
<VTKFile type="UnstructuredGrid"  version="0.1"  >
<UnstructuredGrid>
<Piece  NumberOfPoints="1681" NumberOfCells="3200">
<Points>
<DataArray  type="Float64"  NumberOfComponents="3"  format="ascii">0 0 0  0.025 0 0  0.05 0 0  0.075 0 0  0.1 0 0  0.125 0 0  0.15 0 0  0.175 0 0  0.2 0 0  0.225 0 0  0.25 0 0  0.275 0 0  0.3 0 0  0.325 0 0  0.35 0 0  0.375 0 0  0.4 0 0  0.425 0 0  0.45 0 0  0.475 0 0  0.5 0 0  0.525 0 0  0.55 0 0  0.575 0 0  0.6 0 0  0.625 0 0  0.65 0 0  0.675 0 0  0.7 0 0  0.725 0 0  0.75 0 0  0.775 0 0  0.8 0 0  0.825 0 0  0.85 0 0  0.875 0 0  0.9 0 0  0.925 0 0  0.95 0 0  0.975 0 0  1 0 0  0 0.025 0  0.025 0.025 0  0.05 0.025 0  0.075 0.025 0  0.1 0.025 0  0.125 0.025 0  0.15 0.025 0  0.175 0.025 0  0.2 0.025 0  0.225 0.025 0  0.25 0.025 0  0.275 0.025 0  0.3 0.025 0  0.325 0.025 0  0.35 0.025 0  0.375 0.025 0  0.4 0.025 0  0.425 0.025 0  0.45 0.025 0  0.475 0.025 0  0.5 0.025 0  0.525 0.025 0  0.55 0.025 0  0.575 0.025 0  0.6 0.025 0  0.625 0.025 0  0.65 0.025 0  0.675 0.025 0  0.7 0.025 0  0.725 0.025 0  0.75 0.025 0  0.775 0.025 0  0.8 0.025 0  0.825 0.025 0  0.85 0.025 0  0.875 0.025 0  0.9 0.025 0  0.925 0.025 0  0.95 0.025 0  0.975 0.025 0  1 0.025 0  0 0.05 0  0.025 0.05 0  0.05 0.05 0  0.075 0.05 0  0.1 0.05 0  0.125 0.05 0  0.15 0.05 0  0.175 0.05 0  0.2 0.05 0  0.225 0.05 0  0.25 0.05 0  0.275 0.05 0  0.3 0.05 0  0.325 0.05 0  0.35 0.05 0  0.375 0.05 0  0.4 0.05 0  0.425 0.05 0  0.45 0.05 0  0.475 0.05 0  0.5 0.05 0  0.525 0.05 0  0.55 0.05 0  0.575 0.05 0  0.6 0.05 0  0.625 0.05 0  0.65 0.05 0  0.675 0.05 0  0.7 0.05 0  0.725 0.05 0  0.75 0.05 0  0.775 0.05 0  0.8 0.05 0  0.825 0.05 0  0.85 0.05 0  0.875 0.05 0  0.9 0.05 0  0.925 0.05 0  0.95 0.05 0  0.975 0.05 0  1 0.05 0  0 0.075 0  0.025 0.075 0  0.05 0.075 0  0.075 0.075 0  0.1 0.075 0  0.125 0.075 0  0.15 0.075 0  0.175 0.075 0  0.2 0.075 0  0.225 0.075 0  0.25 0.075 0  0.275 0.075 0  0.3 0.075 0  0.325 0.075 0  0.35 0.075 0  0.375 0.075 0  0.4 0.075 0  0.425 0.075 0  0.45 0.075 0  0.475 0.075 0  0.5 0.075 0  0.525 0.075 0  0.55 0.075 0  0.575 0.075 0  0.6 0.075 0  0.625 0.075 0  0.65 0.075 0  0.675 0.075 0  0.7 0.075 0  0.725 0.075 0  0.75 0.075 0  0.775 0.075 0  0.8 0.075 0  0.825 0.075 0  0.85 0.075 0  0.875 0.075 0  0.9 0.075 0  0.925 0.075 0  0.95 0.075 0  0.975 0.075 0  1 0.075 0  0 0.1 0  0.025 0.1 0  0.05 0.1 0  0.075 0.1 0  0.1 0.1 0  0.125 0.1 0  0.15 0.1 0  0.175 0.1 0  0.2 0.1 0  0.225 0.1 0  0.25 0.1 0  0.275 0.1 0  0.3 0.1 0  0.325 0.1 0  0.35 0.1 0  0.375 0.1 0  0.4 0.1 0  0.425 0.1 0  0.45 0.1 0  0.475 0.1 0  0.5 0.1 0  0.525 0.1 0  0.55 0.1 0  0.575 0.1 0  0.6 0.1 0  0.625 0.1 0  0.65 0.1 0  0.675 0.1 0  0.7 0.1 0  0.725 0.1 0  0.75 0.1 0  0.775 0.1 0  0.8 0.1 0  0.825 0.1 0  0.85 0.1 0  0.875 0.1 0  0.9 0.1 0  0.925 0.1 0  0.95 0.1 0  0.975 0.1 0  1 0.1 0  0 0.125 0  0.025 0.125 0  0.05 0.125 0  0.075 0.125 0  0.1 0.125 0  0.125 0.125 0  0.15 0.125 0  0.175 0.125 0  0.2 0.125 0  0.225 0.125 0  0.25 0.125 0  0.275 0.125 0  0.3 0.125 0  0.325 0.125 0  0.35 0.125 0  0.375 0.125 0  0.4 0.125 0  0.425 0.125 0  0.45 0.125 0  0.475 0.125 0  0.5 0.125 0  0.525 0.125 0  0.55 0.125 0  0.575 0.125 0  0.6 0.125 0  0.625 0.125 0  0.65 0.125 0  0.675 0.125 0  0.7 0.125 0  0.725 0.125 0  0.75 0.125 0  0.775 0.125 0  0.8 0.125 0  0.825 0.125 0  0.85 0.125 0  0.875 0.125 0  0.9 0.125 0  0.925 0.125 0  0.95 0.125 0  0.975 0.125 0  1 0.125 0  0 0.15 0  0.025 0.15 0  0.05 0.15 0  0.075 0.15 0  0.1 0.15 0  0.125 0.15 0  0.15 0.15 0  0.175 0.15 0  0.2 0.15 0  0.225 0.15 0  0.25 0.15 0  0.275 0.15 0  0.3 0.15 0  0.325 0.15 0  0.35 0.15 0  0.375 0.15 0  0.4 0.15 0  0.425 0.15 0  0.45 0.15 0  0.475 0.15 0  0.5 0.15 0  0.525 0.15 0  0.55 0.15 0  0.575 0.15 0  0.6 0.15 0  0.625 0.15 0  0.65 0.15 0  0.675 0.15 0  0.7 0.15 0  0.725 0.15 0  0.75 0.15 0  0.775 0.15 0  0.8 0.15 0  0.825 0.15 0  0.85 0.15 0  0.875 0.15 0  0.9 0.15 0  0.925 0.15 0  0.95 0.15 0  0.975 0.15 0  1 0.15 0  0 0.175 0  0.025 0.175 0  0.05 0.175 0  0.075 0.175 0  0.1 0.175 0  0.125 0.175 0  0.15 0.175 0  0.175 0.175 0  0.2 0.175 0  0.225 0.175 0  0.25 0.175 0  0.275 0.175 0  0.3 0.175 0  0.325 0.175 0  0.35 0.175 0  0.375 0.175 0  0.4 0.175 0  0.425 0.175 0  0.45 0.175 0  0.475 0.175 0  0.5 0.175 0  0.525 0.175 0  0.55 0.175 0  0.575 0.175 0  0.6 0.175 0  0.625 0.175 0  0.65 0.175 0  0.675 0.175 0  0.7 0.175 0  0.725 0.175 0  0.75 0.175 0  0.775 0.175 0  0.8 0.175 0  0.825 0.175 0  0.85 0.175 0  0.875 0.175 0  0.9 0.175 0  0.925 0.175 0  0.95 0.175 0  0.975 0.175 0  1 0.175 0  0 0.2 0  0.025 0.2 0  0.05 0.2 0  0.075 0.2 0  0.1 0.2 0  0.125 0.2 0  0.15 0.2 0  0.175 0.2 0  0.2 0.2 0  0.225 0.2 0  0.25 0.2 0  0.275 0.2 0  0.3 0.2 0  0.325 0.2 0  0.35 0.2 0  0.375 0.2 0  0.4 0.2 0  0.425 0.2 0  0.45 0.2 0  0.475 0.2 0  0.5 0.2 0  0.525 0.2 0  0.55 0.2 0  0.575 0.2 0  0.6 0.2 0  0.625 0.2 0  0.65 0.2 0  0.675 0.2 0  0.7 0.2 0  0.725 0.2 0  0.75 0.2 0  0.775 0.2 0  0.8 0.2 0  0.825 0.2 0  0.85 0.2 0  0.875 0.2 0  0.9 0.2 0  0.925 0.2 0  0.95 0.2 0  0.975 0.2 0  1 0.2 0  0 0.225 0  0.025 0.225 0  0.05 0.225 0  0.075 0.225 0  0.1 0.225 0  0.125 0.225 0  0.15 0.225 0  0.175 0.225 0  0.2 0.225 0  0.225 0.225 0  0.25 0.225 0  0.275 0.225 0  0.3 0.225 0  0.325 0.225 0  0.35 0.225 0  0.375 0.225 0  0.4 0.225 0  0.425 0.225 0  0.45 0.225 0  0.475 0.225 0  0.5 0.225 0  0.525 0.225 0  0.55 0.225 0  0.575 0.225 0  0.6 0.225 0  0.625 0.225 0  0.65 0.225 0  0.675 0.225 0  0.7 0.225 0  0.725 0.225 0  0.75 0.225 0  0.775 0.225 0  0.8 0.225 0  0.825 0.225 0  0.85 0.225 0  0.875 0.225 0  0.9 0.225 0  0.925 0.225 0  0.95 0.225 0  0.975 0.225 0  1 0.225 0  0 0.25 0  0.025 0.25 0  0.05 0.25 0  0.075 0.25 0  0.1 0.25 0  0.125 0.25 0  0.15 0.25 0  0.175 0.25 0  0.2 0.25 0  0.225 0.25 0  0.25 0.25 0  0.275 0.25 0  0.3 0.25 0  0.325 0.25 0  0.35 0.25 0  0.375 0.25 0  0.4 0.25 0  0.425 0.25 0  0.45 0.25 0  0.475 0.25 0  0.5 0.25 0  0.525 0.25 0  0.55 0.25 0  0.575 0.25 0  0.6 0.25 0  0.625 0.25 0  0.65 0.25 0  0.675 0.25 0  0.7 0.25 0  0.725 0.25 0  0.75 0.25 0  0.775 0.25 0  0.8 0.25 0  0.825 0.25 0  0.85 0.25 0  0.875 0.25 0  0.9 0.25 0  0.925 0.25 0  0.95 0.25 0  0.975 0.25 0  1 0.25 0  0 0.275 0  0.025 0.275 0  0.05 0.275 0  0.075 0.275 0  0.1 0.275 0  0.125 0.275 0  0.15 0.275 0  0.175 0.275 0  0.2 0.275 0  0.225 0.275 0  0.25 0.275 0  0.275 0.275 0  0.3 0.275 0  0.325 0.275 0  0.35 0.275 0  0.375 0.275 0  0.4 0.275 0  0.425 0.275 0  0.45 0.275 0  0.475 0.275 0  0.5 0.275 0  0.525 0.275 0  0.55 0.275 0  0.575 0.275 0  0.6 0.275 0  0.625 0.275 0  0.65 0.275 0  0.675 0.275 0  0.7 0.275 0  0.725 0.275 0  0.75 0.275 0  0.775 0.275 0  0.8 0.275 0  0.825 0.275 0  0.85 0.275 0  0.875 0.275 0  0.9 0.275 0  0.925 0.275 0  0.95 0.275 0  0.975 0.275 0  1 0.275 0  0 0.3 0  0.025 0.3 0  0.05 0.3 0  0.075 0.3 0  0.1 0.3 0  0.125 0.3 0  0.15 0.3 0  0.175 0.3 0  0.2 0.3 0  0.225 0.3 0  0.25 0.3 0  0.275 0.3 0  0.3 0.3 0  0.325 0.3 0  0.35 0.3 0  0.375 0.3 0  0.4 0.3 0  0.425 0.3 0  0.45 0.3 0  0.475 0.3 0  0.5 0.3 0  0.525 0.3 0  0.55 0.3 0  0.575 0.3 0  0.6 0.3 0  0.625 0.3 0  0.65 0.3 0  0.675 0.3 0  0.7 0.3 0  0.725 0.3 0  0.75 0.3 0  0.775 0.3 0  0.8 0.3 0  0.825 0.3 0  0.85 0.3 0  0.875 0.3 0  0.9 0.3 0  0.925 0.3 0  0.95 0.3 0  0.975 0.3 0  1 0.3 0  0 0.325 0  0.025 0.325 0  0.05 0.325 0  0.075 0.325 0  0.1 0.325 0  0.125 0.325 0  0.15 0.325 0  0.175 0.325 0  0.2 0.325 0  0.225 0.325 0  0.25 0.325 0  0.275 0.325 0  0.3 0.325 0  0.325 0.325 0  0.35 0.325 0  0.375 0.325 0  0.4 0.325 0  0.425 0.325 0  0.45 0.325 0  0.475 0.325 0  0.5 0.325 0  0.525 0.325 0  0.55 0.325 0  0.575 0.325 0  0.6 0.325 0  0.625 0.325 0  0.65 0.325 0  0.675 0.325 0  0.7 0.325 0  0.725 0.325 0  0.75 0.325 0  0.775 0.325 0  0.8 0.325 0  0.825 0.325 0  0.85 0.325 0  0.875 0.325 0  0.9 0.325 0  0.925 0.325 0  0.95 0.325 0  0.975 0.325 0  1 0.325 0  0 0.35 0  0.025 0.35 0  0.05 0.35 0  0.075 0.35 0  0.1 0.35 0  0.125 0.35 0  0.15 0.35 0  0.175 0.35 0  0.2 0.35 0  0.225 0.35 0  0.25 0.35 0  0.275 0.35 0  0.3 0.35 0  0.325 0.35 0  0.35 0.35 0  0.375 0.35 0  0.4 0.35 0  0.425 0.35 0  0.45 0.35 0  0.475 0.35 0  0.5 0.35 0  0.525 0.35 0  0.55 0.35 0  0.575 0.35 0  0.6 0.35 0  0.625 0.35 0  0.65 0.35 0  0.675 0.35 0  0.7 0.35 0  0.725 0.35 0  0.75 0.35 0  0.775 0.35 0  0.8 0.35 0  0.825 0.35 0  0.85 0.35 0  0.875 0.35 0  0.9 0.35 0  0.925 0.35 0  0.95 0.35 0  0.975 0.35 0  1 0.35 0  0 0.375 0  0.025 0.375 0  0.05 0.375 0  0.075 0.375 0  0.1 0.375 0  0.125 0.375 0  0.15 0.375 0  0.175 0.375 0  0.2 0.375 0  0.225 0.375 0  0.25 0.375 0  0.275 0.375 0  0.3 0.375 0  0.325 0.375 0  0.35 0.375 0  0.375 0.375 0  0.4 0.375 0  0.425 0.375 0  0.45 0.375 0  0.475 0.375 0  0.5 0.375 0  0.525 0.375 0  0.55 0.375 0  0.575 0.375 0  0.6 0.375 0  0.625 0.375 0  0.65 0.375 0  0.675 0.375 0  0.7 0.375 0  0.725 0.375 0  0.75 0.375 0  0.775 0.375 0  0.8 0.375 0  0.825 0.375 0  0.85 0.375 0  0.875 0.375 0  0.9 0.375 0  0.925 0.375 0  0.95 0.375 0  0.975 0.375 0  1 0.375 0  0 0.4 0  0.025 0.4 0  0.05 0.4 0  0.075 0.4 0  0.1 0.4 0  0.125 0.4 0  0.15 0.4 0  0.175 0.4 0  0.2 0.4 0  0.225 0.4 0  0.25 0.4 0  0.275 0.4 0  0.3 0.4 0  0.325 0.4 0  0.35 0.4 0  0.375 0.4 0  0.4 0.4 0  0.425 0.4 0  0.45 0.4 0  0.475 0.4 0  0.5 0.4 0  0.525 0.4 0  0.55 0.4 0  0.575 0.4 0  0.6 0.4 0  0.625 0.4 0  0.65 0.4 0  0.675 0.4 0  0.7 0.4 0  0.725 0.4 0  0.75 0.4 0  0.775 0.4 0  0.8 0.4 0  0.825 0.4 0  0.85 0.4 0  0.875 0.4 0  0.9 0.4 0  0.925 0.4 0  0.95 0.4 0  0.975 0.4 0  1 0.4 0  0 0.425 0  0.025 0.425 0  0.05 0.425 0  0.075 0.425 0  0.1 0.425 0  0.125 0.425 0  0.15 0.425 0  0.175 0.425 0  0.2 0.425 0  0.225 0.425 0  0.25 0.425 0  0.275 0.425 0  0.3 0.425 0  0.325 0.425 0  0.35 0.425 0  0.375 0.425 0  0.4 0.425 0  0.425 0.425 0  0.45 0.425 0  0.475 0.425 0  0.5 0.425 0  0.525 0.425 0  0.55 0.425 0  0.575 0.425 0  0.6 0.425 0  0.625 0.425 0  0.65 0.425 0  0.675 0.425 0  0.7 0.425 0  0.725 0.425 0  0.75 0.425 0  0.775 0.425 0  0.8 0.425 0  0.825 0.425 0  0.85 0.425 0  0.875 0.425 0  0.9 0.425 0  0.925 0.425 0  0.95 0.425 0  0.975 0.425 0  1 0.425 0  0 0.45 0  0.02
[...]
<PointData  Scalars="ControlVisualisation"> 
<DataArray  type="Float64"  Name="ControlVisualisation"  format="ascii">1.7255741641930336e-04  1.1503826968587711e-04  1.1503853151626699e-04  1.1504904704154323e-04  1.1509067786073554e-04  1.1517398275445173e-04  1.1528999829005990e-04  1.1542154054944282e-04  1.1555353440263068e-04  1.1567416143087982e-04  1.1577448860129254e-04  1.1584986542016829e-04  1.1589989686455255e-04  1.1592711550356730e-04  1.1593505358950036e-04  1.1592740206700765e-04  1.1590728865056370e-04  1.1587718457858175e-04  1.1583941997164779e-04  1.1579566967235084e-04  1.1574759090219794e-04  1.1569637888526366e-04  1.1564320168428061e-04  1.1558906554909943e-04  1.1553475012707245e-04  1.1548103630536781e-04  1.1542855276573555e-04  1.1537782844599433e-04  1.1532939384821514e-04  1.1528365629699201e-04  1.1524103903631032e-04  1.1520186345490283e-04  1.1516641496615012e-04  1.1513495277652246e-04  1.1510767240027681e-04  1.1508475591451341e-04  1.1506635124323529e-04  1.1505254481044269e-04  1.1504344443187538e-04  1.1503895106981345e-04  3.4511661840815381e-04  1.1503973424257938e-04  5.7517860697482231e-05  5.7519557315406501e-05  5.7532035640976042e-05  5.7575903218692618e-05  5.7663758558778515e-05  5.7788469362254978e-05  5.7933185034880751e-05  5.8082104595267110e-05  5.8221374965693651e-05  5.8339486963579911e-05  5.8429721478363935e-05  5.8490923123759112e-05  5.8525684456333583e-05  5.8537997734810663e-05  5.8531937632976197e-05  5.8511150481063668e-05  5.8478588437519480e-05  5.8436882176541487e-05  5.8388086606255862e-05  5.8334030203382900e-05  5.8276279457207262e-05  5.8216079269642018e-05  5.8154657855924824e-05  5.8092889576865877e-05  5.8031721902318096e-05  5.7971868017701158e-05  5.7913957085998249e-05  5.7858545089780950e-05  5.7806158666314064e-05  5.7757225922099431e-05  5.7712143182611586e-05  5.7671222090475036e-05  5.7634751034362465e-05  5.7602966271431367e-05  5.7576065098738126e-05  5.7554205266116501e-05  5.7537507399449267e-05  5.7526033994154589e-05  5.7519510401518104e-05  1.1503895164610841e-04  1.1506480974290070e-04  5.7535229035009515e-05  5.7546104960303823e-05  5.7578248973428947e-05  5.7650962171798052e-05  5.7765906916601408e-05  5.7908937380382275e-05  5.8066555465931189e-05  5.8230710029341389e-05  5.8387003223073862e-05  5.8517444664798454e-05  5.8612672099021986e-05  5.8674069114836990e-05  5.8706578016945109e-05  5.8715159306622184e-05  5.8704086795559671e-05  5.8677205223400401e-05  5.8637659587450909e-05  5.8588114906413915e-05  5.8530878735711966e-05  5.8467771427229409e-05  5.8400666678841977e-05  5.8330908833969974e-05  5.8259867047435333e-05  5.8188525265688183e-05  5.8117934558745657e-05  5.8048932206248938e-05  5.7982156555285691e-05  5.7918317646324734e-05  5.7857961550791984e-05  5.7801590766331597e-05  5.7749640124381526e-05  5.7702491534636477e-05  5.7660454042926812e-05  5.7623798288957196e-05  5.7592756459382215e-05  5.7567500801894616e-05  5.7548158483863604e-05  5.7534749671641952e-05  5.7526056190657681e-05  1.1504345650047229e-04  1.1525401483171682e-04  5.7671055679953856e-05  5.7707058060585868e-05  5.7788232211945347e-05  5.7910624557352490e-05  5.8030386207006776e-05  5.8127156096183743e-05  5.8230782999752848e-05  5.8375897294968764e-05  5.8532964557779976e-05  5.8647146287953074e-05  5.8716457645203199e-05  5.8756441044122289e-05  5.8773205993968127e-05  5.8769986719777810e-05  5.8750227287752270e-05  5.8717037827351501e-05  5.8672878493957189e-05  5.8619754334325007e-05  5.8559622106922149e-05  5.8494213227954979e-05  5.8425180064563050e-05  5.8353868474281512e-05  5.8281498404734388e-05  5.8209075485475920e-05  5.8137504860376713e-05  5.8067666663311962e-05  5.8000125610659935e-05  5.7935609774547323e-05  5.7874644887222916e-05  5.7817714696474961e-05  5.7765260531919342e-05  5.7717662070413748e-05  5.7675244661564004e-05  5.7638258032490739e-05  5.7606939968943749e-05  5.7581460441152291e-05  5.7561935291861151e-05  5.7548289813621091e-05  5.7537638437736598e-05  1.1505262493530811e-04  1.1656963005210443e-04  5.8889929094689575e-05  5.9258848040539329e-05  6.2094065818482546e-05  6.3901075622419199e-05  6.3508281731915225e-05  6.1646593739381552e-05  5.9882810151517243e-05  5.9170041043977432e-05  5.8987528623013116e-05  5.8893151437098247e-05  5.8865886488468549e-05  5.8865204552861364e-05  5.8857414774538475e-05  5.8836010497738973e-05  5.8803988687133085e-05  5.8762614070256698e-05  5.8712526728782948e-05  5.8654884729419579e-05  5.8591194719224769e-05  5.8523055221171991e-05  5.8451923333873809e-05  5.8379072988341795e-05  5.8305520153064370e-05  5.8232239349564840e-05  5.8160011726118400e-05  5.8089607030286069e-05  5.8021664997438394e-05  5.7956809695097719e-05  5.7895574889149496e-05  5.7838400744335764e-05  5.7785750753357868e-05  5.7737998316253645e-05  5.7695443620690146e-05  5.7658353392207413e-05  5.7626953472339650e-05  5.7601412971184918e-05  5.7581837824142017e-05  5.7568008550015271e-05  5.7554658967235560e-05  1.1506665735065618e-04  1.3830036068662995e-04  6.2714966766075746e-05  7.3680174091525795e-05  1.5966482035003815e-04  5.2800999002710122e-03  1.1135137552882278e-02  3.6508619156448290e-04  1.3815391547762677e-04  8.9121029257726968e-05  6.9342971949510135e-05  6.1204804795206598e-05  5.9397855786034472e-05  5.9082151754591818e-05  5.8978359458232362e-05  5.8918871568172357e-05  5.8871192978032994e-05  5.8820749475076343e-05  5.8763763546851925e-05  5.8700486967812981e-05  5.8632259234112479e-05  5.8560562117856326e-05  5.8486782146326529e-05  5.8411983267764451e-05  5.8336999727305773e-05  5.8262613243776220e-05  5.8189549109981865e-05  5.8118486207162606e-05  5.8050048786533910e-05  5.7984784030867680e-05  5.7923190508444002e-05  5.7865733786568280e-05  5.7812828918839637e-05  5.7764878065118849e-05  5.7722148067953088e-05  5.7684920122570013e-05  5.7653414541132918e-05  5.7627794767874419e-05  5.7608156534376256e-05  5.7594090321377132e-05  5.7577219734658096e-05  1.1508558771307021e-04  1.7314360704288642e-04  6.7459477152993219e-02  7.0283112935602199e-01  9.9687607512120513e-01  9.9958342317664106e-01  9.9939971045146936e-01  9.1527474279901866e-01  6.4773407083701162e-01  3.5015828777458174e-01  9.3881643145677277e-02  1.7608688328431198e-04  7.7964209547256203e-05  6.2314912762008771e-05  5.9480996283122685e-05  5.9070959923639066e-05  5.8961622375061441e-05  5.8893394307122042e-05  5.8827248909516856e-05  5.8757296104007579e-05  5.8683191068264990e-05  5.8606954866784526e-05  5.8530056789759903e-05  5.8453021627784020e-05  5.8376335717634043e-05  5.8300628619893621e-05  5.8226559980874247e-05  5.8154746830199726e-05  5.8085702843822493e-05  5.8019916528504487e-05  5.7957869193607173e-05  5.7900047464371766e-05  5.7846824269304444e-05  5.7798574281294249e-05  5.7755605570899143e-05  5.7718180123611426e-05  5.7686521869529365e-05  5.7660783511708855e-05  5.7641048635374129e-05  5.7626681571714337e-05  5.7605439276675061e-05  1.1510951364940972e-04  9.9995532854698421e-01  9.9997415618376240e-01  9.9997898524583595e-01  9.9997700232080244e-01  9.9997384279824608e-01  9.9996839518422054e-01  9.9995777777675832e-01  9.9993666351876920e-01  9.9987619042529441e-01  9.9905467494157518e-01  5.8628797164383395e-01  1.9566312794855362e-01  2.4738189894547928e-04  7.7173238077233398e-05  6.1341754709395789e-05  5.9324246206068469e-05  5.9014287198980019e-05  5.8909642005349058e-05  5.8827859472910991e-05  5.8743798459722219e-05  5.8661660028562491e-05  5.8581697228379375e-05  5.8502429130446398e-05  5.8423809156070028e-05  5.8346555643862742e-05  5.8271357455391802e-05  5.8198692510983963e-05  5.8128925711779926e-05  5.8062529979059276e-05  5.7999962103673488e-05  5.7941668604045094e-05  5.7888025423293657e-05  5.7839379594677631e-05  5.7796081593644534e-05  5.7758375698908410e-05  5.7726481104462552e-05  5.7700562849475943e-05  5.7680685370823622e-05  5.7665935283692207e-05  5.7639436936406234e-05  1.1513853384934451e-04  9.9999188515675508e-01  9.9999465285744371e-01  9.9999352674724806e-01  9.9999195913157890e-01  9.9999005151757170e-01  9.9998767096940833e-01  9.9998446857739720e-01  9.9997971766738836e-01  9.9997164510578285e-01  9.9995454057364175e-01  9.9990728115541805e-01  9.9955634884607614e-01  6.0140525664256350e-01  1.6852107838463179e-01  1.6416117141609954e-04  7.0170206861707506e-05  6.0148133169025077e-05  5.9149643998887711e-05  5.8934253892674180e-05  5.8812570436411965e-05  5.8723041122133083e-05  5.8642210907271769e-05  5.8560814362386636e-05  5.8479646255215155e-05  5.8400585154878494e-05  5.8324203223212455e-05  5.8250639583825225e-05  5.8180117636956432e-05  5.8113040177849550e-05  5.8049859535366892e-05  5.7990981905188917e-05  5.7936783719907699e-05  5.7887633936548170e-05  5.7843880796319860e-05  5.7805772311846135e-05  5.7773536643981813e-05  5.7747344476319277e-05  5.7727243364519127e-05  5.7712011511730899e-05  5.7679350104072118e-05  1.1517275027968696e-04  9.9999555900737069e-01  9.9999732826193333e-01  9.9999653581016412e-01  9.9999540939560250e-01  9.9999406164715976e-01  9.9999252946310357e-01  9.9999075699822482e-01  9.9998856834410044e-01  9.9998559973891576e-01  9.9998107548838067e-01  9.9997307086667608e-01  9.9995515237116184e-01  9.9989803508467046e-01  9.9855366062984785e-01  4.8703936692165151e-01  7.6189277352327042e-02  1.0347268619167767e-04  6.4151278110172034e-05  5.9459794437755660e-05  5.8920526059959515e-05  5.8798166168363217e-05  5.8717262073832891e-05  5.8629368294495138e-05  5.8543590678792301e-05  5.8462733512058205e-05  5.8385457817102334e-05  5.8311065507793368e-05  5.8239767260928859e-05  5.8171960882363222e-05  5.8108068534115747e-05  5.8048490493675051e-05  5.7993590225227998e-05  5.7943774271861785e-05  5.7899396127612953e-05  5.7860710413848359e-05  5.7827975172589008e-05  5.7801367330769803e-05  5.7780921723623823e-05  5.7765065485298641e-05  5.7725292846989694e-05  1.1521226833609426e-04  9.9999609865895644e-01  9.9999783363993178e-01  9.9999722693169857e-01  9.9999635407935095e-01  9.9999531946201536e-01  9.9999419690335978e-01  9.9999299827984833e-01  9.9999166591186550e-01  9.9999006904567889e-01  9.9998797000742246e-01  9.9998492152491902e-01  9.9997996052726745e-01  9.9997052002502074e-01  9.9994672174536270e-01  9.9985282582360657e-01  8.5091676165175867e-01  3.2321050335320284e-01  5.3035926873211663e-04  7.6760214496091343e-05  6.0511892632157972e-05  5.9086619408660589e-05  5.8842462870833008e-05  5.8708299054106688e-05  5.8613563136410261e-05  5.8533195703124459e-05  5.8455830815837943e-05  5.8380565078587614e-05  5.8308447243522746e-05  5.8239900254662879e-05  5.8175214525768153e-05  5.8114800219276808e-05  5.8059035025314484e-05  5.8008341372548066e-05  5.7963086675415591e-05  5.7923582269387932e-05  5.7890113813224819e-05  5.7862868482032326e-05  5.7841891589727677e-05  5.7825231135736157e-05  5.7777341004295486e-05  1.1525713064750914e-04  9.9999498193640313e-01  9.9999747637792824e-01  9.9999694194192668e-01  9.9999620367171393e-01  9.9999537991333609e-01  9.9999453962826690e-01  9.9999369895424084e-01  9.9999282832450376e-01  9.9999186012447683e-01  9.9999068646068168e-01  9.9998913807790923e-01  9.9998692439495274e-01  9.9998347613255123e-01  9.9997746913302654e-01  9.9996491413456567e-01  9.9992855800611780e-01  9.9968474863048540e-01  6.1840571990299853e-01  1.4694871480421376e-01  1.2533420937659075e-04  6.6068789233466807e-05  5.9518510381687964e-05  5.8835736434364575e-05  5.8695483738764661e-05  5.8616642032779069e-05  5.8536813238430363e-05  5.8459607398005431e-05  5.8386762951150933e-05  5.8317618399270848e-05  5.8252090232013434e-05  5.8190680353487019e-05  5.8133835378383073e-05  5.8081981952618625e-05  5.8035525770553941e-05  5.7994846412269714e-05  5.7960269287001640e-05  5.7932055646486199e-05  5.7910269128909160e-05  5.7892545396267049e-05  5.7835511722162228e-05  1.1530734442805257e-04  9.9998857481716585e-01  9.9999547374831543e-01  9.9999525840832482e-01  9.9999486323440046e-01  9.9999439938388268e-01  9.9999392657347330e-01  9.9999345832937381e-01  9.9999297645453389e-01  9.9999244088170891e-01  9.9999179379988901e-01  9.9999095492519596e-01  9.9998980480898647e-01  9.9998814628265109e-01  9.9998561310278211e-01  9.9998142363249498e-01  9.9997356394813064e-01  9.9995487888787338e-01  9.9988762084413707e-01  9.4299390043202114e-01  3.8961832515013317e-01  9.4764858080936595e-03  8.1344927387534400e-05  6.0839641453583465e-05  5.9011391088656348e-05  5.8750498024755941e-05  5.8631277623248638e-05  5.8547986744056744e-05  5.8475744969283844e-05  5.8406317540968268e-05  5.8339757457926404e-05  5.8277140593280336e-05  5.8218939576423592e-05  5.8165551475729167e-05  5.8117454735943060e-05  5.8075087240651676e-05  5.8038864674154945e-05  5.8009160269243216e-05  5.7986109508603991e-05  5.7966927847190105e-05  5.7899649092329408e-05  1.1536280402835028e-04  9.9985243885886110e-01  9.9998200758360434e-01  9.9998843050444663e-01  9.9999074247061981e-01  9.9999167773288355e-01  9.9999209821543122e-01  9.9999227641574251e-01  9.9999230799445360e-01  9.9999221990353937e-01  9.9999200669737487e-01  9.9999164194193679e-01  9.9999107784630281e-01  9.9999023522539066e-01  9.9998897893910499e-01  9.9998706215128030e-01  9.9998398773882768e-01  9.9997859949544077e-01  9.9996752402611411e-01  9.9993630716204984e-01  9.9976662075118672e-01  6.8103119888238783e-01  1.8588290712692263e-01  1.4391515352420891e-04  6.7273975099942432e-05  5.9552077646878288e-05  5.8796036318711606e-05  5.8656052810147269e-05  5.8580384088754798e-05  5.8507870607660210e-05  5.8439346569706934e-05  5.8375381185820704e-05  5.8315603705609937e-05  5.8260223767175634e-05  5.8209855136628342e-05  5.8165056845965289e-05  5.8126383291028757e-05  5.8094360466769989e-05  5.8069296035699998e-05  5.8048049314175780e-05  5.7969358578818798e-05  1.1542314190295035e-04  1.3318685948695124e-04  4.4687956770782028e-01  9.9994130746600751e-01  9.9997551312668043e-01  9.9998444484582694e-01  9.9998790459696718e-01  9.9998964549895730e-01  9.9999063154792922e-01  9.9999120365195859e-01  9.9999150218296506e-01  9.9999158486836248e-01  9.9999146669408712e-01  9.9999113260450179e-01  9.9999053640217694e-01  9.9998958714686115e-01  9.9998811484446115e-01  9.9998578808760341e-01  9.9998189550491867e-01  9.9997463400320052e-01  9.9995781378002913e-01  9.9989932861101805e-01  9.8954222488540977e-01  4.2875714356450972e-01  3.1015492601140334e-02  8.5122889790554553e-05  6.1276532002445597e-05  5.9029269474408303e-05  5.8737835756393660e-05  5.8626138470846881e-05  5.8551854646687028e-05  5.8487329873459634e-05  5.8425662674361461e-05  5.8367567643802282e-05  5.8314079655811208e-05  5.8265792762947883e-05  5.8223428002254360e-05  5.8187785568727978e-05  5.8159484134254431e-05  5.8135152859477597e-05  5.8043805209008919e-05  1.1548769562453642e-04  1.1774466165218021e-04  8.6240872839132230e-05  4.6000913489784373e-01  9.9983853612163287e-01  9.9995668403099924e-01  9.9997692213061029e-01  9.9998384215863934e-01  9.9998716841083701e-01  9.9998903286860186e-01  9.9999015210631603e-01  9.9999082191559319e-01  9.9999117740739285e-01  9.9999127889649342e-01  9.9999114296470260e-01  9.9999075139608562e-01  9.9999004672218017e-01  9.9998891230861187e-01  9.9998712264278233e-01  9.9998421626321532e-01  9.9997912152599122e-01  9.9996876950913471e-01  9.9994009493816316e-01  9.9979897685273889e-01  7.2316518382092287e-01  2.1455803457231504e-01  1.6580079161018400e-04  6.8496939093693396e-05  5.9663846877687431e-05  5.8830230500949956e-05  5.8692066789743393e-05  5.8618995122006452e-05  5.8551596279835372e-05  5.8489592166596461e-05  5.8432096554087722e-05  5.8378880253846887e-05  5.8330875059933265e-05  5.8289517943029181e-05  5.8255986369032551e-05  5.8226911146544249e-05  5.8121482538011591e-05  1.1555518642030847e-04  1.1508548214086268e-04  5.9686911168122138e-05  1.2646857074891414e-04  3.3242547039669251e-01  9.9884527342701457e-01  9.9992658816884383e-01  9.9996721685712875e-01  9.9997922881291867e-01  9.9998453310657043e-01  9.9998739569629647e-01  9.9998909654225088e-01  9.9999014119786511e-01  9.9999076112615870e-01  9.9999106808427640e-01  9.9999111091662507e-01  9.9999089687711140e-01  9.9999039558837033e-01  9.9998952901760008e-01  9.9998814052705132e-01  9.9998591815078008e-01  9.9998219198948513e-01  9.9997528375599443e-01  9.9995957744388497e-01  9.9990691825203171e-01  9.9830523750699163e-01  4.6317978533480070e-01  4.9360428917145753e-02  8.8921606908717331e-05  6.1779527781997745e-05  5.9132894317183110e-05  5.8807367964137372e-05  5.8698398804670629e-05  5.8629199895163150e-05  5.8567534879390952e-05  5.8506949307883203e-05  5.8450152600186046e-05  5.8399752418932838e-05  5.8357647586222328e-05  5.8320963598682906e-05  5.8199724320974391e-05  1.1562342926606622e-04  1.1524376035665417e-04  5.7874383873337389e-05  6.0548789082621439e-05  1.0347924932900729e-04  1.8900888660406787e-01  7.6879618679559103e-01  9.9986032882012543e-01  9.9995185454867852e-01  9.9997325290843020e-01  9.9998144047301052e-01  9.9998557408543087e-01  9.9998795258940332e-01  9.9998940820211923e-01  9.9999030447110282e-01  9.9999081685012303e-01  9.9999103056843464e-01  9.9999097832524864e-01  9.9999065315107083e-01  9.9999000645667135e-01  9.9998893041913062e-01  9.9998721181646399e-01  9.9998441347132128e-01  9.9997952799607726e-01  9.9996971913428001e-01  9.9994324121307432e-01  9.9982226648183470e-01  7.5871167736407619e-01  2.3985166617349227e-01  1.9159596265093360e-04  6.9735252112828710e-05  5.9852423785232542e-05  5.8941653907111690e-05  5.8807234753570005e-05  5.8729723725274079e-05  5.8653876300582576e-05  5.8583475783558159e-05  5.8519208288934338e-05  5.8462997059441429e-05  5.8413499864460511e-05  5.8273941706196688e-05  1.1568856194142538e-04  1.1551214090624140e-04  5.8092030594989479e-05  5.8616546153759231e-05  6.0450540223162691e-05  8.1926511942916568e-05  5.0920573112967250e-02  5.0574678122687922e-01  9.9946400043304784e-01  9.9992328363506244e-01  9.9996438100728668e-01  9.9997743273013751e-01  9.9998336954935241e-01  9.9998661876802430e-01  9.9998856592216911e-01  9.9998977383454968e-01  9.9999050604983775e-01  9.9999089325799262e-01  9.9999099626057131e-01  9.9999083051983684e-01  9.9999037210844655e-01  9.9998954940332996e-01  9.9998821454352238e-01  9.9998607151959451e-01  9.9998248657400812e-01  9.9997588595825992e-01  9.9996111569746882e-01  9.9991320208872048e-01  9.9912569777605886e-01  4.9402040405152281e-01  6.5669107549197803e-02  9.2488174532879400e-05  6.2276847404571384e-05  5.9319476437726184e-05  5.8958762764659242e-05  5.8826915327693037e-05  5.8734594372677206e-05  5.8650941905752371e-05  5.8570764341066774e-05  5.8498376277478625e-05  5.8336219382812255e-05  1.1574396496940823e-04  1.1569589279004144e-04  5.8275186523056678e-05  5.8598250921991156e-05  5.8991850715819063e-05  5.9986874193005804e-05  6.8949345506006638e-05  2.0061066968513828e-04  2.6206208027059008e-01  8.0897661028603207e-01  9.9985381637839355e-01  9.9994889413669918e-01  9.9997169702388267e-01  9.9998050570025132e-01  9.9998497235965933e-01  9.9998754995306172e-01  9.9998913316754467e-01  9.9999011560229223e-01  9.9999068918157630e-01  9.9999094907095165e-01  9.9999093456323240e-01  9.9999064378901392e-01  9.9999003314385204e-01  9.9998900120095602e-01  9.9998734518687782e-01  9.9998464925108077e-01  9.9997996269802802e-01  9.9997065042969291e-01  9.9994612349738177e-01  9.9984028653627965e-01  7.9026977128029741e-01  2.6071605653411140e-01  2.1719902991075156e-04  7.0597331293157148e-05  6.0076361614318708e-05  5.9090329481124091e-05  5.8925786414725050e-05  5.8807414532525745e-05  5.8681971268842639e-05  5.8566145498087734e-05  5.8372996910190476e-05  1.1577805048291184e-04  1.1577161038003682e-04  5.8362329205621925e-05  5.8602449367541847e-05  5.8807390540035066e-05  5.9042810013378815e-05  5.9407665848688512e-05  6.2201674503491427e-05  9.2902587670263322e-05  7.482617761