<?xml version="1.0"?>
<VTKFile type="UnstructuredGrid"  version="0.1"  >
<UnstructuredGrid>
<Piece  NumberOfPoints="1681" NumberOfCells="3200">
<Points>
<DataArray  type="Float64"  NumberOfComponents="3"  format="ascii">0 0 0  0.025 0 0  0.05 0 0  0.075 0 0  0.1 0 0  0.125 0 0  0.15 0 0  0.175 0 0  0.2 0 0  0.225 0 0  0.25 0 0  0.275 0 0  0.3 0 0  0.325 0 0  0.35 0 0  0.375 0 0  0.4 0 0  0.425 0 0  0.45 0 0  0.475 0 0  0.5 0 0  0.525 0 0  0.55 0 0  0.575 0 0  0.6 0 0  0.625 0 0  0.65 0 0  0.675 0 0  0.7 0 0  0.725 0 0  0.75 0 0  0.775 0 0  0.8 0 0  0.825 0 0  0.85 0 0  0.875 0 0  0.9 0 0  0.925 0 0  0.95 0 0  0.975 0 0  1 0 0  0 0.025 0  0.025 0.025 0  0.05 0.025 0  0.075 0.025 0  0.1 0.025 0  0.125 0.025 0  0.15 0.025 0  0.175 0.025 0  0.2 0.025 0  0.225 0.025 0  0.25 0.025 0  0.275 0.025 0  0.3 0.025 0  0.325 0.025 0  0.35 0.025 0  0.375 0.025 0  0.4 0.025 0  0.425 0.025 0  0.45 0.025 0  0.475 0.025 0  0.5 0.025 0  0.525 0.025 0  0.55 0.025 0  0.575 0.025 0  0.6 0.025 0  0.625 0.025 0  0.65 0.025 0  0.675 0.025 0  0.7 0.025 0  0.725 0.025 0  0.75 0.025 0  0.775 0.025 0  0.8 0.025 0  0.825 0.025 0  0.85 0.025 0  0.875 0.025 0  0.9 0.025 0  0.925 0.025 0  0.95 0.025 0  0.975 0.025 0  1 0.025 0  0 0.05 0  0.025 0.05 0  0.05 0.05 0  0.075 0.05 0  0.1 0.05 0  0.125 0.05 0  0.15 0.05 0  0.175 0.05 0  0.2 0.05 0  0.225 0.05 0  0.25 0.05 0  0.275 0.05 0  0.3 0.05 0  0.325 0.05 0  0.35 0.05 0  0.375 0.05 0  0.4 0.05 0  0.425 0.05 0  0.45 0.05 0  0.475 0.05 0  0.5 0.05 0  0.525 0.05 0  0.55 0.05 0  0.575 0.05 0  0.6 0.05 0  0.625 0.05 0  0.65 0.05 0  0.675 0.05 0  0.7 0.05 0  0.725 0.05 0  0.75 0.05 0  0.775 0.05 0  0.8 0.05 0  0.825 0.05 0  0.85 0.05 0  0.875 0.05 0  0.9 0.05 0  0.925 0.05 0  0.95 0.05 0  0.975 0.05 0  1 0.05 0  0 0.075 0  0.025 0.075 0  0.05 0.075 0  0.075 0.075 0  0.1 0.075 0  0.125 0.075 0  0.15 0.075 0  0.175 0.075 0  0.2 0.075 0  0.225 0.075 0  0.25 0.075 0  0.275 0.075 0  0.3 0.075 0  0.325 0.075 0  0.35 0.075 0  0.375 0.075 0  0.4 0.075 0  0.425 0.075 0  0.45 0.075 0  0.475 0.075 0  0.5 0.075 0  0.525 0.075 0  0.55 0.075 0  0.575 0.075 0  0.6 0.075 0  0.625 0.075 0  0.65 0.075 0  0.675 0.075 0  0.7 0.075 0  0.725 0.075 0  0.75 0.075 0  0.775 0.075 0  0.8 0.075 0  0.825 0.075 0  0.85 0.075 0  0.875 0.075 0  0.9 0.075 0  0.925 0.075 0  0.95 0.075 0  0.975 0.075 0  1 0.075 0  0 0.1 0  0.025 0.1 0  0.05 0.1 0  0.075 0.1 0  0.1 0.1 0  0.125 0.1 0  0.15 0.1 0  0.175 0.1 0  0.2 0.1 0  0.225 0.1 0  0.25 0.1 0  0.275 0.1 0  0.3 0.1 0  0.325 0.1 0  0.35 0.1 0  0.375 0.1 0  0.4 0.1 0  0.425 0.1 0  0.45 0.1 0  0.475 0.1 0  0.5 0.1 0  0.525 0.1 0  0.55 0.1 0  0.575 0.1 0  0.6 0.1 0  0.625 0.1 0  0.65 0.1 0  0.675 0.1 0  0.7 0.1 0  0.725 0.1 0  0.75 0.1 0  0.775 0.1 0  0.8 0.1 0  0.825 0.1 0  0.85 0.1 0  0.875 0.1 0  0.9 0.1 0  0.925 0.1 0  0.95 0.1 0  0.975 0.1 0  1 0.1 0  0 0.125 0  0.025 0.125 0  0.05 0.125 0  0.075 0.125 0  0.1 0.125 0  0.125 0.125 0  0.15 0.125 0  0.175 0.125 0  0.2 0.125 0  0.225 0.125 0  0.25 0.125 0  0.275 0.125 0  0.3 0.125 0  0.325 0.125 0  0.35 0.125 0  0.375 0.125 0  0.4 0.125 0  0.425 0.125 0  0.45 0.125 0  0.475 0.125 0  0.5 0.125 0  0.525 0.125 0  0.55 0.125 0  0.575 0.125 0  0.6 0.125 0  0.625 0.125 0  0.65 0.125 0  0.675 0.125 0  0.7 0.125 0  0.725 0.125 0  0.75 0.125 0  0.775 0.125 0  0.8 0.125 0  0.825 0.125 0  0.85 0.125 0  0.875 0.125 0  0.9 0.125 0  0.925 0.125 0  0.95 0.125 0  0.975 0.125 0  1 0.125 0  0 0.15 0  0.025 0.15 0  0.05 0.15 0  0.075 0.15 0  0.1 0.15 0  0.125 0.15 0  0.15 0.15 0  0.175 0.15 0  0.2 0.15 0  0.225 0.15 0  0.25 0.15 0  0.275 0.15 0  0.3 0.15 0  0.325 0.15 0  0.35 0.15 0  0.375 0.15 0  0.4 0.15 0  0.425 0.15 0  0.45 0.15 0  0.475 0.15 0  0.5 0.15 0  0.525 0.15 0  0.55 0.15 0  0.575 0.15 0  0.6 0.15 0  0.625 0.15 0  0.65 0.15 0  0.675 0.15 0  0.7 0.15 0  0.725 0.15 0  0.75 0.15 0  0.775 0.15 0  0.8 0.15 0  0.825 0.15 0  0.85 0.15 0  0.875 0.15 0  0.9 0.15 0  0.925 0.15 0  0.95 0.15 0  0.975 0.15 0  1 0.15 0  0 0.175 0  0.025 0.175 0  0.05 0.175 0  0.075 0.175 0  0.1 0.175 0  0.125 0.175 0  0.15 0.175 0  0.175 0.175 0  0.2 0.175 0  0.225 0.175 0  0.25 0.175 0  0.275 0.175 0  0.3 0.175 0  0.325 0.175 0  0.35 0.175 0  0.375 0.175 0  0.4 0.175 0  0.425 0.175 0  0.45 0.175 0  0.475 0.175 0  0.5 0.175 0  0.525 0.175 0  0.55 0.175 0  0.575 0.175 0  0.6 0.175 0  0.625 0.175 0  0.65 0.175 0  0.675 0.175 0  0.7 0.175 0  0.725 0.175 0  0.75 0.175 0  0.775 0.175 0  0.8 0.175 0  0.825 0.175 0  0.85 0.175 0  0.875 0.175 0  0.9 0.175 0  0.925 0.175 0  0.95 0.175 0  0.975 0.175 0  1 0.175 0  0 0.2 0  0.025 0.2 0  0.05 0.2 0  0.075 0.2 0  0.1 0.2 0  0.125 0.2 0  0.15 0.2 0  0.175 0.2 0  0.2 0.2 0  0.225 0.2 0  0.25 0.2 0  0.275 0.2 0  0.3 0.2 0  0.325 0.2 0  0.35 0.2 0  0.375 0.2 0  0.4 0.2 0  0.425 0.2 0  0.45 0.2 0  0.475 0.2 0  0.5 0.2 0  0.525 0.2 0  0.55 0.2 0  0.575 0.2 0  0.6 0.2 0  0.625 0.2 0  0.65 0.2 0  0.675 0.2 0  0.7 0.2 0  0.725 0.2 0  0.75 0.2 0  0.775 0.2 0  0.8 0.2 0  0.825 0.2 0  0.85 0.2 0  0.875 0.2 0  0.9 0.2 0  0.925 0.2 0  0.95 0.2 0  0.975 0.2 0  1 0.2 0  0 0.225 0  0.025 0.225 0  0.05 0.225 0  0.075 0.225 0  0.1 0.225 0  0.125 0.225 0  0.15 0.225 0  0.175 0.225 0  0.2 0.225 0  0.225 0.225 0  0.25 0.225 0  0.275 0.225 0  0.3 0.225 0  0.325 0.225 0  0.35 0.225 0  0.375 0.225 0  0.4 0.225 0  0.425 0.225 0  0.45 0.225 0  0.475 0.225 0  0.5 0.225 0  0.525 0.225 0  0.55 0.225 0  0.575 0.225 0  0.6 0.225 0  0.625 0.225 0  0.65 0.225 0  0.675 0.225 0  0.7 0.225 0  0.725 0.225 0  0.75 0.225 0  0.775 0.225 0  0.8 0.225 0  0.825 0.225 0  0.85 0.225 0  0.875 0.225 0  0.9 0.225 0  0.925 0.225 0  0.95 0.225 0  0.975 0.225 0  1 0.225 0  0 0.25 0  0.025 0.25 0  0.05 0.25 0  0.075 0.25 0  0.1 0.25 0  0.125 0.25 0  0.15 0.25 0  0.175 0.25 0  0.2 0.25 0  0.225 0.25 0  0.25 0.25 0  0.275 0.25 0  0.3 0.25 0  0.325 0.25 0  0.35 0.25 0  0.375 0.25 0  0.4 0.25 0  0.425 0.25 0  0.45 0.25 0  0.475 0.25 0  0.5 0.25 0  0.525 0.25 0  0.55 0.25 0  0.575 0.25 0  0.6 0.25 0  0.625 0.25 0  0.65 0.25 0  0.675 0.25 0  0.7 0.25 0  0.725 0.25 0  0.75 0.25 0  0.775 0.25 0  0.8 0.25 0  0.825 0.25 0  0.85 0.25 0  0.875 0.25 0  0.9 0.25 0  0.925 0.25 0  0.95 0.25 0  0.975 0.25 0  1 0.25 0  0 0.275 0  0.025 0.275 0  0.05 0.275 0  0.075 0.275 0  0.1 0.275 0  0.125 0.275 0  0.15 0.275 0  0.175 0.275 0  0.2 0.275 0  0.225 0.275 0  0.25 0.275 0  0.275 0.275 0  0.3 0.275 0  0.325 0.275 0  0.35 0.275 0  0.375 0.275 0  0.4 0.275 0  0.425 0.275 0  0.45 0.275 0  0.475 0.275 0  0.5 0.275 0  0.525 0.275 0  0.55 0.275 0  0.575 0.275 0  0.6 0.275 0  0.625 0.275 0  0.65 0.275 0  0.675 0.275 0  0.7 0.275 0  0.725 0.275 0  0.75 0.275 0  0.775 0.275 0  0.8 0.275 0  0.825 0.275 0  0.85 0.275 0  0.875 0.275 0  0.9 0.275 0  0.925 0.275 0  0.95 0.275 0  0.975 0.275 0  1 0.275 0  0 0.3 0  0.025 0.3 0  0.05 0.3 0  0.075 0.3 0  0.1 0.3 0  0.125 0.3 0  0.15 0.3 0  0.175 0.3 0  0.2 0.3 0  0.225 0.3 0  0.25 0.3 0  0.275 0.3 0  0.3 0.3 0  0.325 0.3 0  0.35 0.3 0  0.375 0.3 0  0.4 0.3 0  0.425 0.3 0  0.45 0.3 0  0.475 0.3 0  0.5 0.3 0  0.525 0.3 0  0.55 0.3 0  0.575 0.3 0  0.6 0.3 0  0.625 0.3 0  0.65 0.3 0  0.675 0.3 0  0.7 0.3 0  0.725 0.3 0  0.75 0.3 0  0.775 0.3 0  0.8 0.3 0  0.825 0.3 0  0.85 0.3 0  0.875 0.3 0  0.9 0.3 0  0.925 0.3 0  0.95 0.3 0  0.975 0.3 0  1 0.3 0  0 0.325 0  0.025 0.325 0  0.05 0.325 0  0.075 0.325 0  0.1 0.325 0  0.125 0.325 0  0.15 0.325 0  0.175 0.325 0  0.2 0.325 0  0.225 0.325 0  0.25 0.325 0  0.275 0.325 0  0.3 0.325 0  0.325 0.325 0  0.35 0.325 0  0.375 0.325 0  0.4 0.325 0  0.425 0.325 0  0.45 0.325 0  0.475 0.325 0  0.5 0.325 0  0.525 0.325 0  0.55 0.325 0  0.575 0.325 0  0.6 0.325 0  0.625 0.325 0  0.65 0.325 0  0.675 0.325 0  0.7 0.325 0  0.725 0.325 0  0.75 0.325 0  0.775 0.325 0  0.8 0.325 0  0.825 0.325 0  0.85 0.325 0  0.875 0.325 0  0.9 0.325 0  0.925 0.325 0  0.95 0.325 0  0.975 0.325 0  1 0.325 0  0 0.35 0  0.025 0.35 0  0.05 0.35 0  0.075 0.35 0  0.1 0.35 0  0.125 0.35 0  0.15 0.35 0  0.175 0.35 0  0.2 0.35 0  0.225 0.35 0  0.25 0.35 0  0.275 0.35 0  0.3 0.35 0  0.325 0.35 0  0.35 0.35 0  0.375 0.35 0  0.4 0.35 0  0.425 0.35 0  0.45 0.35 0  0.475 0.35 0  0.5 0.35 0  0.525 0.35 0  0.55 0.35 0  0.575 0.35 0  0.6 0.35 0  0.625 0.35 0  0.65 0.35 0  0.675 0.35 0  0.7 0.35 0  0.725 0.35 0  0.75 0.35 0  0.775 0.35 0  0.8 0.35 0  0.825 0.35 0  0.85 0.35 0  0.875 0.35 0  0.9 0.35 0  0.925 0.35 0  0.95 0.35 0  0.975 0.35 0  1 0.35 0  0 0.375 0  0.025 0.375 0  0.05 0.375 0  0.075 0.375 0  0.1 0.375 0  0.125 0.375 0  0.15 0.375 0  0.175 0.375 0  0.2 0.375 0  0.225 0.375 0  0.25 0.375 0  0.275 0.375 0  0.3 0.375 0  0.325 0.375 0  0.35 0.375 0  0.375 0.375 0  0.4 0.375 0  0.425 0.375 0  0.45 0.375 0  0.475 0.375 0  0.5 0.375 0  0.525 0.375 0  0.55 0.375 0  0.575 0.375 0  0.6 0.375 0  0.625 0.375 0  0.65 0.375 0  0.675 0.375 0  0.7 0.375 0  0.725 0.375 0  0.75 0.375 0  0.775 0.375 0  0.8 0.375 0  0.825 0.375 0  0.85 0.375 0  0.875 0.375 0  0.9 0.375 0  0.925 0.375 0  0.95 0.375 0  0.975 0.375 0  1 0.375 0  0 0.4 0  0.025 0.4 0  0.05 0.4 0  0.075 0.4 0  0.1 0.4 0  0.125 0.4 0  0.15 0.4 0  0.175 0.4 0  0.2 0.4 0  0.225 0.4 0  0.25 0.4 0  0.275 0.4 0  0.3 0.4 0  0.325 0.4 0  0.35 0.4 0  0.375 0.4 0  0.4 0.4 0  0.425 0.4 0  0.45 0.4 0  0.475 0.4 0  0.5 0.4 0  0.525 0.4 0  0.55 0.4 0  0.575 0.4 0  0.6 0.4 0  0.625 0.4 0  0.65 0.4 0  0.675 0.4 0  0.7 0.4 0  0.725 0.4 0  0.75 0.4 0  0.775 0.4 0  0.8 0.4 0  0.825 0.4 0  0.85 0.4 0  0.875 0.4 0  0.9 0.4 0  0.925 0.4 0  0.95 0.4 0  0.975 0.4 0  1 0.4 0  0 0.425 0  0.025 0.425 0  0.05 0.425 0  0.075 0.425 0  0.1 0.425 0  0.125 0.425 0  0.15 0.425 0  0.175 0.425 0  0.2 0.425 0  0.225 0.425 0  0.25 0.425 0  0.275 0.425 0  0.3 0.425 0  0.325 0.425 0  0.35 0.425 0  0.375 0.425 0  0.4 0.425 0  0.425 0.425 0  0.45 0.425 0  0.475 0.425 0  0.5 0.425 0  0.525 0.425 0  0.55 0.425 0  0.575 0.425 0  0.6 0.425 0  0.625 0.425 0  0.65 0.425 0  0.675 0.425 0  0.7 0.425 0  0.725 0.425 0  0.75 0.425 0  0.775 0.425 0  0.8 0.425 0  0.825 0.425 0  0.85 0.425 0  0.875 0.425 0  0.9 0.425 0  0.925 0.425 0  0.95 0.425 0  0.975 0.425 0  1 0.425 0  0 0.45 0  0.02
[...]
<PointData  Scalars="ControlVisualisation"> 
<DataArray  type="Float64"  Name="ControlVisualisation"  format="ascii">1.7255324367040179e-04  1.1503704873043645e-04  1.1503730909992178e-04  1.1504781530826767e-04  1.1508943720410736e-04  1.1517273715739288e-04  1.1528878329689836e-04  1.1542036954076624e-04  1.1555238370985684e-04  1.1567300362295445e-04  1.1577334281603018e-04  1.1584869200312236e-04  1.1589870803892486e-04  1.1592591864349721e-04  1.1593392535869820e-04  1.1592629287165869e-04  1.1590613799523325e-04  1.1587607110531231e-04  1.1583826048157264e-04  1.1579452194432069e-04  1.1574639353902350e-04  1.1569518772782636e-04  1.1564202890945746e-04  1.1558788405445948e-04  1.1553358928167658e-04  1.1547987249010199e-04  1.1542737167060654e-04  1.1537664909909091e-04  1.1532820187637204e-04  1.1528246955537402e-04  1.1523983951699371e-04  1.1520065070519157e-04  1.1516519647369670e-04  1.1513372695883628e-04  1.1510645151658754e-04  1.1508354119957167e-04  1.1506513167094048e-04  1.1505132343047879e-04  1.1504222349541952e-04  1.1503773011206987e-04  3.4508469523105231e-04  1.1503851326600956e-04  5.7517725717194203e-05  5.7519421168525683e-05  5.7531891528080203e-05  5.7575750108396760e-05  5.7663608106143477e-05  5.7788360209577440e-05  5.7933136372800092e-05  5.8082077711111191e-05  5.8221346366768129e-05  5.8339470488237120e-05  5.8429699822153060e-05  5.8490874317220298e-05  5.8525620721109000e-05  5.8537956384142805e-05  5.8531930156481873e-05  5.8511135052379730e-05  5.8478605811349909e-05  5.8436874263863325e-05  5.8388068808667867e-05  5.8333998262346801e-05  5.8276208379058653e-05  5.8216022242753124e-05  5.8154574336799744e-05  5.8092841486677822e-05  5.8031669854569681e-05  5.7971797177744597e-05  5.7913870243743847e-05  5.7858458111300502e-05  5.7806061839923456e-05  5.7757121487773518e-05  5.7712021103358928e-05  5.7671092473553789e-05  5.7634618245356796e-05  5.7602834975293986e-05  5.7575936105221168e-05  5.7554075801970188e-05  5.7537372456939966e-05  5.7525899482821365e-05  5.7519375341507064e-05  1.1503773057479145e-04  1.1506359081278181e-04  5.7535093493943548e-05  5.7545968324538370e-05  5.7578086566432208e-05  5.7650776552575165e-05  5.7765769246243263e-05  5.7908910203825907e-05  5.8066611721778439e-05  5.8230746995804930e-05  5.8386989726003267e-05  5.8517445020108528e-05  5.8612675752405395e-05  5.8674029294115847e-05  5.8706543858263969e-05  5.8715109748484737e-05  5.8704080537937294e-05  5.8677231173389351e-05  5.8637712610684804e-05  5.8588165091060480e-05  5.8530859388310810e-05  5.8467772106482422e-05  5.8400616891322621e-05  5.8330868851886453e-05  5.8259795207216277e-05  5.8188488822360972e-05  5.8117898587686362e-05  5.8048854000617805e-05  5.7982084186013725e-05  5.7918232235698110e-05  5.7857865698386523e-05  5.7801484029534706e-05  5.7749523779124354e-05  5.7702362437006193e-05  5.7660321625113891e-05  5.7623670315943411e-05  5.7592628251512432e-05  5.7567370755565029e-05  5.7548024642578849e-05  5.7534615317240270e-05  5.7525921629396229e-05  1.1504223502067819e-04  1.1525280670118900e-04  5.7670913776605437e-05  5.7706899636166913e-05  5.7787907431033846e-05  5.7910168906429627e-05  5.8030428282367563e-05  5.8127460113560785e-05  5.8231090193237934e-05  5.8376011080566326e-05  5.8532924555428305e-05  5.8647098084628564e-05  5.8716472886365067e-05  5.8756402271263275e-05  5.8773170054552181e-05  5.8769940044280474e-05  5.8750218034294780e-05  5.8717088585909035e-05  5.8672926999390332e-05  5.8619790773166501e-05  5.8559617715481325e-05  5.8494204291071946e-05  5.8425148945334179e-05  5.8353834982018499e-05  5.8281452281693278e-05  5.8209032122690661e-05  5.8137477300118485e-05  5.8067583851729291e-05  5.8000057148102467e-05  5.7935524091073715e-05  5.7874541980800377e-05  5.7817604473703729e-05  5.7765145350173114e-05  5.7717541082858521e-05  5.7675113012363471e-05  5.7638129836460484e-05  5.7606810587962079e-05  5.7581328567581281e-05  5.7561802507154845e-05  5.7548155093473754e-05  5.7537503901798558e-05  1.1505140385549750e-04  1.1656830542181558e-04  5.8889680947881278e-05  5.9258798718655364e-05  6.2094779803556979e-05  6.3894253480180769e-05  6.3504848831182935e-05  6.1649656399969500e-05  5.9883925465656084e-05  5.9169875754155292e-05  5.8987345130332024e-05  5.8893101708879715e-05  5.8865869477701859e-05  5.8865152867414954e-05  5.8857353622489129e-05  5.8835989693266483e-05  5.8803987459856307e-05  5.8762657877983987e-05  5.8712584457717327e-05  5.8654915380371300e-05  5.8591199426335568e-05  5.8523047525884746e-05  5.8451917063192841e-05  5.8379048138325511e-05  5.8305497908752035e-05  5.8232193317017187e-05  5.8159961041651150e-05  5.8089541095448544e-05  5.8021597152838136e-05  5.7956726036982554e-05  5.7895464570731277e-05  5.7838293381582216e-05  5.7785638423929706e-05  5.7737871547211177e-05  5.7695311077933631e-05  5.7658223146656714e-05  5.7626823878995117e-05  5.7601282694859742e-05  5.7581707098273193e-05  5.7567875626481682e-05  5.7554523866562582e-05  1.1506543423462357e-04  1.3827551955069529e-04  6.2713110494276076e-05  7.3682800100240432e-05  1.5970671966296271e-04  5.2815894751359000e-03  1.1302866853638958e-02  3.6505372306286002e-04  1.3818573304319302e-04  8.9103599422575084e-05  6.9338114654414834e-05  6.1204881491719603e-05  5.9397813903562515e-05  5.9082007214971263e-05  5.8978259150482442e-05  5.8918892336581485e-05  5.8871232763449349e-05  5.8820781506699384e-05  5.8763811903202953e-05  5.8700535017623504e-05  5.8632264518042375e-05  5.8560561197608012e-05  5.8486788326921918e-05  5.8411976828876664e-05  5.8336976227323465e-05  5.8262573103644428e-05  5.8189502299737572e-05  5.8118434532316882e-05  5.8049978964205442e-05  5.7984692580628135e-05  5.7923085687805675e-05  5.7865622681121714e-05  5.7812720322967040e-05  5.7764745541880982e-05  5.7722013842138706e-05  5.7684789028117452e-05  5.7653284407458350e-05  5.7627665352503117e-05  5.7608025786846469e-05  5.7593958459092653e-05  5.7577085477722503e-05  1.1508436463760190e-04  1.7311576241118472e-04  6.7440621261822167e-02  7.0282752439383556e-01  9.9689539584591291e-01  9.9958356002699644e-01  9.9939971452890974e-01  9.1526997939992616e-01  6.4772766078415889e-01  3.5012924600623424e-01  9.3929956632926873e-02  1.7602366496784005e-04  7.7953630561827596e-05  6.2313588009837312e-05  5.9480728427523398e-05  5.9070978933899893e-05  5.8961725924462177e-05  5.8893472494806485e-05  5.8827308682402641e-05  5.8757322461455162e-05  5.8683198770211466e-05  5.8606973744923799e-05  5.8530073049411196e-05  5.8453028820665375e-05  5.8376326476281168e-05  5.8300609232496117e-05  5.8226533494559606e-05  5.8154690052227686e-05  5.8085616747392486e-05  5.8019819839532384e-05  5.7957778083987961e-05  5.7899937884360380e-05  5.7846706868898133e-05  5.7798448128526648e-05  5.7755475897146538e-05  5.7718053215661334e-05  5.7686391843174366e-05  5.7660653801048897e-05  5.7640917548556201e-05  5.7626547466404669e-05  5.7605301862610024e-05  1.1510828779383057e-04  9.9995532885268190e-01  9.9997415524569266e-01  9.9997898428063803e-01  9.9997700205685514e-01  9.9997384182209115e-01  9.9996839345351596e-01  9.9995777689820209e-01  9.9993666661339353e-01  9.9987617666534712e-01  9.9905503520267935e-01  5.8631157611404305e-01  1.9562183535934022e-01  2.4710095827808833e-04  7.7159953968749791e-05  6.1340729912263259e-05  5.9324384576574318e-05  5.9014417094826763e-05  5.8909690927340082e-05  5.8827853576029117e-05  5.8743825193371333e-05  5.8661726778383223e-05  5.8581741792171268e-05  5.8502448735941590e-05  5.8423805595819111e-05  5.8346550268258578e-05  5.8271330163506830e-05  5.8198614816308786e-05  5.8128836706551974e-05  5.8062440340841041e-05  5.7999870969502498e-05  5.7941557338082823e-05  5.7887899599416793e-05  5.7839259765886705e-05  5.7795954099355943e-05  5.7758248219373642e-05  5.7726355280963655e-05  5.7700436110294226e-05  5.7680552954534771e-05  5.7665799102654969e-05  5.7639301305215974e-05  1.1513730633156286e-04  9.9999188516149706e-01  9.9999465284864109e-01  9.9999352669274633e-01  9.9999195899914972e-01  9.9999005125143126e-01  9.9998767054616389e-01  9.9998446797985974e-01  9.9997971668816910e-01  9.9997164289405061e-01  9.9995453465537265e-01  9.9990726995935575e-01  9.9955624742945703e-01  6.0142925446181583e-01  1.6854356796888711e-01  1.6405040486021415e-04  7.0162194368263790e-05  6.0147696400855187e-05  5.9149521926177759e-05  5.8934189341848327e-05  5.8812612649450077e-05  5.8723178229944814e-05  5.8642312946218403e-05  5.8560863990000971e-05  5.8479661465016191e-05  5.8400592540393010e-05  5.8324181893943110e-05  5.8250569412061887e-05  5.8180031504010543e-05  5.8112958725706722e-05  5.8049768638956011e-05  5.7990874199041870e-05  5.7936671255145539e-05  5.7887525628822175e-05  5.7843761286393180e-05  5.7805652267939001e-05  5.7773418658782491e-05  5.7747224768793118e-05  5.7727118154569392e-05  5.7711879166931432e-05  5.7679216139949052e-05  1.1517152604318178e-04  9.9999555900798975e-01  9.9999732825738818e-01  9.9999653578837489e-01  9.9999540933851550e-01  9.9999406153794856e-01  9.9999252929420979e-01  9.9999075675751470e-01  9.9998856798464486e-01  9.9998559911660156e-01  9.9998107426147653e-01  9.9997306806701536e-01  9.9995514422688636e-01  9.9989800391857853e-01  9.9855423792012621e-01  4.8709061408390564e-01  7.6173979144051718e-02  1.0342594694579639e-04  6.4146499430638642e-05  5.9459211013418640e-05  5.8920530613958728e-05  5.8798438830183971e-05  5.8717506962279435e-05  5.8629475360703217e-05  5.8543615938567997e-05  5.8462744608932215e-05  5.8385441585200024e-05  5.8311009739077943e-05  5.8239681588728257e-05  5.8171871572150107e-05  5.8107972277673958e-05  5.8048377939243185e-05  5.7993485180528469e-05  5.7943671669960709e-05  5.7899277735068209e-05  5.7860595038328471e-05  5.7827860050711910e-05  5.7801249439246511e-05  5.7780801636105924e-05  5.7764944605158122e-05  5.7725165257490825e-05  1.1521104152537490e-04  9.9999609865964079e-01  9.9999783363775074e-01  9.9999722692048221e-01  9.9999635405052389e-01  9.9999531940714170e-01  9.9999419681697788e-01  9.9999299815688580e-01  9.9999166573734455e-01  9.9999006877573926e-01  9.9998796954249614e-01  9.9998492066172595e-01  9.9997995878258106e-01  9.9997051595676445e-01  9.9994670851217016e-01  9.9985278189688365e-01  8.5094404164294601e-01  3.2322021816465774e-01  5.2914291325563704e-04  7.6738057568216154e-05  6.0509994514819360e-05  5.9087254532431711e-05  5.8842925351426232e-05  5.8708374501243962e-05  5.8613532388324272e-05  5.8533183584843078e-05  5.8455827692392714e-05  5.8380522765168685e-05  5.8308353077793895e-05  5.8239787512280968e-05  5.8175108850899083e-05  5.8114682140386968e-05  5.8058920904700829e-05  5.8008226987967082e-05  5.7962968120595197e-05  5.7923466954136864e-05  5.7889991670542491e-05  5.7862747003810828e-05  5.7841774879985308e-05  5.7825117027519311e-05  5.7777227799699229e-05  1.1525591419307880e-04  9.9999498194011371e-01  9.9999747637825120e-01  9.9999694193815991e-01  9.9999620365928099e-01  9.9999537988739773e-01  9.9999453958535922e-01  9.9999369889261847e-01  9.9999282824001978e-01  9.9999185999371543e-01  9.9999068624883736e-01  9.9998913771980380e-01  9.9998692377052079e-01  9.9998347498194307e-01  9.9997746675914279e-01  9.9996490788372494e-01  9.9992853847010321e-01  9.9968452960909004e-01  6.1845165626106591e-01  1.4701763078407806e-01  1.2529894171219971e-04  6.6068064155019870e-05  5.9518072353863767e-05  5.8835241347943240e-05  5.8695325754947369e-05  5.8616706138021194e-05  5.8536897006764836e-05  5.8459592194000445e-05  5.8386653592061725e-05  5.8317487904210920e-05  5.8251981519632404e-05  5.8190563092500982e-05  5.8133711906543136e-05  5.8081859463140436e-05  5.8035410178511601e-05  5.7994736577115349e-05  5.7960162816405141e-05  5.7931948407014583e-05  5.7910163634607816e-05  5.7892441771420376e-05  5.7835401743733425e-05  1.1530613792879722e-04  9.9998857485170567e-01  9.9999547376321141e-01  9.9999525842739867e-01  9.9999486325073728e-01  9.9999439939251300e-01  9.9999392657430175e-01  9.9999345831974540e-01  9.9999297643364793e-01  9.9999244083707906e-01  9.9999179371611080e-01  9.9999095477935995e-01  9.9998980455924924e-01  9.9998814585431861e-01  9.9998561233418526e-01  9.9998142211711494e-01  9.9997356042255170e-01  9.9995486806754985e-01  9.9988757582554288e-01  9.4308319150070008e-01  3.8963934481826890e-01  9.4656204785366627e-03  8.1317360240298238e-05  6.0835111085512008e-05  5.9011378966329971e-05  5.8750951899621963e-05  5.8631476192616671e-05  5.8547941986857529e-05  5.8475576966708485e-05  5.8406149025082872e-05  5.8339617606164247e-05  5.8276999403609548e-05  5.8218803051071263e-05  5.8165434595284981e-05  5.8117343420930554e-05  5.8074983193107929e-05  5.8038770401342563e-05  5.8009062974145504e-05  5.7986005889355271e-05  5.7966824620259467e-05  5.7899538666636316e-05  1.1536158518268273e-04  9.9985244350116176e-01  9.9998200786219416e-01  9.9998843073643295e-01  9.9999074262079035e-01  9.9999167784105736e-01  9.9999209830078872e-01  9.9999227648297451e-01  9.9999230804790407e-01  9.9999221993946918e-01  9.9999200671129806e-01  9.9999164192305368e-01  9.9999107777956153e-01  9.9999023508144680e-01  9.9998897866384051e-01  9.9998706164147544e-01  9.9998398675978417e-01  9.9997859749140283e-01  9.9996751922915217e-01  9.9993629257032768e-01  9.9976651889134938e-01  6.8107955438077783e-01  1.8585718711501395e-01  1.4383990917326067e-04  6.7275906829870210e-05  5.9552796825935151e-05  5.8796131548345409e-05  5.8655811441506056e-05  5.8580073747817110e-05  5.8507604097792142e-05  5.8439147061537292e-05  5.8375216382122069e-05  5.8315464771709081e-05  5.8260111402284974e-05  5.8209749174446761e-05  5.8164957530975409e-05  5.8126286725840816e-05  5.8094263124408760e-05  5.8069191259127150e-05  5.8047933353911074e-05  5.7969239707175408e-05  1.1542192119202230e-04  1.3318548985299705e-04  4.4686986434715537e-01  9.9994131157899713e-01  9.9997551447326827e-01  9.9998444540250153e-01  9.9998790493932599e-01  9.9998964574992488e-01  9.9999063174477909e-01  9.9999120380604456e-01  9.9999150230681622e-01  9.9999158496119456e-01  9.9999146675156581e-01  9.9999113261489592e-01  9.9999053634632773e-01  9.9998958699500107e-01  9.9998811454162539e-01  9.9998578753284251e-01  9.9998189449379182e-01  9.9997463195494751e-01  9.9995780796821587e-01  9.9989929589603299e-01  9.8960695623214623e-01  4.2877055414442983e-01  3.1046115555735852e-02  8.5121562176747537e-05  6.1275843388386200e-05  5.9028678737321451e-05  5.8737283534723623e-05  5.8625781450020499e-05  5.8551656200573543e-05  5.8487183045559007e-05  5.8425533084958918e-05  5.8367457129217379e-05  5.8313979613387163e-05  5.8265699827364663e-05  5.8223325817588507e-05  5.8187677778895559e-05  5.8159376246659415e-05  5.8135044465473680e-05  5.8043687610424267e-05  1.1548646545858880e-04  1.1774276203402458e-04  8.6245413281072557e-05  4.5999681852869423e-01  9.9983857612310645e-01  9.9995668905661372e-01  9.9997692368772817e-01  9.9998384300902476e-01  9.9998716895754824e-01  9.9998903325560773e-01  9.9999015240057143e-01  9.9999082214652557e-01  9.9999117758740674e-01  9.9999127903169593e-01  9.9999114304769898e-01  9.9999075142418936e-01  9.9999004668699953e-01  9.9998891218638075e-01  9.9998712239792875e-01  9.9998421579635255e-01  9.9997912051264293e-01  9.9996876706693638e-01  9.9994008726981531e-01  9.9979897549889674e-01  7.2318690544753905e-01  2.1449467006241510e-01  1.6574214392093536e-04  6.8496387677947798e-05  5.9663303191536928e-05  5.8829944290897661e-05  5.8691944019138343e-05  5.8618888526511190e-05  5.8551487890132472e-05  5.8489503066094724e-05  5.8432012165190702e-05  5.8378795628657469e-05  5.8330783370623312e-05  5.8289414103748773e-05  5.8255875344136921e-05  5.8226806071742816e-05  5.8121371585032392e-05  1.1555396399385162e-04  1.1508425866621757e-04  5.9687433108894113e-05  1.2649177955544513e-04  3.3239426106606157e-01  9.9884739485974394e-01  9.9992660253427046e-01  9.9996722083579304e-01  9.9997923053432736e-01  9.9998453406928278e-01  9.9998739632706857e-01  9.9998909700100436e-01  9.9999014154783472e-01  9.9999076139750520e-01  9.9999106828853657e-01  9.9999111106266492e-01  9.9999089697350885e-01  9.9999039564172088e-01  9.9998952902185956e-01  9.9998814046489160e-01  9.9998591797956904e-01  9.9998219169202218e-01  9.9997528340943864e-01  9.9995957735660712e-01  9.9990692279448434e-01  9.9830891608078343e-01  4.6312071617960027e-01  4.9408248502754971e-02  8.8933062094764915e-05  6.1781590345027132e-05  5.9133049524700975e-05  5.8807273477453724e-05  5.8698317683525800e-05  5.8629161700779947e-05  5.8567484933256308e-05  5.8506864356991843e-05  5.8450061894604497e-05  5.8399664581170566e-05  5.8357559086228821e-05  5.8320879603272534e-05  5.8199627287888804e-05  1.1562220501657898e-04  1.1524250043968674e-04  5.7874217650536471e-05  6.0549636432141972e-05  1.0349328242643847e-04  1.8897963304651400e-01  7.6874855520632279e-01  9.9986038767428653e-01  9.9995186412465231e-01  9.9997325593452713e-01  9.9998144198395844e-01  9.9998557503369478e-01  9.9998795324860201e-01  9.9998940867261277e-01  9.9999030481557327e-01  9.9999081710269744e-01  9.9999103075459961e-01  9.9999097846878338e-01  9.9999065326393211e-01  9.9999000654203829e-01  9.9998893047923243e-01  9.9998721189527173e-01  9.9998441361895707e-01  9.9997952827841918e-01  9.9996971972512572e-01  9.9994324445542071e-01  9.9982229313930671e-01  7.5872022672746997e-01  2.3982760557471841e-01  1.9175784981627906e-04  6.9739947105407722e-05  5.9852568864830088e-05  5.8941671990028445e-05  5.8807288883925578e-05  5.8729737994534407e-05  5.8653826197000167e-05  5.8583385180335833e-05  5.8519118049218350e-05  5.8462915063736756e-05  5.8413413914111114e-05  5.8273848815435287e-05  1.1568735085010992e-04  1.1551087136039491e-04  5.8091890984045193e-05  5.8616468425382158e-05  6.0451388548426738e-05  8.1938305519271639e-05  5.0850897318101669e-02  5.0566260695345178e-01  9.9946462403990566e-01  9.9992330082116032e-01  9.9996438661312714e-01  9.9997743523018534e-01  9.9998337093747647e-01  9.9998661961373292e-01  9.9998856647694812e-01  9.9998977421432367e-01  9.9999050631695108e-01  9.9999089345856662e-01  9.9999099642233080e-01  9.9999083065832439e-01  9.9999037223946974e-01  9.9998954955540664e-01  9.9998821474258937e-01  9.9998607178113919e-01  9.9998248694783098e-01  9.9997588673230198e-01  9.9996111865604309e-01  9.9991321686345624e-01  9.9912764010514843e-01  4.9392587034843360e-01  6.5689373169093193e-02  9.2506548393333184e-05  6.2278926414982151e-05  5.9319985354515347e-05  5.8958862771334234e-05  5.8826856636928333e-05  5.8734508686058049e-05  5.8650860444771514e-05  5.8570683649665283e-05  5.8498287568495087e-05  5.8336121256690600e-05  1.1574274327682521e-04  1.1569465756959939e-04  5.8275065480744654e-05  5.8598207937798101e-05  5.8991995816570654e-05  5.9987730392765041e-05  6.8956922986252445e-05  2.0077321767597301e-04  2.6200282164872063e-01  8.0892861863266718e-01  9.9985388437897749e-01  9.9994890645507761e-01  9.9997170098650334e-01  9.9998050753220902e-01  9.9998497336860981e-01  9.9998755055126787e-01  9.9998913353577235e-01  9.9999011585147757e-01  9.9999068937323232e-01  9.9999094923574428e-01  9.9999093472211664e-01  9.9999064395415971e-01  9.9999003333135961e-01  9.9998900142707225e-01  9.9998734547709234e-01  9.9998464970897649e-01  9.9997996371226727e-01  9.9997065330142831e-01  9.9994613480272432e-01  9.9984034755903517e-01  7.9025336804205781e-01  2.6069249375887071e-01  2.1744861495456093e-04  7.0605104758519451e-05  6.0076901951251085e-05  5.9090124519699854e-05  5.8925621428250508e-05  5.8807340130180200e-05  5.8681923871137798e-05  5.8566083657010093e-05  5.8372909015779136e-05  1.1577683089232659e-04  1.1577038489315063e-04  5.8362236718024273e-05  5.8602389929273602e-05  5.8807401407072161e-05  5.9042864850142546e-05  5.9407624189016706e-05  6.2202550695174925e-05  9.2914954435843197e-05  7.485190016