<?xml version="1.0"?>
<VTKFile type="UnstructuredGrid"  version="0.1"  >
<UnstructuredGrid>
<Piece  NumberOfPoints="1681" NumberOfCells="3200">
<Points>
<DataArray  type="Float64"  NumberOfComponents="3"  format="ascii">0 0 0  0.025 0 0  0.05 0 0  0.075 0 0  0.1 0 0  0.125 0 0  0.15 0 0  0.175 0 0  0.2 0 0  0.225 0 0  0.25 0 0  0.275 0 0  0.3 0 0  0.325 0 0  0.35 0 0  0.375 0 0  0.4 0 0  0.425 0 0  0.45 0 0  0.475 0 0  0.5 0 0  0.525 0 0  0.55 0 0  0.575 0 0  0.6 0 0  0.625 0 0  0.65 0 0  0.675 0 0  0.7 0 0  0.725 0 0  0.75 0 0  0.775 0 0  0.8 0 0  0.825 0 0  0.85 0 0  0.875 0 0  0.9 0 0  0.925 0 0  0.95 0 0  0.975 0 0  1 0 0  0 0.025 0  0.025 0.025 0  0.05 0.025 0  0.075 0.025 0  0.1 0.025 0  0.125 0.025 0  0.15 0.025 0  0.175 0.025 0  0.2 0.025 0  0.225 0.025 0  0.25 0.025 0  0.275 0.025 0  0.3 0.025 0  0.325 0.025 0  0.35 0.025 0  0.375 0.025 0  0.4 0.025 0  0.425 0.025 0  0.45 0.025 0  0.475 0.025 0  0.5 0.025 0  0.525 0.025 0  0.55 0.025 0  0.575 0.025 0  0.6 0.025 0  0.625 0.025 0  0.65 0.025 0  0.675 0.025 0  0.7 0.025 0  0.725 0.025 0  0.75 0.025 0  0.775 0.025 0  0.8 0.025 0  0.825 0.025 0  0.85 0.025 0  0.875 0.025 0  0.9 0.025 0  0.925 0.025 0  0.95 0.025 0  0.975 0.025 0  1 0.025 0  0 0.05 0  0.025 0.05 0  0.05 0.05 0  0.075 0.05 0  0.1 0.05 0  0.125 0.05 0  0.15 0.05 0  0.175 0.05 0  0.2 0.05 0  0.225 0.05 0  0.25 0.05 0  0.275 0.05 0  0.3 0.05 0  0.325 0.05 0  0.35 0.05 0  0.375 0.05 0  0.4 0.05 0  0.425 0.05 0  0.45 0.05 0  0.475 0.05 0  0.5 0.05 0  0.525 0.05 0  0.55 0.05 0  0.575 0.05 0  0.6 0.05 0  0.625 0.05 0  0.65 0.05 0  0.675 0.05 0  0.7 0.05 0  0.725 0.05 0  0.75 0.05 0  0.775 0.05 0  0.8 0.05 0  0.825 0.05 0  0.85 0.05 0  0.875 0.05 0  0.9 0.05 0  0.925 0.05 0  0.95 0.05 0  0.975 0.05 0  1 0.05 0  0 0.075 0  0.025 0.075 0  0.05 0.075 0  0.075 0.075 0  0.1 0.075 0  0.125 0.075 0  0.15 0.075 0  0.175 0.075 0  0.2 0.075 0  0.225 0.075 0  0.25 0.075 0  0.275 0.075 0  0.3 0.075 0  0.325 0.075 0  0.35 0.075 0  0.375 0.075 0  0.4 0.075 0  0.425 0.075 0  0.45 0.075 0  0.475 0.075 0  0.5 0.075 0  0.525 0.075 0  0.55 0.075 0  0.575 0.075 0  0.6 0.075 0  0.625 0.075 0  0.65 0.075 0  0.675 0.075 0  0.7 0.075 0  0.725 0.075 0  0.75 0.075 0  0.775 0.075 0  0.8 0.075 0  0.825 0.075 0  0.85 0.075 0  0.875 0.075 0  0.9 0.075 0  0.925 0.075 0  0.95 0.075 0  0.975 0.075 0  1 0.075 0  0 0.1 0  0.025 0.1 0  0.05 0.1 0  0.075 0.1 0  0.1 0.1 0  0.125 0.1 0  0.15 0.1 0  0.175 0.1 0  0.2 0.1 0  0.225 0.1 0  0.25 0.1 0  0.275 0.1 0  0.3 0.1 0  0.325 0.1 0  0.35 0.1 0  0.375 0.1 0  0.4 0.1 0  0.425 0.1 0  0.45 0.1 0  0.475 0.1 0  0.5 0.1 0  0.525 0.1 0  0.55 0.1 0  0.575 0.1 0  0.6 0.1 0  0.625 0.1 0  0.65 0.1 0  0.675 0.1 0  0.7 0.1 0  0.725 0.1 0  0.75 0.1 0  0.775 0.1 0  0.8 0.1 0  0.825 0.1 0  0.85 0.1 0  0.875 0.1 0  0.9 0.1 0  0.925 0.1 0  0.95 0.1 0  0.975 0.1 0  1 0.1 0  0 0.125 0  0.025 0.125 0  0.05 0.125 0  0.075 0.125 0  0.1 0.125 0  0.125 0.125 0  0.15 0.125 0  0.175 0.125 0  0.2 0.125 0  0.225 0.125 0  0.25 0.125 0  0.275 0.125 0  0.3 0.125 0  0.325 0.125 0  0.35 0.125 0  0.375 0.125 0  0.4 0.125 0  0.425 0.125 0  0.45 0.125 0  0.475 0.125 0  0.5 0.125 0  0.525 0.125 0  0.55 0.125 0  0.575 0.125 0  0.6 0.125 0  0.625 0.125 0  0.65 0.125 0  0.675 0.125 0  0.7 0.125 0  0.725 0.125 0  0.75 0.125 0  0.775 0.125 0  0.8 0.125 0  0.825 0.125 0  0.85 0.125 0  0.875 0.125 0  0.9 0.125 0  0.925 0.125 0  0.95 0.125 0  0.975 0.125 0  1 0.125 0  0 0.15 0  0.025 0.15 0  0.05 0.15 0  0.075 0.15 0  0.1 0.15 0  0.125 0.15 0  0.15 0.15 0  0.175 0.15 0  0.2 0.15 0  0.225 0.15 0  0.25 0.15 0  0.275 0.15 0  0.3 0.15 0  0.325 0.15 0  0.35 0.15 0  0.375 0.15 0  0.4 0.15 0  0.425 0.15 0  0.45 0.15 0  0.475 0.15 0  0.5 0.15 0  0.525 0.15 0  0.55 0.15 0  0.575 0.15 0  0.6 0.15 0  0.625 0.15 0  0.65 0.15 0  0.675 0.15 0  0.7 0.15 0  0.725 0.15 0  0.75 0.15 0  0.775 0.15 0  0.8 0.15 0  0.825 0.15 0  0.85 0.15 0  0.875 0.15 0  0.9 0.15 0  0.925 0.15 0  0.95 0.15 0  0.975 0.15 0  1 0.15 0  0 0.175 0  0.025 0.175 0  0.05 0.175 0  0.075 0.175 0  0.1 0.175 0  0.125 0.175 0  0.15 0.175 0  0.175 0.175 0  0.2 0.175 0  0.225 0.175 0  0.25 0.175 0  0.275 0.175 0  0.3 0.175 0  0.325 0.175 0  0.35 0.175 0  0.375 0.175 0  0.4 0.175 0  0.425 0.175 0  0.45 0.175 0  0.475 0.175 0  0.5 0.175 0  0.525 0.175 0  0.55 0.175 0  0.575 0.175 0  0.6 0.175 0  0.625 0.175 0  0.65 0.175 0  0.675 0.175 0  0.7 0.175 0  0.725 0.175 0  0.75 0.175 0  0.775 0.175 0  0.8 0.175 0  0.825 0.175 0  0.85 0.175 0  0.875 0.175 0  0.9 0.175 0  0.925 0.175 0  0.95 0.175 0  0.975 0.175 0  1 0.175 0  0 0.2 0  0.025 0.2 0  0.05 0.2 0  0.075 0.2 0  0.1 0.2 0  0.125 0.2 0  0.15 0.2 0  0.175 0.2 0  0.2 0.2 0  0.225 0.2 0  0.25 0.2 0  0.275 0.2 0  0.3 0.2 0  0.325 0.2 0  0.35 0.2 0  0.375 0.2 0  0.4 0.2 0  0.425 0.2 0  0.45 0.2 0  0.475 0.2 0  0.5 0.2 0  0.525 0.2 0  0.55 0.2 0  0.575 0.2 0  0.6 0.2 0  0.625 0.2 0  0.65 0.2 0  0.675 0.2 0  0.7 0.2 0  0.725 0.2 0  0.75 0.2 0  0.775 0.2 0  0.8 0.2 0  0.825 0.2 0  0.85 0.2 0  0.875 0.2 0  0.9 0.2 0  0.925 0.2 0  0.95 0.2 0  0.975 0.2 0  1 0.2 0  0 0.225 0  0.025 0.225 0  0.05 0.225 0  0.075 0.225 0  0.1 0.225 0  0.125 0.225 0  0.15 0.225 0  0.175 0.225 0  0.2 0.225 0  0.225 0.225 0  0.25 0.225 0  0.275 0.225 0  0.3 0.225 0  0.325 0.225 0  0.35 0.225 0  0.375 0.225 0  0.4 0.225 0  0.425 0.225 0  0.45 0.225 0  0.475 0.225 0  0.5 0.225 0  0.525 0.225 0  0.55 0.225 0  0.575 0.225 0  0.6 0.225 0  0.625 0.225 0  0.65 0.225 0  0.675 0.225 0  0.7 0.225 0  0.725 0.225 0  0.75 0.225 0  0.775 0.225 0  0.8 0.225 0  0.825 0.225 0  0.85 0.225 0  0.875 0.225 0  0.9 0.225 0  0.925 0.225 0  0.95 0.225 0  0.975 0.225 0  1 0.225 0  0 0.25 0  0.025 0.25 0  0.05 0.25 0  0.075 0.25 0  0.1 0.25 0  0.125 0.25 0  0.15 0.25 0  0.175 0.25 0  0.2 0.25 0  0.225 0.25 0  0.25 0.25 0  0.275 0.25 0  0.3 0.25 0  0.325 0.25 0  0.35 0.25 0  0.375 0.25 0  0.4 0.25 0  0.425 0.25 0  0.45 0.25 0  0.475 0.25 0  0.5 0.25 0  0.525 0.25 0  0.55 0.25 0  0.575 0.25 0  0.6 0.25 0  0.625 0.25 0  0.65 0.25 0  0.675 0.25 0  0.7 0.25 0  0.725 0.25 0  0.75 0.25 0  0.775 0.25 0  0.8 0.25 0  0.825 0.25 0  0.85 0.25 0  0.875 0.25 0  0.9 0.25 0  0.925 0.25 0  0.95 0.25 0  0.975 0.25 0  1 0.25 0  0 0.275 0  0.025 0.275 0  0.05 0.275 0  0.075 0.275 0  0.1 0.275 0  0.125 0.275 0  0.15 0.275 0  0.175 0.275 0  0.2 0.275 0  0.225 0.275 0  0.25 0.275 0  0.275 0.275 0  0.3 0.275 0  0.325 0.275 0  0.35 0.275 0  0.375 0.275 0  0.4 0.275 0  0.425 0.275 0  0.45 0.275 0  0.475 0.275 0  0.5 0.275 0  0.525 0.275 0  0.55 0.275 0  0.575 0.275 0  0.6 0.275 0  0.625 0.275 0  0.65 0.275 0  0.675 0.275 0  0.7 0.275 0  0.725 0.275 0  0.75 0.275 0  0.775 0.275 0  0.8 0.275 0  0.825 0.275 0  0.85 0.275 0  0.875 0.275 0  0.9 0.275 0  0.925 0.275 0  0.95 0.275 0  0.975 0.275 0  1 0.275 0  0 0.3 0  0.025 0.3 0  0.05 0.3 0  0.075 0.3 0  0.1 0.3 0  0.125 0.3 0  0.15 0.3 0  0.175 0.3 0  0.2 0.3 0  0.225 0.3 0  0.25 0.3 0  0.275 0.3 0  0.3 0.3 0  0.325 0.3 0  0.35 0.3 0  0.375 0.3 0  0.4 0.3 0  0.425 0.3 0  0.45 0.3 0  0.475 0.3 0  0.5 0.3 0  0.525 0.3 0  0.55 0.3 0  0.575 0.3 0  0.6 0.3 0  0.625 0.3 0  0.65 0.3 0  0.675 0.3 0  0.7 0.3 0  0.725 0.3 0  0.75 0.3 0  0.775 0.3 0  0.8 0.3 0  0.825 0.3 0  0.85 0.3 0  0.875 0.3 0  0.9 0.3 0  0.925 0.3 0  0.95 0.3 0  0.975 0.3 0  1 0.3 0  0 0.325 0  0.025 0.325 0  0.05 0.325 0  0.075 0.325 0  0.1 0.325 0  0.125 0.325 0  0.15 0.325 0  0.175 0.325 0  0.2 0.325 0  0.225 0.325 0  0.25 0.325 0  0.275 0.325 0  0.3 0.325 0  0.325 0.325 0  0.35 0.325 0  0.375 0.325 0  0.4 0.325 0  0.425 0.325 0  0.45 0.325 0  0.475 0.325 0  0.5 0.325 0  0.525 0.325 0  0.55 0.325 0  0.575 0.325 0  0.6 0.325 0  0.625 0.325 0  0.65 0.325 0  0.675 0.325 0  0.7 0.325 0  0.725 0.325 0  0.75 0.325 0  0.775 0.325 0  0.8 0.325 0  0.825 0.325 0  0.85 0.325 0  0.875 0.325 0  0.9 0.325 0  0.925 0.325 0  0.95 0.325 0  0.975 0.325 0  1 0.325 0  0 0.35 0  0.025 0.35 0  0.05 0.35 0  0.075 0.35 0  0.1 0.35 0  0.125 0.35 0  0.15 0.35 0  0.175 0.35 0  0.2 0.35 0  0.225 0.35 0  0.25 0.35 0  0.275 0.35 0  0.3 0.35 0  0.325 0.35 0  0.35 0.35 0  0.375 0.35 0  0.4 0.35 0  0.425 0.35 0  0.45 0.35 0  0.475 0.35 0  0.5 0.35 0  0.525 0.35 0  0.55 0.35 0  0.575 0.35 0  0.6 0.35 0  0.625 0.35 0  0.65 0.35 0  0.675 0.35 0  0.7 0.35 0  0.725 0.35 0  0.75 0.35 0  0.775 0.35 0  0.8 0.35 0  0.825 0.35 0  0.85 0.35 0  0.875 0.35 0  0.9 0.35 0  0.925 0.35 0  0.95 0.35 0  0.975 0.35 0  1 0.35 0  0 0.375 0  0.025 0.375 0  0.05 0.375 0  0.075 0.375 0  0.1 0.375 0  0.125 0.375 0  0.15 0.375 0  0.175 0.375 0  0.2 0.375 0  0.225 0.375 0  0.25 0.375 0  0.275 0.375 0  0.3 0.375 0  0.325 0.375 0  0.35 0.375 0  0.375 0.375 0  0.4 0.375 0  0.425 0.375 0  0.45 0.375 0  0.475 0.375 0  0.5 0.375 0  0.525 0.375 0  0.55 0.375 0  0.575 0.375 0  0.6 0.375 0  0.625 0.375 0  0.65 0.375 0  0.675 0.375 0  0.7 0.375 0  0.725 0.375 0  0.75 0.375 0  0.775 0.375 0  0.8 0.375 0  0.825 0.375 0  0.85 0.375 0  0.875 0.375 0  0.9 0.375 0  0.925 0.375 0  0.95 0.375 0  0.975 0.375 0  1 0.375 0  0 0.4 0  0.025 0.4 0  0.05 0.4 0  0.075 0.4 0  0.1 0.4 0  0.125 0.4 0  0.15 0.4 0  0.175 0.4 0  0.2 0.4 0  0.225 0.4 0  0.25 0.4 0  0.275 0.4 0  0.3 0.4 0  0.325 0.4 0  0.35 0.4 0  0.375 0.4 0  0.4 0.4 0  0.425 0.4 0  0.45 0.4 0  0.475 0.4 0  0.5 0.4 0  0.525 0.4 0  0.55 0.4 0  0.575 0.4 0  0.6 0.4 0  0.625 0.4 0  0.65 0.4 0  0.675 0.4 0  0.7 0.4 0  0.725 0.4 0  0.75 0.4 0  0.775 0.4 0  0.8 0.4 0  0.825 0.4 0  0.85 0.4 0  0.875 0.4 0  0.9 0.4 0  0.925 0.4 0  0.95 0.4 0  0.975 0.4 0  1 0.4 0  0 0.425 0  0.025 0.425 0  0.05 0.425 0  0.075 0.425 0  0.1 0.425 0  0.125 0.425 0  0.15 0.425 0  0.175 0.425 0  0.2 0.425 0  0.225 0.425 0  0.25 0.425 0  0.275 0.425 0  0.3 0.425 0  0.325 0.425 0  0.35 0.425 0  0.375 0.425 0  0.4 0.425 0  0.425 0.425 0  0.45 0.425 0  0.475 0.425 0  0.5 0.425 0  0.525 0.425 0  0.55 0.425 0  0.575 0.425 0  0.6 0.425 0  0.625 0.425 0  0.65 0.425 0  0.675 0.425 0  0.7 0.425 0  0.725 0.425 0  0.75 0.425 0  0.775 0.425 0  0.8 0.425 0  0.825 0.425 0  0.85 0.425 0  0.875 0.425 0  0.9 0.425 0  0.925 0.425 0  0.95 0.425 0  0.975 0.425 0  1 0.425 0  0 0.45 0  0.02
[...]
<PointData  Scalars="ControlVisualisation"> 
<DataArray  type="Float64"  Name="ControlVisualisation"  format="ascii">-9.8561125583888515e-09  -9.9040128890972348e-09  -9.9038343086766108e-09  -9.9035570343959317e-09  -9.9032222231126265e-09  -9.9028736809742922e-09  -9.9025479668925816e-09  -9.9022683300456461e-09  -9.9020453233093023e-09  -9.9018804587771629e-09  -9.9017699799580865e-09  -9.9017076364078925e-09  -9.9016864152654851e-09  -9.9016995055935211e-09  -9.9017407649573553e-09  -9.9018048840439678e-09  -9.9018873795784282e-09  -9.9019845005759096e-09  -9.9020931026834101e-09  -9.9022105232514523e-09  -9.9023344734357604e-09  -9.9024629524417853e-09  -9.9025941827995293e-09  -9.9027265628162396e-09  -9.9028586319848846e-09  -9.9029890458367190e-09  -9.9031165577331388e-09  -9.9032400059864068e-09  -9.9033583052928619e-09  -9.9034704417465867e-09  -9.9035754708430341e-09  -9.9036725178721937e-09  -9.9037607801106560e-09  -9.9038395302932589e-09  -9.9039081206373169e-09  -9.9039659875153147e-09  -9.9040126554147677e-09  -9.9040477488431582e-09  -9.9040708927879429e-09  -9.9040822812331433e-09  -9.7122532747073390e-09  -9.9040108374148952e-09  -9.9519381272208816e-09  -9.9517572118415098e-09  -9.9514592066731886e-09  -9.9510830337084066e-09  -9.9506792484324865e-09  -9.9502925510012471e-09  -9.9499534172692232e-09  -9.9496775877139140e-09  -9.9494695306777262e-09  -9.9493266081117088e-09  -9.9492424106546899e-09  -9.9492090106305107e-09  -9.9492183228025905e-09  -9.9492628351458947e-09  -9.9493359291945570e-09  -9.9494319490763650e-09  -9.9495461316832647e-09  -9.9496744756070859e-09  -9.9498135979400092e-09  -9.9499606051066479e-09  -9.9501129876746195e-09  -9.9502685395487286e-09  -9.9504252976650326e-09  -9.9505814972218228e-09  -9.9507355382244505e-09  -9.9508859602708999e-09  -9.9510314236258013e-09  -9.9511706953672599e-09  -9.9513026397626297e-09  -9.9514262121941918e-09  -9.9515404559594710e-09  -9.9516445012888032e-09  -9.9517375659511990e-09  -9.9518189567293489e-09  -9.9518880720661697e-09  -9.9519444032282155e-09  -9.9519875368351845e-09  -9.9520171907302493e-09  -9.9520340619070106e-09  -9.9040822792606368e-09  -9.9038125773717749e-09  -9.9517373046488768e-09  -9.9515017982177769e-09  -9.9511545355085828e-09  -9.9507225895647263e-09  -9.9502673552792650e-09  -9.9498387213949699e-09  -9.9494678249388342e-09  -9.9491695004671119e-09  -9.9489472583381187e-09  -9.9487975852872332e-09  -9.9487131946326201e-09  -9.9486852648473345e-09  -9.9487048306495072e-09  -9.9487635614636184e-09  -9.9488541177742156e-09  -9.9489702278047373e-09  -9.9491066028940050e-09  -9.9492587841371723e-09  -9.9494229801853627e-09  -9.9495959260049239e-09  -9.9497747716340387e-09  -9.9499569989248167e-09  -9.9501403601661629e-09  -9.9503228322537260e-09  -9.9505025816176839e-09  -9.9506779368868563e-09  -9.9508473676394010e-09  -9.9510094683674410e-09  -9.9511629470334945e-09  -9.9513066176228888e-09  -9.9514393959849136e-09  -9.9515602982024447e-09  -9.9516684407525242e-09  -9.9517630417052894e-09  -9.9518434229018552e-09  -9.9519090095398834e-09  -9.9519593548959098e-09  -9.9519942979396174e-09  -9.9520170933115210e-09  -9.9040708428009023e-09  -9.9034386716607396e-09  -9.9513423943917841e-09  -9.9510328993075454e-09  -9.9506644435109788e-09  -9.9502445827653296e-09  -9.9498296175951590e-09  -9.9494559118156381e-09  -9.9491417460458616e-09  -9.9488955663968283e-09  -9.9487184288093523e-09  -9.9486062799580280e-09  -9.9485523126022404e-09  -9.9485486069285694e-09  -9.9485871790030684e-09  -9.9486606456413856e-09  -9.9487625491500850e-09  -9.9488874053389487e-09  -9.9490305895507850e-09  -9.9491881694498004e-09  -9.9493567489142269e-09  -9.9495333466379351e-09  -9.9497153100623362e-09  -9.9499002563617305e-09  -9.9500860308898431e-09  -9.9502706756675029e-09  -9.9504524035992746e-09  -9.9506295766861761e-09  -9.9508006879897596e-09  -9.9509643475834037e-09  -9.9511192725858192e-09  -9.9512642810264049e-09  -9.9513982889288216e-09  -9.9515203098345601e-09  -9.9516294559854298e-09  -9.9517249403606240e-09  -9.9518060795855561e-09  -9.9518722960056683e-09  -9.9519231563847936e-09  -9.9519587737904320e-09  -9.9519869556974517e-09  -9.9040473981019108e-09  -9.9029546013305496e-09  -9.9507882056806823e-09  -9.9501647400540053e-09  -9.9497495221211200e-09  -9.9494130979885396e-09  -9.9491342536844834e-09  -9.9488867923257233e-09  -9.9486794034925772e-09  -9.9485225370363753e-09  -9.9484184110201949e-09  -9.9483646015780418e-09  -9.9483566067265702e-09  -9.9483886540637231e-09  -9.9484545617800653e-09  -9.9485485341363628e-09  -9.9486655730686714e-09  -9.9488014922395121e-09  -9.9489527437378996e-09  -9.9491162312542544e-09  -9.9492891747998763e-09  -9.9494690304701550e-09  -9.9496534499631583e-09  -9.9498402622993445e-09  -9.9500274637474550e-09  -9.9502132077409298e-09  -9.9503957921057358e-09  -9.9505736444738775e-09  -9.9507453081539634e-09  -9.9509094305181290e-09  -9.9510647550283458e-09  -9.9512101170584247e-09  -9.9513444429423021e-09  -9.9514667513586077e-09  -9.9515761561589057e-09  -9.9516718697867897e-09  -9.9517532074684957e-09  -9.9518195910587359e-09  -9.9518706065342542e-09  -9.9519067546348133e-09  -9.9519424145871814e-09  -9.9040113310794694e-09  -9.9021067299122266e-09  -9.9491086964615813e-09  -9.9478432472756803e-09  -9.9476756110117873e-09  -9.9479820786738198e-09  -9.9481082974281869e-09  -9.9480971747782014e-09  -9.9480597280086697e-09  -9.9480350753019110e-09  -9.9480318926246337e-09  -9.9480555124025694e-09  -9.9481074187294853e-09  -9.9481856685381478e-09  -9.9482865190228275e-09  -9.9484062885957796e-09  -9.9485420565179672e-09  -9.9486914912565086e-09  -9.9488525270743605e-09  -9.9490231676500079e-09  -9.9492014099278167e-09  -9.9493852399923271e-09  -9.9495726659923196e-09  -9.9497617607491235e-09  -9.9499506954139392e-09  -9.9501377564479290e-09  -9.9503213471695555e-09  -9.9504999796623273e-09  -9.9506722634404936e-09  -9.9508368955889769e-09  -9.9509926547345711e-09  -9.9511383992619104e-09  -9.9512730690146649e-09  -9.9513956892663981e-09  -9.9515053758188785e-09  -9.9516013402682481e-09  -9.9516828956459068e-09  -9.9517494622275682e-09  -9.9518006496466654e-09  -9.9518374638460181e-09  -9.9518829503728784e-09  -9.9039623713548579e-09  -9.8879139037951274e-09  -9.9375354777660289e-09  -9.9319328924859535e-09  -9.9353725081863292e-09  -9.9425275748190754e-09  -9.9459193792296529e-09  -9.9468645197145805e-09  -9.9472440799282289e-09  -9.9474356057017588e-09  -9.9475673903220152e-09  -9.9476853608238541e-09  -9.9478096423288880e-09  -9.9479440074900753e-09  -9.9480865283230582e-09  -9.9482361398825215e-09  -9.9483930321502840e-09  -9.9485574941397941e-09  -9.9487293711438854e-09  -9.9489079923815482e-09  -9.9490922364482247e-09  -9.9492806534411338e-09  -9.9494716093859523e-09  -9.9496634157486751e-09  -9.9498544196548516e-09  -9.9500430506943282e-09  -9.9502278339971658e-09  -9.9504073842521692e-09  -9.9505803935975488e-09  -9.9507456215649105e-09  -9.9509018905371574e-09  -9.9510480868630878e-09  -9.9511831661213139e-09  -9.9513061606102789e-09  -9.9514161874644248e-09  -9.9515124562626006e-09  -9.9515942764106421e-09  -9.9516610654097535e-09  -9.9517124617554546e-09  -9.9517501019244590e-09  -9.9518079101309892e-09  -9.9039000255472367e-09  3.1233761441636498e-01  2.1929994656251414e-01  1.9223499113320064e-01  9.1140002202066625e-02  -9.6527334295883381e-09  -9.9081893743065287e-09  -9.9375304048066657e-09  -9.9448721337711983e-09  -9.9465157010191899e-09  -9.9469990566287047e-09  -9.9472518780672669e-09  -9.9474685688644835e-09  -9.9476718740325974e-09  -9.9478615803781225e-09  -9.9480427420659602e-09  -9.9482212314728064e-09  -9.9484008519982255e-09  -9.9485836927045581e-09  -9.9487705429684097e-09  -9.9489611715909115e-09  -9.9491546308648548e-09  -9.9493495685956638e-09  -9.9495444779021629e-09  -9.9497378556287835e-09  -9.9499282750112675e-09  -9.9501143994037647e-09  -9.9502949678363205e-09  -9.9504687750081592e-09  -9.9506346576808694e-09  -9.9507914910607755e-09  -9.9509381937984377e-09  -9.9510737383023828e-09  -9.9511971631091038e-09  -9.9513075850005814e-09  -9.9514042095455889e-09  -9.9514863405752228e-09  -9.9515533914400160e-09  -9.9516050351889649e-09  -9.9516436725104268e-09  -9.9517164592768473e-09  -9.9038236705323199e-09  1.0000000098656798e+00  1.0000000098800179e+00  1.0000000096583381e+00  8.7929562394098781e-01  5.8469266411757470e-01  2.9877310171416332e-01  4.2691998560024223e-02  -9.8898887911002369e-09  -9.9372567928197190e-09  -9.9451444843129800e-09  -9.9465484216794423e-09  -9.9470621004252763e-09  -9.9473797403740024e-09  -9.9476208449184441e-09  -9.9478317640216851e-09  -9.9480298234620702e-09  -9.9482229536090055e-09  -9.9484157143193940e-09  -9.9486103963106820e-09  -9.9488074983904307e-09  -9.9490063604610867e-09  -9.9492057176103126e-09  -9.9494041147613375e-09  -9.9496001436739813e-09  -9.9497925203094775e-09  -9.9499800723129464e-09  -9.9501616958971478e-09  -9.9503363162878342e-09  -9.9505028661686037e-09  -9.9506602832395491e-09  -9.9508075214531053e-09  -9.9509435690780228e-09  -9.9510674680843040e-09  -9.9511783315885319e-09  -9.9512753579842849e-09  -9.9513578427911391e-09  -9.9514251933292722e-09  -9.9514771229517961e-09  -9.9515169400521351e-09  -9.9516075655290539e-09  -9.9037325364892592e-09  1.0000000099487723e+00  1.0000000099670463e+00  1.0000000099530357e+00  1.0000000099246233e+00  1.0000000098439132e+00  1.0000000076033646e+00  6.5953014193993320e-01  3.3452398509864301e-01  3.6420812496852528e-02  -9.9005753646168240e-09  -9.9392820804395470e-09  -9.9458446487947609e-09  -9.9469526658867401e-09  -9.9473498260495110e-09  -9.9476049146864650e-09  -9.9478212738854631e-09  -9.9480245209405606e-09  -9.9482249908850567e-09  -9.9484265224096110e-09  -9.9486300345819976e-09  -9.9488347519465724e-09  -9.9490390896546303e-09  -9.9492414177980990e-09  -9.9494403568822130e-09  -9.9496347856914173e-09  -9.9498237514880837e-09  -9.9500063651464621e-09  -9.9501817252425362e-09  -9.9503488848748058e-09  -9.9505068536740915e-09  -9.9506546206610361e-09  -9.9507911850195214e-09  -9.9509155859078058e-09  -9.9510269269673696e-09  -9.9511243945921703e-09  -9.9512072721457508e-09  -9.9512749582305348e-09  -9.9513272121576915e-09  -9.9513684059671395e-09  -9.9514799794584651e-09  -9.9036256950020361e-09  1.0000000099578321e+00  1.0000000099772415e+00  1.0000000099724033e+00  1.0000000099647564e+00  1.0000000099519541e+00  1.0000000099230804e+00  1.0000000098279085e+00  9.8452808122595392e-01  6.1764121340097622e-01  2.8908965734144337e-01  1.2031630044421653e-08  -9.9164137447759405e-09  -9.9422974781329771e-09  -9.9464748643412192e-09  -9.9472682834183151e-09  -9.9475787794006274e-09  -9.9478018775307526e-09  -9.9480095281645673e-09  -9.9482165844473902e-09  -9.9484268104932290e-09  -9.9486384102031695e-09  -9.9488486517104515e-09  -9.9490555002390566e-09  -9.9492575850361303e-09  -9.9494540288814688e-09  -9.9496442214660670e-09  -9.9498275933843875e-09  -9.9500034822246935e-09  -9.9501710919780253e-09  -9.9503295100898041e-09  -9.9504777527846595e-09  -9.9506148175056652e-09  -9.9507397285484785e-09  -9.9508515706308067e-09  -9.9509495112384874e-09  -9.9510328164530920e-09  -9.9511008724848510e-09  -9.9511534900786288e-09  -9.9511962758310437e-09  -9.9513322087388233e-09  -9.9035020442809425e-09  1.0000000099392616e+00  1.0000000099723911e+00  1.0000000099706896e+00  1.0000000099680137e+00  1.0000000099641564e+00  1.0000000099575730e+00  1.0000000099441677e+00  1.0000000099086819e+00  1.0000000097706669e+00  9.0363074008476185e-01  5.5205794233503325e-01  2.2137557703540414e-01  -9.7203431065082113e-09  -9.9271772427211940e-09  -9.9441289156774774e-09  -9.9468977532036153e-09  -9.9474887718765407e-09  -9.9477527717023677e-09  -9.9479731115826814e-09  -9.9481947059685945e-09  -9.9484157739624729e-09  -9.9486334760047073e-09  -9.9488457107871920e-09  -9.9490511002742154e-09  -9.9492492461378155e-09  -9.9494401674660071e-09  -9.9496237940629647e-09  -9.9497997921156126e-09  -9.9499675492604709e-09  -9.9501262245414515e-09  -9.9502748362513538e-09  -9.9504123526926000e-09  -9.9505377618524476e-09  -9.9506501153953038e-09  -9.9507485530760772e-09  -9.9508323176500097e-09  -9.9509007783327871e-09  -9.9509538024094161e-09  -9.9509984195149000e-09  -9.9511624877873728e-09  -9.9033602922702587e-09  1.0000000097992923e+00  1.0000000099278348e+00  1.0000000099406148e+00  1.0000000099517030e+00  1.0000000099574688e+00  1.0000000099593436e+00  1.0000000099577377e+00  1.0000000099514452e+00  1.0000000099354871e+00  1.0000000098894657e+00  1.0000000096541946e+00  8.1324223842335441e-01  4.7323123402886319e-01  1.5025982480286676e-01  -9.8443597406392454e-09  -9.9340843592985335e-09  -9.9454013775906429e-09  -9.9471666558027389e-09  -9.9476443500970886e-09  -9.9479245404440662e-09  -9.9481636635957647e-09  -9.9483928261644262e-09  -9.9486121600015466e-09  -9.9488206342003740e-09  -9.9490195503537081e-09  -9.9492101690947136e-09  -9.9493931133803973e-09  -9.9495684922587735e-09  -9.9497359070340147e-09  -9.9498945482458230e-09  -9.9500433734545304e-09  -9.9501812670923197e-09  -9.9503071454808469e-09  -9.9504200088875921e-09  -9.9505189607130715e-09  -9.9506032151397016e-09  -9.9506721194075371e-09  -9.9507256016253994e-09  -9.9507723229285692e-09  -9.9509687418769723e-09  -9.9031989375346586e-09  1.4022426144696190e-01  5.7527616901062373e-01  9.4918953091038083e-01  1.0000000097930757e+00  1.0000000099074084e+00  1.0000000099392865e+00  1.0000000099513056e+00  1.0000000099551882e+00  1.0000000099538542e+00  1.0000000099463684e+00  1.0000000099257755e+00  1.0000000098617976e+00  1.0000000093067793e+00  7.2676405275967970e-01  3.9620306086060297e-01  8.3149996392479567e-02  -9.8874411399540026e-09  -9.9383761341617554e-09  -9.9462130125787969e-09  -9.9474385768000427e-09  -9.9478467120483206e-09  -9.9481240169348643e-09  -9.9483561853111204e-09  -9.9485662677335200e-09  -9.9487641822829340e-09  -9.9489526577997367e-09  -9.9491332790559190e-09  -9.9493068755102117e-09  -9.9494732454181173e-09  -9.9496314872425338e-09  -9.9497803567173568e-09  -9.9499185504412143e-09  -9.9500448610791082e-09  -9.9501582212598906e-09  -9.9502576966860605e-09  -9.9503424729798803e-09  -9.9504118714309638e-09  -9.9504658832450160e-09  -9.9505150307861587e-09  -9.9507485465100035e-09  -9.9030162493118143e-09  -9.8939050141374864e-09  -9.8898700980858175e-09  1.7140990208880413e-01  5.3521207007532723e-01  9.0394497321281175e-01  1.0000000097594770e+00  1.0000000099013218e+00  1.0000000099370148e+00  1.0000000099494011e+00  1.0000000099530171e+00  1.0000000099508397e+00  1.0000000099413060e+00  1.0000000099142032e+00  1.0000000098199848e+00  9.9999985939834091e-01  6.5022864378528111e-01  3.2612021515826234e-01  2.5390418168887135e-02  -9.9097283671569428e-09  -9.9415842790148187e-09  -9.9467895624934378e-09  -9.9477238418277348e-09  -9.9480578048042379e-09  -9.9482845226321468e-09  -9.9484823638622301e-09  -9.9486655479533223e-09  -9.9488412410402990e-09  -9.9490113653899201e-09  -9.9491758083489441e-09  -9.9493333305096543e-09  -9.9494821646314876e-09  -9.9496206271621095e-09  -9.9497473324985236e-09  -9.9498611567810854e-09  -9.9499611499938571e-09  -9.9500464831987306e-09  -9.9501164515591954e-09  -9.9501711065638632e-09  -9.9502230806307600e-09  -9.9504990847214811e-09  -9.9028102496812502e-09  -9.9010833520801571e-09  -9.9452161594942378e-09  -9.9203918392259813e-09  -9.1187443885766259e-09  2.5895970947843577e-01  5.8835719536542264e-01  9.4381756899671820e-01  1.0000000097823363e+00  1.0000000099045787e+00  1.0000000099375932e+00  1.0000000099486901e+00  1.0000000099514499e+00  1.0000000099481343e+00  1.0000000099361375e+00  1.0000000099002371e+00  1.0000000097617352e+00  9.2306946406079249e-01  5.8203205310902240e-01  2.5543007307806548e-01  -9.4628557468821210e-09  -9.9230894394765009e-09  -9.9438571833777977e-09  -9.9472236968138374e-09  -9.9478988475632806e-09  -9.9481581394053176e-09  -9.9483427503814279e-09  -9.9485124476267770e-09  -9.9486768087172361e-09  -9.9488384991931979e-09  -9.9489954559414262e-09  -9.9491445103165702e-09  -9.9492833026350860e-09  -9.9494103433130384e-09  -9.9495245446707859e-09  -9.9496250058698880e-09  -9.9497109295744567e-09  -9.9497815935388340e-09  -9.9498370940389253e-09  -9.9498924307455475e-09  -9.9502171099215313e-09  -9.9025787049390730e-09  -9.8996313195942354e-09  -9.9462163926632997e-09  -9.9430187337465448e-09  -9.9372219038742240e-09  -9.9036369700433421e-09  2.5381058547320767e-02  3.1936173416030639e-01  6.4235932202764201e-01  9.9501414010049738e-01  1.0000000098126787e+00  1.0000000099107513e+00  1.0000000099389263e+00  1.0000000099485145e+00  1.0000000099502862e+00  1.0000000099456394e+00  1.0000000099305724e+00  1.0000000098856225e+00  1.0000000096725998e+00  8.4282650339808807e-01  5.1002715812143562e-01  1.8569318864823522e-01  -9.8016486007962667e-09  -9.9312856489246592e-09  -9.9452247700148049e-09  -9.9474432252658467e-09  -9.9479270033821040e-09  -9.9481317555523975e-09  -9.9482924419323856e-09  -9.9484536683269101e-09  -9.9486125029721137e-09  -9.9487625660287005e-09  -9.9489017309585351e-09  -9.9490289657912538e-09  -9.9491432976874607e-09  -9.9492440517118812e-09  -9.9493305797913885e-09  -9.9494021618787754e-09  -9.9494588979738287e-09  -9.9495183904962458e-09  -9.9498989337894204e-09  -9.9023191426701143e-09  -9.8997453263004797e-09  -9.9466208059963807e-09  -9.9451767549176648e-09  -9.9445556436715543e-09  -9.9431478625410690e-09  -9.9356368456534914e-09  -9.8869950416592338e-09  7.0799305106922603e-02  3.7623089837059620e-01  7.0044673261715473e-01  1.0000000088567205e+00  1.0000000098412880e+00  1.0000000099171118e+00  1.0000000099406898e+00  1.0000000099486683e+00  1.0000000099492725e+00  1.0000000099429756e+00  1.0000000099238060e+00  1.0000000098648849e+00  1.0000000094596422e+00  7.6337951943972104e-01  4.3617217012543308e-01  1.1929579338139407e-01  -9.8679414209549538e-09  -9.9364648489656476e-09  -9.9460565781356908e-09  -9.9474564894268099e-09  -9.9477971056958489e-09  -9.9480080661667745e-09  -9.9481790885827188e-09  -9.9483304450264850e-09  -9.9484705104529725e-09  -9.9485975530459257e-09  -9.9487112719186981e-09  -9.9488118676068643e-09  -9.9488989407203160e-09  -9.9489718450406771e-09  -9.9490306098328946e-09  -9.9490955756264195e-09  -9.9495404870861246e-09  -9.9020289325669999e-09  -9.9001100035412211e-09  -9.9470888257187541e-09  -9.9460336584538638e-09  -9.9457462383134661e-09  -9.9455332196161170e-09  -9.9452446074571797e-09  -9.9437027164182637e-09  -9.9335233645565549e-09  -9.8594382326772075e-09  1.2246139882363113e-01  4.3648614408270126e-01  7.6389768832647043e-01  1.0000000094572676e+00  1.0000000098638395e+00  1.0000000099230930e+00  1.0000000099424802e+00  1.0000000099487714e+00  1.0000000099480371e+00  1.0000000099397208e+00  1.0000000099150668e+00  1.0000000098335993e+00  1.0000000083658842e+00  6.9014561616639558e-01  3.6747872313782676e-01  5.8753735352911680e-02  -9.8969043652040025e-09  -9.9395325589641736e-09  -9.9462895163052037e-09  -9.9473659705017258e-09  -9.9476557852462100e-09  -9.9478371996951080e-09  -9.9479844924661192e-09  -9.9481090187804153e-09  -9.9482208782031573e-09  -9.9483203426773931e-09  -9.9484076177127676e-09  -9.9484825974595488e-09  -9.9485450509179819e-09  -9.9486179370283721e-09  -9.9491375694384270e-09  -9.9017055225428955e-09  -9.9005324872989960e-09  -9.9476438240533482e-09  -9.9467928254166494e-09  -9.9466322066607030e-09  -9.9465184100450597e-09  -9.9464192223722972e-09  -9.9462922937225585e-09  -9.9458714334913690e-09  -9.9436277730598326e-09  -9.9295827073948073e-09  -9.8023827683048546e-09  1.7826745354251000e-01  4.9818526334046459e-01  8.2936301318289229e-01  1.0000000096452957e+00  1.0000000098808477e+00  1.0000000099280899e+00  1.0000000099438926e+00  1.0000000099486237e+00  1.0000000099465469e+00  1.0000000099359947e+00  1.0000000099044142e+00  1.0000000097902213e+0