<?xml version="1.0"?>
<VTKFile type="UnstructuredGrid"  version="0.1"  >
<UnstructuredGrid>
<Piece  NumberOfPoints="1681" NumberOfCells="3200">
<Points>
<DataArray  type="Float64"  NumberOfComponents="3"  format="ascii">0 0 0  0.025 0 0  0.05 0 0  0.075 0 0  0.1 0 0  0.125 0 0  0.15 0 0  0.175 0 0  0.2 0 0  0.225 0 0  0.25 0 0  0.275 0 0  0.3 0 0  0.325 0 0  0.35 0 0  0.375 0 0  0.4 0 0  0.425 0 0  0.45 0 0  0.475 0 0  0.5 0 0  0.525 0 0  0.55 0 0  0.575 0 0  0.6 0 0  0.625 0 0  0.65 0 0  0.675 0 0  0.7 0 0  0.725 0 0  0.75 0 0  0.775 0 0  0.8 0 0  0.825 0 0  0.85 0 0  0.875 0 0  0.9 0 0  0.925 0 0  0.95 0 0  0.975 0 0  1 0 0  0 0.025 0  0.025 0.025 0  0.05 0.025 0  0.075 0.025 0  0.1 0.025 0  0.125 0.025 0  0.15 0.025 0  0.175 0.025 0  0.2 0.025 0  0.225 0.025 0  0.25 0.025 0  0.275 0.025 0  0.3 0.025 0  0.325 0.025 0  0.35 0.025 0  0.375 0.025 0  0.4 0.025 0  0.425 0.025 0  0.45 0.025 0  0.475 0.025 0  0.5 0.025 0  0.525 0.025 0  0.55 0.025 0  0.575 0.025 0  0.6 0.025 0  0.625 0.025 0  0.65 0.025 0  0.675 0.025 0  0.7 0.025 0  0.725 0.025 0  0.75 0.025 0  0.775 0.025 0  0.8 0.025 0  0.825 0.025 0  0.85 0.025 0  0.875 0.025 0  0.9 0.025 0  0.925 0.025 0  0.95 0.025 0  0.975 0.025 0  1 0.025 0  0 0.05 0  0.025 0.05 0  0.05 0.05 0  0.075 0.05 0  0.1 0.05 0  0.125 0.05 0  0.15 0.05 0  0.175 0.05 0  0.2 0.05 0  0.225 0.05 0  0.25 0.05 0  0.275 0.05 0  0.3 0.05 0  0.325 0.05 0  0.35 0.05 0  0.375 0.05 0  0.4 0.05 0  0.425 0.05 0  0.45 0.05 0  0.475 0.05 0  0.5 0.05 0  0.525 0.05 0  0.55 0.05 0  0.575 0.05 0  0.6 0.05 0  0.625 0.05 0  0.65 0.05 0  0.675 0.05 0  0.7 0.05 0  0.725 0.05 0  0.75 0.05 0  0.775 0.05 0  0.8 0.05 0  0.825 0.05 0  0.85 0.05 0  0.875 0.05 0  0.9 0.05 0  0.925 0.05 0  0.95 0.05 0  0.975 0.05 0  1 0.05 0  0 0.075 0  0.025 0.075 0  0.05 0.075 0  0.075 0.075 0  0.1 0.075 0  0.125 0.075 0  0.15 0.075 0  0.175 0.075 0  0.2 0.075 0  0.225 0.075 0  0.25 0.075 0  0.275 0.075 0  0.3 0.075 0  0.325 0.075 0  0.35 0.075 0  0.375 0.075 0  0.4 0.075 0  0.425 0.075 0  0.45 0.075 0  0.475 0.075 0  0.5 0.075 0  0.525 0.075 0  0.55 0.075 0  0.575 0.075 0  0.6 0.075 0  0.625 0.075 0  0.65 0.075 0  0.675 0.075 0  0.7 0.075 0  0.725 0.075 0  0.75 0.075 0  0.775 0.075 0  0.8 0.075 0  0.825 0.075 0  0.85 0.075 0  0.875 0.075 0  0.9 0.075 0  0.925 0.075 0  0.95 0.075 0  0.975 0.075 0  1 0.075 0  0 0.1 0  0.025 0.1 0  0.05 0.1 0  0.075 0.1 0  0.1 0.1 0  0.125 0.1 0  0.15 0.1 0  0.175 0.1 0  0.2 0.1 0  0.225 0.1 0  0.25 0.1 0  0.275 0.1 0  0.3 0.1 0  0.325 0.1 0  0.35 0.1 0  0.375 0.1 0  0.4 0.1 0  0.425 0.1 0  0.45 0.1 0  0.475 0.1 0  0.5 0.1 0  0.525 0.1 0  0.55 0.1 0  0.575 0.1 0  0.6 0.1 0  0.625 0.1 0  0.65 0.1 0  0.675 0.1 0  0.7 0.1 0  0.725 0.1 0  0.75 0.1 0  0.775 0.1 0  0.8 0.1 0  0.825 0.1 0  0.85 0.1 0  0.875 0.1 0  0.9 0.1 0  0.925 0.1 0  0.95 0.1 0  0.975 0.1 0  1 0.1 0  0 0.125 0  0.025 0.125 0  0.05 0.125 0  0.075 0.125 0  0.1 0.125 0  0.125 0.125 0  0.15 0.125 0  0.175 0.125 0  0.2 0.125 0  0.225 0.125 0  0.25 0.125 0  0.275 0.125 0  0.3 0.125 0  0.325 0.125 0  0.35 0.125 0  0.375 0.125 0  0.4 0.125 0  0.425 0.125 0  0.45 0.125 0  0.475 0.125 0  0.5 0.125 0  0.525 0.125 0  0.55 0.125 0  0.575 0.125 0  0.6 0.125 0  0.625 0.125 0  0.65 0.125 0  0.675 0.125 0  0.7 0.125 0  0.725 0.125 0  0.75 0.125 0  0.775 0.125 0  0.8 0.125 0  0.825 0.125 0  0.85 0.125 0  0.875 0.125 0  0.9 0.125 0  0.925 0.125 0  0.95 0.125 0  0.975 0.125 0  1 0.125 0  0 0.15 0  0.025 0.15 0  0.05 0.15 0  0.075 0.15 0  0.1 0.15 0  0.125 0.15 0  0.15 0.15 0  0.175 0.15 0  0.2 0.15 0  0.225 0.15 0  0.25 0.15 0  0.275 0.15 0  0.3 0.15 0  0.325 0.15 0  0.35 0.15 0  0.375 0.15 0  0.4 0.15 0  0.425 0.15 0  0.45 0.15 0  0.475 0.15 0  0.5 0.15 0  0.525 0.15 0  0.55 0.15 0  0.575 0.15 0  0.6 0.15 0  0.625 0.15 0  0.65 0.15 0  0.675 0.15 0  0.7 0.15 0  0.725 0.15 0  0.75 0.15 0  0.775 0.15 0  0.8 0.15 0  0.825 0.15 0  0.85 0.15 0  0.875 0.15 0  0.9 0.15 0  0.925 0.15 0  0.95 0.15 0  0.975 0.15 0  1 0.15 0  0 0.175 0  0.025 0.175 0  0.05 0.175 0  0.075 0.175 0  0.1 0.175 0  0.125 0.175 0  0.15 0.175 0  0.175 0.175 0  0.2 0.175 0  0.225 0.175 0  0.25 0.175 0  0.275 0.175 0  0.3 0.175 0  0.325 0.175 0  0.35 0.175 0  0.375 0.175 0  0.4 0.175 0  0.425 0.175 0  0.45 0.175 0  0.475 0.175 0  0.5 0.175 0  0.525 0.175 0  0.55 0.175 0  0.575 0.175 0  0.6 0.175 0  0.625 0.175 0  0.65 0.175 0  0.675 0.175 0  0.7 0.175 0  0.725 0.175 0  0.75 0.175 0  0.775 0.175 0  0.8 0.175 0  0.825 0.175 0  0.85 0.175 0  0.875 0.175 0  0.9 0.175 0  0.925 0.175 0  0.95 0.175 0  0.975 0.175 0  1 0.175 0  0 0.2 0  0.025 0.2 0  0.05 0.2 0  0.075 0.2 0  0.1 0.2 0  0.125 0.2 0  0.15 0.2 0  0.175 0.2 0  0.2 0.2 0  0.225 0.2 0  0.25 0.2 0  0.275 0.2 0  0.3 0.2 0  0.325 0.2 0  0.35 0.2 0  0.375 0.2 0  0.4 0.2 0  0.425 0.2 0  0.45 0.2 0  0.475 0.2 0  0.5 0.2 0  0.525 0.2 0  0.55 0.2 0  0.575 0.2 0  0.6 0.2 0  0.625 0.2 0  0.65 0.2 0  0.675 0.2 0  0.7 0.2 0  0.725 0.2 0  0.75 0.2 0  0.775 0.2 0  0.8 0.2 0  0.825 0.2 0  0.85 0.2 0  0.875 0.2 0  0.9 0.2 0  0.925 0.2 0  0.95 0.2 0  0.975 0.2 0  1 0.2 0  0 0.225 0  0.025 0.225 0  0.05 0.225 0  0.075 0.225 0  0.1 0.225 0  0.125 0.225 0  0.15 0.225 0  0.175 0.225 0  0.2 0.225 0  0.225 0.225 0  0.25 0.225 0  0.275 0.225 0  0.3 0.225 0  0.325 0.225 0  0.35 0.225 0  0.375 0.225 0  0.4 0.225 0  0.425 0.225 0  0.45 0.225 0  0.475 0.225 0  0.5 0.225 0  0.525 0.225 0  0.55 0.225 0  0.575 0.225 0  0.6 0.225 0  0.625 0.225 0  0.65 0.225 0  0.675 0.225 0  0.7 0.225 0  0.725 0.225 0  0.75 0.225 0  0.775 0.225 0  0.8 0.225 0  0.825 0.225 0  0.85 0.225 0  0.875 0.225 0  0.9 0.225 0  0.925 0.225 0  0.95 0.225 0  0.975 0.225 0  1 0.225 0  0 0.25 0  0.025 0.25 0  0.05 0.25 0  0.075 0.25 0  0.1 0.25 0  0.125 0.25 0  0.15 0.25 0  0.175 0.25 0  0.2 0.25 0  0.225 0.25 0  0.25 0.25 0  0.275 0.25 0  0.3 0.25 0  0.325 0.25 0  0.35 0.25 0  0.375 0.25 0  0.4 0.25 0  0.425 0.25 0  0.45 0.25 0  0.475 0.25 0  0.5 0.25 0  0.525 0.25 0  0.55 0.25 0  0.575 0.25 0  0.6 0.25 0  0.625 0.25 0  0.65 0.25 0  0.675 0.25 0  0.7 0.25 0  0.725 0.25 0  0.75 0.25 0  0.775 0.25 0  0.8 0.25 0  0.825 0.25 0  0.85 0.25 0  0.875 0.25 0  0.9 0.25 0  0.925 0.25 0  0.95 0.25 0  0.975 0.25 0  1 0.25 0  0 0.275 0  0.025 0.275 0  0.05 0.275 0  0.075 0.275 0  0.1 0.275 0  0.125 0.275 0  0.15 0.275 0  0.175 0.275 0  0.2 0.275 0  0.225 0.275 0  0.25 0.275 0  0.275 0.275 0  0.3 0.275 0  0.325 0.275 0  0.35 0.275 0  0.375 0.275 0  0.4 0.275 0  0.425 0.275 0  0.45 0.275 0  0.475 0.275 0  0.5 0.275 0  0.525 0.275 0  0.55 0.275 0  0.575 0.275 0  0.6 0.275 0  0.625 0.275 0  0.65 0.275 0  0.675 0.275 0  0.7 0.275 0  0.725 0.275 0  0.75 0.275 0  0.775 0.275 0  0.8 0.275 0  0.825 0.275 0  0.85 0.275 0  0.875 0.275 0  0.9 0.275 0  0.925 0.275 0  0.95 0.275 0  0.975 0.275 0  1 0.275 0  0 0.3 0  0.025 0.3 0  0.05 0.3 0  0.075 0.3 0  0.1 0.3 0  0.125 0.3 0  0.15 0.3 0  0.175 0.3 0  0.2 0.3 0  0.225 0.3 0  0.25 0.3 0  0.275 0.3 0  0.3 0.3 0  0.325 0.3 0  0.35 0.3 0  0.375 0.3 0  0.4 0.3 0  0.425 0.3 0  0.45 0.3 0  0.475 0.3 0  0.5 0.3 0  0.525 0.3 0  0.55 0.3 0  0.575 0.3 0  0.6 0.3 0  0.625 0.3 0  0.65 0.3 0  0.675 0.3 0  0.7 0.3 0  0.725 0.3 0  0.75 0.3 0  0.775 0.3 0  0.8 0.3 0  0.825 0.3 0  0.85 0.3 0  0.875 0.3 0  0.9 0.3 0  0.925 0.3 0  0.95 0.3 0  0.975 0.3 0  1 0.3 0  0 0.325 0  0.025 0.325 0  0.05 0.325 0  0.075 0.325 0  0.1 0.325 0  0.125 0.325 0  0.15 0.325 0  0.175 0.325 0  0.2 0.325 0  0.225 0.325 0  0.25 0.325 0  0.275 0.325 0  0.3 0.325 0  0.325 0.325 0  0.35 0.325 0  0.375 0.325 0  0.4 0.325 0  0.425 0.325 0  0.45 0.325 0  0.475 0.325 0  0.5 0.325 0  0.525 0.325 0  0.55 0.325 0  0.575 0.325 0  0.6 0.325 0  0.625 0.325 0  0.65 0.325 0  0.675 0.325 0  0.7 0.325 0  0.725 0.325 0  0.75 0.325 0  0.775 0.325 0  0.8 0.325 0  0.825 0.325 0  0.85 0.325 0  0.875 0.325 0  0.9 0.325 0  0.925 0.325 0  0.95 0.325 0  0.975 0.325 0  1 0.325 0  0 0.35 0  0.025 0.35 0  0.05 0.35 0  0.075 0.35 0  0.1 0.35 0  0.125 0.35 0  0.15 0.35 0  0.175 0.35 0  0.2 0.35 0  0.225 0.35 0  0.25 0.35 0  0.275 0.35 0  0.3 0.35 0  0.325 0.35 0  0.35 0.35 0  0.375 0.35 0  0.4 0.35 0  0.425 0.35 0  0.45 0.35 0  0.475 0.35 0  0.5 0.35 0  0.525 0.35 0  0.55 0.35 0  0.575 0.35 0  0.6 0.35 0  0.625 0.35 0  0.65 0.35 0  0.675 0.35 0  0.7 0.35 0  0.725 0.35 0  0.75 0.35 0  0.775 0.35 0  0.8 0.35 0  0.825 0.35 0  0.85 0.35 0  0.875 0.35 0  0.9 0.35 0  0.925 0.35 0  0.95 0.35 0  0.975 0.35 0  1 0.35 0  0 0.375 0  0.025 0.375 0  0.05 0.375 0  0.075 0.375 0  0.1 0.375 0  0.125 0.375 0  0.15 0.375 0  0.175 0.375 0  0.2 0.375 0  0.225 0.375 0  0.25 0.375 0  0.275 0.375 0  0.3 0.375 0  0.325 0.375 0  0.35 0.375 0  0.375 0.375 0  0.4 0.375 0  0.425 0.375 0  0.45 0.375 0  0.475 0.375 0  0.5 0.375 0  0.525 0.375 0  0.55 0.375 0  0.575 0.375 0  0.6 0.375 0  0.625 0.375 0  0.65 0.375 0  0.675 0.375 0  0.7 0.375 0  0.725 0.375 0  0.75 0.375 0  0.775 0.375 0  0.8 0.375 0  0.825 0.375 0  0.85 0.375 0  0.875 0.375 0  0.9 0.375 0  0.925 0.375 0  0.95 0.375 0  0.975 0.375 0  1 0.375 0  0 0.4 0  0.025 0.4 0  0.05 0.4 0  0.075 0.4 0  0.1 0.4 0  0.125 0.4 0  0.15 0.4 0  0.175 0.4 0  0.2 0.4 0  0.225 0.4 0  0.25 0.4 0  0.275 0.4 0  0.3 0.4 0  0.325 0.4 0  0.35 0.4 0  0.375 0.4 0  0.4 0.4 0  0.425 0.4 0  0.45 0.4 0  0.475 0.4 0  0.5 0.4 0  0.525 0.4 0  0.55 0.4 0  0.575 0.4 0  0.6 0.4 0  0.625 0.4 0  0.65 0.4 0  0.675 0.4 0  0.7 0.4 0  0.725 0.4 0  0.75 0.4 0  0.775 0.4 0  0.8 0.4 0  0.825 0.4 0  0.85 0.4 0  0.875 0.4 0  0.9 0.4 0  0.925 0.4 0  0.95 0.4 0  0.975 0.4 0  1 0.4 0  0 0.425 0  0.025 0.425 0  0.05 0.425 0  0.075 0.425 0  0.1 0.425 0  0.125 0.425 0  0.15 0.425 0  0.175 0.425 0  0.2 0.425 0  0.225 0.425 0  0.25 0.425 0  0.275 0.425 0  0.3 0.425 0  0.325 0.425 0  0.35 0.425 0  0.375 0.425 0  0.4 0.425 0  0.425 0.425 0  0.45 0.425 0  0.475 0.425 0  0.5 0.425 0  0.525 0.425 0  0.55 0.425 0  0.575 0.425 0  0.6 0.425 0  0.625 0.425 0  0.65 0.425 0  0.675 0.425 0  0.7 0.425 0  0.725 0.425 0  0.75 0.425 0  0.775 0.425 0  0.8 0.425 0  0.825 0.425 0  0.85 0.425 0  0.875 0.425 0  0.9 0.425 0  0.925 0.425 0  0.95 0.425 0  0.975 0.425 0  1 0.425 0  0 0.45 0  0.02
[...]
<PointData  Scalars="ControlVisualisation"> 
<DataArray  type="Float64"  Name="ControlVisualisation"  format="ascii">5.1072593291443367e-05  3.4081738439162968e-05  3.4186024251586939e-05  3.4348951974743288e-05  3.4549053542989260e-05  3.4764604874291111e-05  3.4977322412358273e-05  3.5174779193386726e-05  3.5350262832232079e-05  3.5501396436971668e-05  3.5628572322081198e-05  3.5733686751345466e-05  3.5819280405916372e-05  3.5888016021783847e-05  3.5942390682349376e-05  3.5984594049939746e-05  3.6016451426716587e-05  3.6039412376464775e-05  3.6054559943312472e-05  3.6062626935984025e-05  3.6064011585055430e-05  3.6058787621332974e-05  3.6046706382483966e-05  3.6027190377207751e-05  3.5999321211942243e-05  3.5961823777109030e-05  3.5913053330751870e-05  3.5850997161865907e-05  3.5773308398722580e-05  3.5677403789354266e-05  3.5560674880693510e-05  3.5420886807839452e-05  3.5256861987361483e-05  3.5069528320015800e-05  3.4863368009019940e-05  3.4647946715753394e-05  3.4438732625934655e-05  3.4256165227188829e-05  3.4122817761807017e-05  3.4053616384304323e-05  1.0213495566657685e-04  3.4083110722957453e-05  1.7077253369419520e-05  1.7185304626483431e-05  1.7364528182452563e-05  1.7595413722978311e-05  1.7853030423750260e-05  1.8114854439349663e-05  1.8364222716497340e-05  1.8590884013002452e-05  1.8789956955350583e-05  1.8960340452693243e-05  1.9103249921015052e-05  1.9221115985166537e-05  1.9316846686266531e-05  1.9393374582564919e-05  1.9453399133651404e-05  1.9499254283700241e-05  1.9532850576987159e-05  1.9555658493649865e-05  1.9568711815878064e-05  1.9572617461580091e-05  1.9567564839672919e-05  1.9553329087762060e-05  1.9529267612036537e-05  1.9494312080822718e-05  1.9446959944316728e-05  1.9385273454529953e-05  1.9306901234674739e-05  1.9209142348769777e-05  1.9089087520847916e-05  1.8943887263579290e-05  1.8771219242235186e-05  1.8570039821204744e-05  1.8341699475749785e-05  1.8091429310984410e-05  1.7829841028698749e-05  1.7574015667460495e-05  1.7346892703074548e-05  1.7173186882435752e-05  1.7067364380864275e-05  3.4053800216958405e-05  3.4201868632362206e-05  1.7198715388916001e-05  1.7340120238907711e-05  1.7549115889097771e-05  1.7816362106353013e-05  1.8112267506813720e-05  1.8411153557546900e-05  1.8694822070265892e-05  1.8952438636973156e-05  1.9178949450287510e-05  1.9373261593412468e-05  1.9536707519265174e-05  1.9671915692946417e-05  1.9782050563294211e-05  1.9870332633822496e-05  1.9939755176227687e-05  1.9992928395810805e-05  2.0032005507358486e-05  2.0058654994764115e-05  2.0074058128333440e-05  2.0078916505727786e-05  2.0073460325770204e-05  2.0057451918082550e-05  2.0030182199359037e-05  1.9990464091515333e-05  1.9936626348091286e-05  1.9866517680486815e-05  1.9777537420217171e-05  1.9666713359399171e-05  1.9530857848058306e-05  1.9366849110375935e-05  1.9172103551959558e-05  1.8945318459107228e-05  1.8687607844322438e-05  1.8403990866362061e-05  1.8105216456238730e-05  1.7809893526079984e-05  1.7543560094465925e-05  1.7334094385869546e-05  1.7183482553750659e-05  3.4127486321525463e-05  3.4431937183467248e-05  1.7443354761461576e-05  1.7625091832503558e-05  1.7837145878169914e-05  1.8095024918089915e-05  1.8371677894472640e-05  1.8644879688091481e-05  1.8900483287437212e-05  1.9130717166264293e-05  1.9332321382012461e-05  1.9504987171816993e-05  1.9650183777609074e-05  1.9770332269355214e-05  1.9868246734393489e-05  1.9946768647207371e-05  2.0008540222071411e-05  2.0055870817926717e-05  2.0090669404190596e-05  2.0114418115812183e-05  2.0128167552169744e-05  2.0132543167249696e-05  2.0127752468598721e-05  2.0113588358554915e-05  2.0089425613362320e-05  2.0054214819143070e-05  2.0006477854467473e-05  1.9944312753196839e-05  1.9865423973616239e-05  1.9767195579605973e-05  1.9646824635542172e-05  1.9501542600776273e-05  1.9328964508208237e-05  1.9127617445451496e-05  1.8897776111786412e-05  1.8642432808829814e-05  1.8369485077497650e-05  1.8092272373085358e-05  1.7830196245004693e-05  1.7611693821959702e-05  1.7410675192887451e-05  3.4292684720508005e-05  3.4789465912454242e-05  1.7842986477259840e-05  1.8145554495726377e-05  1.8349512868946635e-05  1.8567559129971032e-05  1.8790223776332552e-05  1.9006961294040379e-05  1.9209512849434749e-05  1.9392740524837776e-05  1.9554200936055171e-05  1.9693391352433603e-05  1.9811116901224599e-05  1.9908988205217763e-05  1.9989025897988169e-05  2.0053369818169184e-05  2.0104074798979510e-05  2.0142971268056584e-05  2.0171588317970590e-05  2.0191122346994305e-05  2.0202423081646869e-05  2.0205995805150935e-05  2.0202009507498766e-05  2.0190298413456961e-05  2.0170356236506455e-05  2.0141333899485639e-05  2.0102040629883584e-05  2.0050950928064505e-05  1.9986243011698419e-05  1.9905889693784790e-05  1.9807803437943540e-05  1.9690038491460791e-05  1.9551063159441828e-05  1.9390119918749338e-05  1.9207703437669677e-05  1.9005846761335781e-05  1.8790045347970209e-05  1.8563953589760847e-05  1.8349583864409620e-05  1.8152403538494451e-05  1.7824667022367313e-05  3.4580889159346490e-05  3.5229226509944527e-05  1.8833670388710284e-05  1.9396143723023204e-05  1.9560508151744847e-05  1.9690918321136967e-05  1.9847201500362536e-05  2.0024665262916210e-05  2.0209436562066373e-05  2.0390343084623699e-05  2.0559610277814558e-05  2.0712414375047754e-05  2.0846360501309929e-05  2.0960901158923673e-05  2.1056706762826659e-05  2.1135151613952499e-05  2.1197900073796179e-05  2.1246589041255757e-05  2.1282658389530954e-05  2.1307274011389507e-05  2.1321265553410372e-05  2.1325111023268033e-05  2.1318956854195637e-05  2.1302609182749116e-05  2.1275515360944189e-05  2.1236787155194289e-05  2.1185230478006530e-05  2.1119365029720327e-05  2.1037524886109571e-05  2.0938100766107083e-05  2.0819889698505686e-05  2.0682556435732512e-05  2.0527153297309558e-05  2.0356694559643536e-05  2.0176703007844837e-05  1.9995689212715712e-05  1.9826495376670416e-05  1.9672735893869490e-05  1.9546789904606052e-05  1.9217767173965504e-05  1.8371403893149856e-05  3.4807432493264327e-05  4.1579119106384670e-05  2.3472246206772212e-05  2.6451178136420038e-05  2.7782005960681604e-05  2.8956974995089901e-05  3.0330590473408669e-05  3.1877064246120597e-05  3.3551783383271532e-05  3.5296195957112877e-05  3.7053298679360500e-05  3.8766853485749713e-05  4.0387374631334565e-05  4.1877176030944072e-05  4.3210077599230672e-05  4.4370844137572814e-05  4.5353021437242848e-05  4.6154982236241906e-05  4.6777859744806831e-05  4.7224425809025559e-05  4.7497134999613833e-05  4.7597276591751712e-05  4.7525413017425914e-05  4.7280843784923200e-05  4.6861042475461581e-05  4.6262806717469653e-05  4.5483322950717456e-05  4.4520291255702770e-05  4.3373618992987055e-05  4.2048866104682922e-05  4.0560299885549456e-05  3.8933281879811269e-05  3.7205163349043534e-05  3.5425146125230358e-05  3.3651443983442940e-05  3.1945785998003018e-05  3.0374512216942507e-05  2.8960570372053909e-05  2.7863744318501260e-05  2.6352332317132076e-05  2.3871585642897986e-05  3.6949779678782902e-05  1.1318094324028416e-01  1.1253288666632442e-01  1.4414230067886610e-01  1.6361933084620189e-01  1.8676769440387267e-01  2.0931278622874144e-01  2.3091339101194502e-01  2.5079594208858991e-01  2.6858620285871404e-01  2.8414661874524033e-01  2.9752451983577977e-01  3.0884817051807489e-01  3.1830979980714785e-01  3.2612798083713923e-01  3.3250585052600790e-01  3.3762608280736356e-01  3.4164209118542482e-01  3.4467162900859299e-01  3.4680552154275496e-01  3.4810983001822055e-01  3.4862152644840172e-01  3.4835345941426898e-01  3.4729698461461067e-01  3.4541673066132100e-01  3.4265313631325017e-01  3.3892541845428825e-01  3.3411919131771195e-01  3.2807286615859343e-01  3.2059082153341950e-01  3.1147559542582537e-01  3.0053610255797403e-01  2.8757376181520089e-01  2.7241570203268645e-01  2.5500128246785275e-01  2.3543251485205846e-01  2.1404960106444168e-01  1.9138021738712777e-01  1.6920808125016029e-01  1.4409242684616427e-01  1.3243513131537335e-01  5.1951853039640679e-02  8.4888681935281640e-01  7.9807584156352673e-01  7.8007934216222741e-01  7.8440559813623012e-01  7.9949104931656279e-01  8.1392955136352840e-01  8.2731595479747810e-01  8.3847003841677470e-01  8.4749404914121307e-01  8.5469340146886341e-01  8.6049420386042275e-01  8.6523656333947219e-01  8.6915053888812621e-01  8.7238821274411704e-01  8.7504911694910925e-01  8.7720156757833589e-01  8.7889762737337584e-01  8.8017623785315235e-01  8.8106556080219067e-01  8.8158625194267959e-01  8.8174984562450520e-01  8.8155863542904433e-01  8.8100772591294729e-01  8.8008400695810285e-01  8.7876542883014974e-01  8.7702291866816351e-01  8.7481789896164597e-01  8.7209611842744128e-01  8.6878392627780332e-01  8.6478436931076341e-01  8.5996270306648726e-01  8.5409619487699118e-01  8.4684014722738277e-01  8.3776156674275304e-01  8.2652830126114452e-01  8.1319116792836177e-01  7.9861639621335112e-01  7.8446674453169007e-01  7.7645332944172796e-01  7.9563856325930205e-01  8.3871633927917510e-01  9.9989228817588804e-01  9.9992617393534666e-01  9.9990922501336899e-01  9.9989355435067129e-01  9.9988279498388433e-01  9.9987583811624692e-01  9.9987068219968001e-01  9.9986540176641048e-01  9.9985966484903821e-01  9.9985378932077751e-01  9.9984827702256696e-01  9.9984346593442164e-01  9.9983948923444399e-01  9.9983633158114005e-01  9.9983389909445575e-01  9.9983207407677110e-01  9.9983074666204574e-01  9.9982982553743593e-01  9.9982924061082101e-01  9.9982894391563581e-01  9.9982890804603974e-01  9.9982912495154530e-01  9.9982960643075303e-01  9.9983038433665172e-01  9.9983151026836781e-01  9.9983305644605824e-01  9.9983511611489828e-01  9.9983779887644686e-01  9.9984121729042197e-01  9.9984545988470219e-01  9.9985054045133659e-01  9.9985631077639270e-01  9.9986243069142666e-01  9.9986833498386696e-01  9.9987365827587615e-01  9.9987892255156252e-01  9.9988600702872410e-01  9.9989790793808442e-01  9.9991519997424150e-01  9.9993104409060252e-01  9.9984798175514078e-01  9.9992553589195687e-01  9.9995909134533811e-01  9.9994918157860357e-01  9.9993676106671214e-01  9.9992492086641249e-01  9.9991429218968619e-01  9.9990406371109286e-01  9.9989482248879413e-01  9.9988682383943639e-01  9.9987898069583947e-01  9.9987153088984015e-01  9.9986476957128201e-01  9.9985883699852274e-01  9.9985377938508480e-01  9.9984957849408573e-01  9.9984617949033516e-01  9.9984351438534069e-01  9.9984151769591023e-01  9.9984013170524488e-01  9.9983931058406528e-01  9.9983902609121433e-01  9.9983926897739384e-01  9.9984004674187965e-01  9.9984138323204252e-01  9.9984332040482327e-01  9.9984591589205851e-01  9.9984923572246354e-01  9.9985334635164147e-01  9.9985830641456119e-01  9.9986415823813335e-01  9.9987088054116480e-01  9.9987843003982368e-01  9.9988648588386531e-01  9.9989575530158925e-01  9.9990620668421970e-01  9.9991645671247853e-01  9.9992666623113169e-01  9.9993793124568797e-01  9.9994981859632737e-01  9.9995941533058463e-01  9.9992577031250385e-01  9.9984939662889549e-01  9.9992811266467585e-01  9.9990075441641080e-01  9.9985405327487997e-01  9.9977975548736564e-01  9.9964011646630913e-01  9.9924626699809960e-01  9.9627836151358484e-01  9.8089251903803909e-01  9.6678986317354976e-01  9.5509589170681630e-01  9.4540096277858465e-01  9.3743543556617626e-01  9.3092085688029369e-01  9.2564260212026828e-01  9.2143177483302241e-01  9.1814986026947376e-01  9.1568350476124238e-01  9.1394757367293755e-01  9.1288473360477629e-01  9.1245863185652631e-01  9.1265479226479695e-01  9.1348117066118140e-01  9.1496619316164696e-01  9.1716171681770475e-01  9.2014508092885883e-01  9.2402066288547258e-01  9.2891046539375211e-01  9.3496621532836433e-01  9.4239410094528619e-01  9.5141754712174931e-01  9.6240342207074236e-01  9.7516166691671025e-01  9.9105356976261194e-01  9.9884480728940828e-01  9.9955897479124867e-01  9.9975005078960444e-01  9.9983713792006501e-01  9.9988831432344050e-01  9.9992105549335686e-01  9.9989107975928582e-01  8.4210241188747392e-01  7.7199661913396256e-01  7.0701705256109260e-01  6.6164060384762002e-01  6.2049164948672697e-01  5.8145530654701294e-01  5.4397053344434321e-01  5.1140697588359629e-01  4.8689347662158178e-01  4.6852557965182073e-01  4.5353371505593859e-01  4.4126067770491934e-01  4.3116130417274995e-01  4.2287946439946095e-01  4.1615002354768776e-01  4.1077648998561006e-01  4.0659780148527064e-01  4.0347921227897254e-01  4.0132348723789624e-01  4.0006768983263374e-01  3.9967271736694154e-01  4.0012709818842085e-01  4.0145016896929453e-01  4.0368401312746716e-01  4.0689401351081644e-01  4.1118688729613578e-01  4.1671240940642129e-01  4.2364048766706197e-01  4.3216976504423477e-01  4.4258285591736340e-01  4.5527854522131039e-01  4.7080529057728099e-01  4.8997570149181807e-01  5.1450351796108240e-01  5.4416784204641611e-01  5.7716105441364607e-01  6.1465994101448540e-01  6.5479195082032615e-01  7.0324948146403043e-01  7.6964265859628456e-01  8.4950061072990979e-01  5.4547475305432275e-02  1.1304817166778737e-01  8.2106968118597731e-02  5.8514228042723604e-02  3.2209907568564539e-02  1.0594987612759335e-02  4.6651720834820924e-04  1.7410526547815213e-04  1.1856647882589907e-04  9.6915232581467204e-05  8.5048516957397764e-05  7.7641894288825390e-05  7.2579784435462588e-05  6.8962663030337822e-05  6.6311015783402603e-05  6.4349213691368898e-05  6.2905063436859628e-05  6.1866023539626906e-05  6.1160231733032940e-05  6.0743658993384870e-05  6.0591404508270965e-05  6.0694634358304789e-05  6.1060556951682474e-05  6.1712656373725928e-05  6.2692918653562064e-05  6.4069172548626496e-05  6.5949266624727317e-05  6.8502466482727665e-05  7.1995460461994344e-05  7.6879282863126795e-05  8.4011338819630764e-05  9.5260618996335233e-05  1.1591643094530329e-04  1.7084599127478622e-04  4.7662132869364250e-04  1.1396354811112055e-02  3.3707851408282113e-02  5.9284703143617661e-02  8.8378741030770994e-02  9.7717107361251734e-02  1.1715866656573395e-01  3.7420130696027186e-05  2.4427924714231929e-05  2.5559206145076636e-05  2.4993005760013651e-05  2.3990040929094240e-05  2.3308302453967807e-05  2.2759776036119541e-05  2.2272033836069556e-05  2.1950984480931118e-05  2.1807357139876666e-05  2.1732377934089614e-05  2.1691652730178714e-05  2.1667504501665790e-05  2.1652496553662136e-05  2.1642610073289308e-05  2.1635762740766806e-05  2.1630753789566374e-05  2.1626854128839439e-05  2.1623651080177012e-05  2.1620916258998984e-05  2.1618500481510952e-05  2.1616303047208480e-05  2.1614276311681438e-05  2.1612413967297022e-05  2.1610768109553289e-05  2.1609536066942198e-05  2.1609190387081852e-05  2.1610624701526529e-05  2.1615427778357414e-05  2.1626587025395012e-05  2.1649997492741938e-05  2.1697728401680893e-05  2.1796921902584362e-05  2.2008203298467226e-05  2.2459758113116961e-05  2.3144995937975069e-05  2.3906744987546778e-05  2.4854063092049837e-05  2.5666975557700619e-05  2.3972043164205141e-05  4.2223871184027416e-05  3.5050087965762609e-05  1.8742691590390832e-05  1.9650849155760664e-05  1.9850241074773193e-05  1.9804961100930157e-05  1.9790407284909214e-05  1.9780055877895979e-05  1.9777480172886248e-05  1.9801956121311409e-05  1.9855230163766239e-05  1.9916979487341248e-05  1.9978981313060326e-05  2.0035885132890790e-05  2.0085614049063250e-05  2.0127503809944500e-05  2.0161691395379617e-05  2.0188615960603351e-05  2.0208796688512010e-05  2.0222714386374791e-05  2.0230744803879031e-05  2.0233116785314222e-05  2.0229895067996766e-05  2.0220976930579987e-05  2.0206092423601429e-05  2.0184818859826224e-05  2.0156618541043588e-05  2.0120901652913652e-05  2.0077125748633356e-05  2.0024986685580767e-05  1.9964799900287013e-05  1.9898177891511300e-05  1.9829139435376344e-05  1.9765462466920456e-05  1.9718799684818883e-05  1.9698145378833338e-05  1.9701852207080362e-05  1.9717924660349493e-05  1.9757451760765275e-05  1.9763246611418366e-05  1.9254758700980048e-05  3.5572101658774664e-05  3.4736956421012606e-05  1.8043468050811111e-05  1.8411655156688402e-05  1.8590774379227320e-05  1.8779043760157537e-05  1.8973146938363193e-05  1.9146717718364964e-05  1.9299499037408232e-05  1.9435949205467756e-05  1.9560600772738831e-05  1.9672961968434245e-05  1.9772558331431845e-05  1.9858625962447673e-05  1.9931346634384458e-05  1.9991432109751713e-05  2.0039889653207009e-05  2.0077782720085843e-05  2.0106091397459585e-05  2.0125626545645211e-05  2.0136986635429903e-05  2.0140532011337267e-05  2.0136373066493816e-05  2.0124367258890609e-05  2.0104119307398124e-05  2.0074990651452439e-05  2.0036120959412231e-05  1.9986467890241516e-05  1.9924881090509574e-05  1.9850232770865169e-05  1.9761634363423237e-05  1.9658736079339280e-05  1.9542006452376401e-05  1.9412650068651754e-05  1.9271529501820363e-05  1.9117458651378375e-05  1.8947343798798783e-05  1.8762343275139306e-05  1.8573974757621990e-05  1.8391161374609043e-05  1.8061958010679015e-05  3.4995297554714164e-05  3.4382127858774096e-05  1.7531626894558754e-05  1.7755892265135917e-05  1.7973600448765547e-05  1.8228955962340869e-05  1.8493051130297825e-05  1.8746142227463493e-05  1.8976165038056388e-05  1.9179000526818807e-05  1.9355873525010182e-05  1.9508780470982923e-05  1.9639481578413408e-05  1.9749733076954226e-05  1.9841399037686102e-05  1.9916349688063513e-05  1.9976383749008441e-05  2.0023126917566939e-05  2.0057962858357327e-05  2.0081989021292025e-05  2.0095995747797608e-05  2.0100454821094626e-05  2.0095515111896761e-05  2.0081001507238463e-05  2.0056413939752723e-05  2.0020929991010184e-05  1.9973413407489587e-05  1.9912434372075532e-05  1.9836310192165205e-05  1.9743179583827979e-05  1.9631114582338903e-05  1.9498257990191515e-05  1.9342933609567743e-05  1.9163677043319489e-05  1.8959346503273319e-05  1.8729994679274181e-05  1.8479484571655825e-05  1.8219564418542217e-05  1.7972333544200248e-05  1.7765032644614747e-05  1.7567571231855105e-05  3.4551316909728719e-05  3.4174175964201389e-05  1.7248704779863974e-05  1.7414404667385768e-05  1.7627781598068740e-05  1.7895209533760582e-05  1.8187768119111851e-05  1.8479040040928174e-05  1.8750697597401819e-05  1.8993804176807311e-05  1.9205807124767053e-05  1.9387521215245852e-05  1.9541207995184215e-05  1.9669641048063408e-05  1.9775623465599202e-05  1.9861802801799246e-05  1.9930564864541410e-05  1.9983968611573725e-05  2.0023711927898386e-05  2.0051115705364071e-05  2.0067119562870637e-05  2.0072282317546104e-05  2.0066783662411748e-05  2.0050425293077942e-05  2.0022628290393422e-05  1.9982430929870041e-05  1.9928486532212857e-05  1.9859068181468481e-05  1.9772086817204731e-05  1.9665133697724050e-05  1.9535561410365453e-05  1.9380623387178813e-05  1.9197719382635478e-05  1.8984866150173773e-05  1.8741656862262593e-05  1.8471042683983372e-05  1.8181933211134722e-05  1.7891691150171381e-05  1.7626394036170555e-05  1.7416815740274619e-05  1.7265753687863521e-05  3.4268382776881038e-05  3.4071037795649748e-05  1.7100672957198568e-05  1.7234458818009313e-05  1.7444541882745192e-05  1.7715968872300882e-05  1.8019041529649214e-05  1.8326420369287635e-05  1.8618033298820421e-05  1.8882110631926444e-05  1.9113689805785834e-05  1.9312338830851723e-05  1.9480030160922726e-05  1.9619741405917148e-05  1.9734680911610768e-05  1.9827907558751300e-05  1.9902151509684976e-05  1.9959739777670329e-05  2.0002569641069262e-05  2.0032105001847329e-05  2.0049381844575159e-05  2.0055016107584474e-05  2.0049208999471742e-05  2.0031749646729419e-05  2.0002011883905738e-05  1.9958948266060043e-05  1.9901082580361912e-05  1.9826503790991857e-05  1.9732873124062847e-05  1.9617455198448429e-05  1.9477203438588956e-05  1.9308951706876520e-05  1.9109816276664513e-05  1.8877976548175534e-05  1.8614037152863283e-05  1.8323034680445680e-05  1.8016697112339213e-05  1.7714868947381755e-05  1.7444463862741537e-05  1.7235442905083330e-05  1.7107764693549700e-05  3.4113965279073643e-05  3.4051897731282795e-05  1.7056543838213826e-05  1.7178698409199665e-05  1.7387458641203935e-05  1.7659186882859741e-05  1.7964332739245122e-05  1.8275849556079376e-05  1.8573172634305133e-05  1.884365576