<?xml version="1.0"?>
<VTKFile type="UnstructuredGrid"  version="0.1"  >
<UnstructuredGrid>
<Piece  NumberOfPoints="1681" NumberOfCells="3200">
<Points>
<DataArray  type="Float64"  NumberOfComponents="3"  format="ascii">0 0 0  0.025 0 0  0.05 0 0  0.075 0 0  0.1 0 0  0.125 0 0  0.15 0 0  0.175 0 0  0.2 0 0  0.225 0 0  0.25 0 0  0.275 0 0  0.3 0 0  0.325 0 0  0.35 0 0  0.375 0 0  0.4 0 0  0.425 0 0  0.45 0 0  0.475 0 0  0.5 0 0  0.525 0 0  0.55 0 0  0.575 0 0  0.6 0 0  0.625 0 0  0.65 0 0  0.675 0 0  0.7 0 0  0.725 0 0  0.75 0 0  0.775 0 0  0.8 0 0  0.825 0 0  0.85 0 0  0.875 0 0  0.9 0 0  0.925 0 0  0.95 0 0  0.975 0 0  1 0 0  0 0.025 0  0.025 0.025 0  0.05 0.025 0  0.075 0.025 0  0.1 0.025 0  0.125 0.025 0  0.15 0.025 0  0.175 0.025 0  0.2 0.025 0  0.225 0.025 0  0.25 0.025 0  0.275 0.025 0  0.3 0.025 0  0.325 0.025 0  0.35 0.025 0  0.375 0.025 0  0.4 0.025 0  0.425 0.025 0  0.45 0.025 0  0.475 0.025 0  0.5 0.025 0  0.525 0.025 0  0.55 0.025 0  0.575 0.025 0  0.6 0.025 0  0.625 0.025 0  0.65 0.025 0  0.675 0.025 0  0.7 0.025 0  0.725 0.025 0  0.75 0.025 0  0.775 0.025 0  0.8 0.025 0  0.825 0.025 0  0.85 0.025 0  0.875 0.025 0  0.9 0.025 0  0.925 0.025 0  0.95 0.025 0  0.975 0.025 0  1 0.025 0  0 0.05 0  0.025 0.05 0  0.05 0.05 0  0.075 0.05 0  0.1 0.05 0  0.125 0.05 0  0.15 0.05 0  0.175 0.05 0  0.2 0.05 0  0.225 0.05 0  0.25 0.05 0  0.275 0.05 0  0.3 0.05 0  0.325 0.05 0  0.35 0.05 0  0.375 0.05 0  0.4 0.05 0  0.425 0.05 0  0.45 0.05 0  0.475 0.05 0  0.5 0.05 0  0.525 0.05 0  0.55 0.05 0  0.575 0.05 0  0.6 0.05 0  0.625 0.05 0  0.65 0.05 0  0.675 0.05 0  0.7 0.05 0  0.725 0.05 0  0.75 0.05 0  0.775 0.05 0  0.8 0.05 0  0.825 0.05 0  0.85 0.05 0  0.875 0.05 0  0.9 0.05 0  0.925 0.05 0  0.95 0.05 0  0.975 0.05 0  1 0.05 0  0 0.075 0  0.025 0.075 0  0.05 0.075 0  0.075 0.075 0  0.1 0.075 0  0.125 0.075 0  0.15 0.075 0  0.175 0.075 0  0.2 0.075 0  0.225 0.075 0  0.25 0.075 0  0.275 0.075 0  0.3 0.075 0  0.325 0.075 0  0.35 0.075 0  0.375 0.075 0  0.4 0.075 0  0.425 0.075 0  0.45 0.075 0  0.475 0.075 0  0.5 0.075 0  0.525 0.075 0  0.55 0.075 0  0.575 0.075 0  0.6 0.075 0  0.625 0.075 0  0.65 0.075 0  0.675 0.075 0  0.7 0.075 0  0.725 0.075 0  0.75 0.075 0  0.775 0.075 0  0.8 0.075 0  0.825 0.075 0  0.85 0.075 0  0.875 0.075 0  0.9 0.075 0  0.925 0.075 0  0.95 0.075 0  0.975 0.075 0  1 0.075 0  0 0.1 0  0.025 0.1 0  0.05 0.1 0  0.075 0.1 0  0.1 0.1 0  0.125 0.1 0  0.15 0.1 0  0.175 0.1 0  0.2 0.1 0  0.225 0.1 0  0.25 0.1 0  0.275 0.1 0  0.3 0.1 0  0.325 0.1 0  0.35 0.1 0  0.375 0.1 0  0.4 0.1 0  0.425 0.1 0  0.45 0.1 0  0.475 0.1 0  0.5 0.1 0  0.525 0.1 0  0.55 0.1 0  0.575 0.1 0  0.6 0.1 0  0.625 0.1 0  0.65 0.1 0  0.675 0.1 0  0.7 0.1 0  0.725 0.1 0  0.75 0.1 0  0.775 0.1 0  0.8 0.1 0  0.825 0.1 0  0.85 0.1 0  0.875 0.1 0  0.9 0.1 0  0.925 0.1 0  0.95 0.1 0  0.975 0.1 0  1 0.1 0  0 0.125 0  0.025 0.125 0  0.05 0.125 0  0.075 0.125 0  0.1 0.125 0  0.125 0.125 0  0.15 0.125 0  0.175 0.125 0  0.2 0.125 0  0.225 0.125 0  0.25 0.125 0  0.275 0.125 0  0.3 0.125 0  0.325 0.125 0  0.35 0.125 0  0.375 0.125 0  0.4 0.125 0  0.425 0.125 0  0.45 0.125 0  0.475 0.125 0  0.5 0.125 0  0.525 0.125 0  0.55 0.125 0  0.575 0.125 0  0.6 0.125 0  0.625 0.125 0  0.65 0.125 0  0.675 0.125 0  0.7 0.125 0  0.725 0.125 0  0.75 0.125 0  0.775 0.125 0  0.8 0.125 0  0.825 0.125 0  0.85 0.125 0  0.875 0.125 0  0.9 0.125 0  0.925 0.125 0  0.95 0.125 0  0.975 0.125 0  1 0.125 0  0 0.15 0  0.025 0.15 0  0.05 0.15 0  0.075 0.15 0  0.1 0.15 0  0.125 0.15 0  0.15 0.15 0  0.175 0.15 0  0.2 0.15 0  0.225 0.15 0  0.25 0.15 0  0.275 0.15 0  0.3 0.15 0  0.325 0.15 0  0.35 0.15 0  0.375 0.15 0  0.4 0.15 0  0.425 0.15 0  0.45 0.15 0  0.475 0.15 0  0.5 0.15 0  0.525 0.15 0  0.55 0.15 0  0.575 0.15 0  0.6 0.15 0  0.625 0.15 0  0.65 0.15 0  0.675 0.15 0  0.7 0.15 0  0.725 0.15 0  0.75 0.15 0  0.775 0.15 0  0.8 0.15 0  0.825 0.15 0  0.85 0.15 0  0.875 0.15 0  0.9 0.15 0  0.925 0.15 0  0.95 0.15 0  0.975 0.15 0  1 0.15 0  0 0.175 0  0.025 0.175 0  0.05 0.175 0  0.075 0.175 0  0.1 0.175 0  0.125 0.175 0  0.15 0.175 0  0.175 0.175 0  0.2 0.175 0  0.225 0.175 0  0.25 0.175 0  0.275 0.175 0  0.3 0.175 0  0.325 0.175 0  0.35 0.175 0  0.375 0.175 0  0.4 0.175 0  0.425 0.175 0  0.45 0.175 0  0.475 0.175 0  0.5 0.175 0  0.525 0.175 0  0.55 0.175 0  0.575 0.175 0  0.6 0.175 0  0.625 0.175 0  0.65 0.175 0  0.675 0.175 0  0.7 0.175 0  0.725 0.175 0  0.75 0.175 0  0.775 0.175 0  0.8 0.175 0  0.825 0.175 0  0.85 0.175 0  0.875 0.175 0  0.9 0.175 0  0.925 0.175 0  0.95 0.175 0  0.975 0.175 0  1 0.175 0  0 0.2 0  0.025 0.2 0  0.05 0.2 0  0.075 0.2 0  0.1 0.2 0  0.125 0.2 0  0.15 0.2 0  0.175 0.2 0  0.2 0.2 0  0.225 0.2 0  0.25 0.2 0  0.275 0.2 0  0.3 0.2 0  0.325 0.2 0  0.35 0.2 0  0.375 0.2 0  0.4 0.2 0  0.425 0.2 0  0.45 0.2 0  0.475 0.2 0  0.5 0.2 0  0.525 0.2 0  0.55 0.2 0  0.575 0.2 0  0.6 0.2 0  0.625 0.2 0  0.65 0.2 0  0.675 0.2 0  0.7 0.2 0  0.725 0.2 0  0.75 0.2 0  0.775 0.2 0  0.8 0.2 0  0.825 0.2 0  0.85 0.2 0  0.875 0.2 0  0.9 0.2 0  0.925 0.2 0  0.95 0.2 0  0.975 0.2 0  1 0.2 0  0 0.225 0  0.025 0.225 0  0.05 0.225 0  0.075 0.225 0  0.1 0.225 0  0.125 0.225 0  0.15 0.225 0  0.175 0.225 0  0.2 0.225 0  0.225 0.225 0  0.25 0.225 0  0.275 0.225 0  0.3 0.225 0  0.325 0.225 0  0.35 0.225 0  0.375 0.225 0  0.4 0.225 0  0.425 0.225 0  0.45 0.225 0  0.475 0.225 0  0.5 0.225 0  0.525 0.225 0  0.55 0.225 0  0.575 0.225 0  0.6 0.225 0  0.625 0.225 0  0.65 0.225 0  0.675 0.225 0  0.7 0.225 0  0.725 0.225 0  0.75 0.225 0  0.775 0.225 0  0.8 0.225 0  0.825 0.225 0  0.85 0.225 0  0.875 0.225 0  0.9 0.225 0  0.925 0.225 0  0.95 0.225 0  0.975 0.225 0  1 0.225 0  0 0.25 0  0.025 0.25 0  0.05 0.25 0  0.075 0.25 0  0.1 0.25 0  0.125 0.25 0  0.15 0.25 0  0.175 0.25 0  0.2 0.25 0  0.225 0.25 0  0.25 0.25 0  0.275 0.25 0  0.3 0.25 0  0.325 0.25 0  0.35 0.25 0  0.375 0.25 0  0.4 0.25 0  0.425 0.25 0  0.45 0.25 0  0.475 0.25 0  0.5 0.25 0  0.525 0.25 0  0.55 0.25 0  0.575 0.25 0  0.6 0.25 0  0.625 0.25 0  0.65 0.25 0  0.675 0.25 0  0.7 0.25 0  0.725 0.25 0  0.75 0.25 0  0.775 0.25 0  0.8 0.25 0  0.825 0.25 0  0.85 0.25 0  0.875 0.25 0  0.9 0.25 0  0.925 0.25 0  0.95 0.25 0  0.975 0.25 0  1 0.25 0  0 0.275 0  0.025 0.275 0  0.05 0.275 0  0.075 0.275 0  0.1 0.275 0  0.125 0.275 0  0.15 0.275 0  0.175 0.275 0  0.2 0.275 0  0.225 0.275 0  0.25 0.275 0  0.275 0.275 0  0.3 0.275 0  0.325 0.275 0  0.35 0.275 0  0.375 0.275 0  0.4 0.275 0  0.425 0.275 0  0.45 0.275 0  0.475 0.275 0  0.5 0.275 0  0.525 0.275 0  0.55 0.275 0  0.575 0.275 0  0.6 0.275 0  0.625 0.275 0  0.65 0.275 0  0.675 0.275 0  0.7 0.275 0  0.725 0.275 0  0.75 0.275 0  0.775 0.275 0  0.8 0.275 0  0.825 0.275 0  0.85 0.275 0  0.875 0.275 0  0.9 0.275 0  0.925 0.275 0  0.95 0.275 0  0.975 0.275 0  1 0.275 0  0 0.3 0  0.025 0.3 0  0.05 0.3 0  0.075 0.3 0  0.1 0.3 0  0.125 0.3 0  0.15 0.3 0  0.175 0.3 0  0.2 0.3 0  0.225 0.3 0  0.25 0.3 0  0.275 0.3 0  0.3 0.3 0  0.325 0.3 0  0.35 0.3 0  0.375 0.3 0  0.4 0.3 0  0.425 0.3 0  0.45 0.3 0  0.475 0.3 0  0.5 0.3 0  0.525 0.3 0  0.55 0.3 0  0.575 0.3 0  0.6 0.3 0  0.625 0.3 0  0.65 0.3 0  0.675 0.3 0  0.7 0.3 0  0.725 0.3 0  0.75 0.3 0  0.775 0.3 0  0.8 0.3 0  0.825 0.3 0  0.85 0.3 0  0.875 0.3 0  0.9 0.3 0  0.925 0.3 0  0.95 0.3 0  0.975 0.3 0  1 0.3 0  0 0.325 0  0.025 0.325 0  0.05 0.325 0  0.075 0.325 0  0.1 0.325 0  0.125 0.325 0  0.15 0.325 0  0.175 0.325 0  0.2 0.325 0  0.225 0.325 0  0.25 0.325 0  0.275 0.325 0  0.3 0.325 0  0.325 0.325 0  0.35 0.325 0  0.375 0.325 0  0.4 0.325 0  0.425 0.325 0  0.45 0.325 0  0.475 0.325 0  0.5 0.325 0  0.525 0.325 0  0.55 0.325 0  0.575 0.325 0  0.6 0.325 0  0.625 0.325 0  0.65 0.325 0  0.675 0.325 0  0.7 0.325 0  0.725 0.325 0  0.75 0.325 0  0.775 0.325 0  0.8 0.325 0  0.825 0.325 0  0.85 0.325 0  0.875 0.325 0  0.9 0.325 0  0.925 0.325 0  0.95 0.325 0  0.975 0.325 0  1 0.325 0  0 0.35 0  0.025 0.35 0  0.05 0.35 0  0.075 0.35 0  0.1 0.35 0  0.125 0.35 0  0.15 0.35 0  0.175 0.35 0  0.2 0.35 0  0.225 0.35 0  0.25 0.35 0  0.275 0.35 0  0.3 0.35 0  0.325 0.35 0  0.35 0.35 0  0.375 0.35 0  0.4 0.35 0  0.425 0.35 0  0.45 0.35 0  0.475 0.35 0  0.5 0.35 0  0.525 0.35 0  0.55 0.35 0  0.575 0.35 0  0.6 0.35 0  0.625 0.35 0  0.65 0.35 0  0.675 0.35 0  0.7 0.35 0  0.725 0.35 0  0.75 0.35 0  0.775 0.35 0  0.8 0.35 0  0.825 0.35 0  0.85 0.35 0  0.875 0.35 0  0.9 0.35 0  0.925 0.35 0  0.95 0.35 0  0.975 0.35 0  1 0.35 0  0 0.375 0  0.025 0.375 0  0.05 0.375 0  0.075 0.375 0  0.1 0.375 0  0.125 0.375 0  0.15 0.375 0  0.175 0.375 0  0.2 0.375 0  0.225 0.375 0  0.25 0.375 0  0.275 0.375 0  0.3 0.375 0  0.325 0.375 0  0.35 0.375 0  0.375 0.375 0  0.4 0.375 0  0.425 0.375 0  0.45 0.375 0  0.475 0.375 0  0.5 0.375 0  0.525 0.375 0  0.55 0.375 0  0.575 0.375 0  0.6 0.375 0  0.625 0.375 0  0.65 0.375 0  0.675 0.375 0  0.7 0.375 0  0.725 0.375 0  0.75 0.375 0  0.775 0.375 0  0.8 0.375 0  0.825 0.375 0  0.85 0.375 0  0.875 0.375 0  0.9 0.375 0  0.925 0.375 0  0.95 0.375 0  0.975 0.375 0  1 0.375 0  0 0.4 0  0.025 0.4 0  0.05 0.4 0  0.075 0.4 0  0.1 0.4 0  0.125 0.4 0  0.15 0.4 0  0.175 0.4 0  0.2 0.4 0  0.225 0.4 0  0.25 0.4 0  0.275 0.4 0  0.3 0.4 0  0.325 0.4 0  0.35 0.4 0  0.375 0.4 0  0.4 0.4 0  0.425 0.4 0  0.45 0.4 0  0.475 0.4 0  0.5 0.4 0  0.525 0.4 0  0.55 0.4 0  0.575 0.4 0  0.6 0.4 0  0.625 0.4 0  0.65 0.4 0  0.675 0.4 0  0.7 0.4 0  0.725 0.4 0  0.75 0.4 0  0.775 0.4 0  0.8 0.4 0  0.825 0.4 0  0.85 0.4 0  0.875 0.4 0  0.9 0.4 0  0.925 0.4 0  0.95 0.4 0  0.975 0.4 0  1 0.4 0  0 0.425 0  0.025 0.425 0  0.05 0.425 0  0.075 0.425 0  0.1 0.425 0  0.125 0.425 0  0.15 0.425 0  0.175 0.425 0  0.2 0.425 0  0.225 0.425 0  0.25 0.425 0  0.275 0.425 0  0.3 0.425 0  0.325 0.425 0  0.35 0.425 0  0.375 0.425 0  0.4 0.425 0  0.425 0.425 0  0.45 0.425 0  0.475 0.425 0  0.5 0.425 0  0.525 0.425 0  0.55 0.425 0  0.575 0.425 0  0.6 0.425 0  0.625 0.425 0  0.65 0.425 0  0.675 0.425 0  0.7 0.425 0  0.725 0.425 0  0.75 0.425 0  0.775 0.425 0  0.8 0.425 0  0.825 0.425 0  0.85 0.425 0  0.875 0.425 0  0.9 0.425 0  0.925 0.425 0  0.95 0.425 0  0.975 0.425 0  1 0.425 0  0 0.45 0  0.02
[...]
<PointData  Scalars="ControlVisualisation"> 
<DataArray  type="Float64"  Name="ControlVisualisation"  format="ascii">-7.5926743128666730e-09  -8.3949670744691311e-09  -8.3948279663527029e-09  -8.3949867503677810e-09  -8.3950495343741911e-09  -8.3942084467989930e-09  -8.3924858978457315e-09  -8.3907322421883730e-09  -8.3890888401047221e-09  -8.3874051598181742e-09  -8.3857459399073831e-09  -8.3842870361078744e-09  -8.3831269405171200e-09  -8.3822645317446278e-09  -8.3816489857523111e-09  -8.3812206638514677e-09  -8.3809296029838950e-09  -8.3807398761686475e-09  -8.3806281266397268e-09  -8.3805807444305882e-09  -8.3805915520254646e-09  -8.3806605387165956e-09  -8.3807937195734718e-09  -8.3810040723263537e-09  -8.3813133805260538e-09  -8.3817544153611126e-09  -8.3823716196208709e-09  -8.3832163739547320e-09  -8.3843265866502106e-09  -8.3857013233757673e-09  -8.3872037507556052e-09  -8.3887650020880796e-09  -8.3901834606587027e-09  -8.3917775907367453e-09  -8.3936612905614756e-09  -8.3948715582610640e-09  -8.3950882846704971e-09  -8.3949127938468636e-09  -8.3949126479740704e-09  -8.3950920249095693e-09  -5.1854455285080158e-09  -8.3948286000725603e-09  -9.1972323617911652e-09  -9.1970909340509879e-09  -9.1971560733438530e-09  -9.1970905924517556e-09  -9.1958746560603063e-09  -9.1934757263214838e-09  -9.1898542857623057e-09  -9.1845538749128901e-09  -9.1773793943512963e-09  -9.1690272221765084e-09  -9.1604779833905946e-09  -9.1524743235166874e-09  -9.1454316077704210e-09  -9.1395152231798230e-09  -9.1347452825476160e-09  -9.1310729222087664e-09  -9.1284270448082476e-09  -9.1267397252001659e-09  -9.1259590318220256e-09  -9.1260549527446898e-09  -9.1270214188792558e-09  -9.1288756647220657e-09  -9.1316549359841246e-09  -9.1354094437028587e-09  -9.1401892869504982e-09  -9.1460210843858788e-09  -9.1528684642495819e-09  -9.1605688991118694e-09  -9.1687522727098224e-09  -9.1766921921014934e-09  -9.1835676328038233e-09  -9.1880569855528118e-09  -9.1912430620603115e-09  -9.1944279382056959e-09  -9.1965691067917612e-09  -9.1972760234891119e-09  -9.1972049391119072e-09  -9.1971429571324869e-09  -9.1973377824660736e-09  -8.3950754524453942e-09  -8.3929657409468632e-09  -9.1958847697330492e-09  -9.1960436722480846e-09  -9.1955710207534163e-09  -9.1886971116152088e-09  -9.1573785110249432e-09  -9.1069846011481798e-09  -9.0578577976019092e-09  -8.9789026955468013e-09  -8.8591075866326816e-09  -8.6945901805286493e-09  -8.4812816779940646e-09  -8.2161086990938506e-09  -7.8977613813968129e-09  -7.5296643819056367e-09  -7.1232448307261522e-09  -6.7015748263849369e-09  -6.3014326308748202e-09  -5.9708183874815009e-09  -5.7594302344259414e-09  -5.7035321375414158e-09  -5.8123162978633984e-09  -6.0644282050363634e-09  -6.4169745550647705e-09  -6.8207029255882225e-09  -7.2327255686761810e-09  -7.6225233226421867e-09  -7.9721228379580722e-09  -8.2732939284860920e-09  -8.5242096337076114e-09  -8.7256465147368013e-09  -8.8810890160110077e-09  -8.9862491703648502e-09  -9.0751278364506199e-09  -9.1539984244241536e-09  -9.1876010274412167e-09  -9.1955800335180303e-09  -9.1962862090654978e-09  -9.1959032159437184e-09  -9.1962382315534165e-09  -8.3944135853219448e-09  -8.3834771045532616e-09  -9.1903087409795854e-09  -9.1810380781920087e-09  -9.1235281256830560e-09  -9.0132379503897956e-09  -8.6153614503305843e-09  -4.9005232933983242e-09  9.8184119736467637e-02  2.2600659307312682e-01  3.4731283438780508e-01  4.5623826049563881e-01  5.4818978548354003e-01  6.2322520324351605e-01  6.8282846910250650e-01  7.2917923401379836e-01  7.6445270019594258e-01  7.9058420159237197e-01  8.0915018631187019e-01  8.2132039606686857e-01  8.2788646900497376e-01  8.2929786931079996e-01  8.2568741965039583e-01  8.1688265935084037e-01  8.0240054612438882e-01  7.8142880998641151e-01  7.5279908149812036e-01  7.1497136293839680e-01  6.6607395423059046e-01  6.0399986508084624e-01  5.2661636395553413e-01  4.3243113051979948e-01  3.2150856294114488e-01  2.0000172140883155e-01  7.1091570221788011e-02  -6.1308260598996972e-09  -8.5824841578215089e-09  -9.0276929021360363e-09  -9.1772138921196906e-09  -9.1918576337660037e-09  -9.1907588273849377e-09  -8.3912236814253606e-09  -8.3483359359842634e-09  -9.1601448697171979e-09  -9.0503936691435738e-09  -7.4219752841694925e-09  2.5128113555011877e-01  5.9612546954544399e-01  9.5240000116129686e-01  1.0000000064686116e+00  1.0000000082044489e+00  1.0000000086856222e+00  1.0000000089072452e+00  1.0000000090329899e+00  1.0000000091125318e+00  1.0000000091657977e+00  1.0000000092025907e+00  1.0000000092282959e+00  1.0000000092461339e+00  1.0000000092581156e+00  1.0000000092655053e+00  1.0000000092690615e+00  1.0000000092691665e+00  1.0000000092658863e+00  1.0000000092589842e+00  1.0000000092478869e+00  1.0000000092315979e+00  1.0000000092085259e+00  1.0000000091761698e+00  1.0000000091305055e+00  1.0000000090647017e+00  1.0000000089661014e+00  1.0000000088079011e+00  1.0000000085212384e+00  1.0000000078519220e+00  1.0000000051281752e+00  9.0357593647928725e-01  5.6064100908872483e-01  1.8973187645333645e-01  -7.2711114229733502e-09  -9.0725211763989580e-09  -9.1752240025179309e-09  -8.3773487404540006e-09  -8.2989065371108580e-09  -8.9251259089381060e-09  2.0158014192683976e-01  9.9999999236151182e-01  1.0000000088197516e+00  1.0000000093426509e+00  1.0000000094866517e+00  1.0000000095637880e+00  1.0000000096171264e+00  1.0000000096494006e+00  1.0000000096699431e+00  1.0000000096841108e+00  1.0000000096943831e+00  1.0000000097020341e+00  1.0000000097077864e+00  1.0000000097120907e+00  1.0000000097152504e+00  1.0000000097174779e+00  1.0000000097189210e+00  1.0000000097196773e+00  1.0000000097198025e+00  1.0000000097193147e+00  1.0000000097181956e+00  1.0000000097163906e+00  1.0000000097138031e+00  1.0000000097102890e+00  1.0000000097056398e+00  1.0000000096995534e+00  1.0000000096915720e+00  1.0000000096809458e+00  1.0000000096663237e+00  1.0000000096450314e+00  1.0000000096113508e+00  1.0000000095523283e+00  1.0000000094431138e+00  1.0000000092237713e+00  1.0000000084957443e+00  9.4267032193881040e-01  1.7037946207674545e-01  -9.0043649613538633e-09  -8.1902186196334042e-09  -6.3681600917096461e-09  8.6777452595376348e-01  1.0000000093950363e+00  1.0000000096775916e+00  1.0000000097480477e+00  1.0000000097881341e+00  1.0000000098074462e+00  1.0000000098177710e+00  1.0000000098234525e+00  1.0000000098265462e+00  1.0000000098282926e+00  1.0000000098293913e+00  1.0000000098301931e+00  1.0000000098308501e+00  1.0000000098314139e+00  1.0000000098318940e+00  1.0000000098322857e+00  1.0000000098325825e+00  1.0000000098327797e+00  1.0000000098328747e+00  1.0000000098328670e+00  1.0000000098327568e+00  1.0000000098325466e+00  1.0000000098322392e+00  1.0000000098318413e+00  1.0000000098313619e+00  1.0000000098308137e+00  1.0000000098302078e+00  1.0000000098295430e+00  1.0000000098287778e+00  1.0000000098277735e+00  1.0000000098261979e+00  1.0000000098233868e+00  1.0000000098181683e+00  1.0000000098084554e+00  1.0000000097896680e+00  1.0000000097489830e+00  1.0000000096407962e+00  1.0000000092616468e+00  5.0735414166873738e-01  -8.1317247594208580e-09  1.0000000097141111e+00  1.0000000098503126e+00  1.0000000098840431e+00  1.0000000098954207e+00  1.0000000098980089e+00  1.0000000098968527e+00  1.0000000098942767e+00  1.0000000098913691e+00  1.0000000098885689e+00  1.0000000098860531e+00  1.0000000098839115e+00  1.0000000098821786e+00  1.0000000098808433e+00  1.0000000098798569e+00  1.0000000098791548e+00  1.0000000098786705e+00  1.0000000098783448e+00  1.0000000098781310e+00  1.0000000098779942e+00  1.0000000098779109e+00  1.0000000098778681e+00  1.0000000098778625e+00  1.0000000098778994e+00  1.0000000098779940e+00  1.0000000098781723e+00  1.0000000098784718e+00  1.0000000098789439e+00  1.0000000098796520e+00  1.0000000098806698e+00  1.0000000098820718e+00  1.0000000098839197e+00  1.0000000098862458e+00  1.0000000098890389e+00  1.0000000098922357e+00  1.0000000098956685e+00  1.0000000098989006e+00  1.0000000099008981e+00  1.0000000098993505e+00  1.0000000098882453e+00  1.0000000098525601e+00  1.0000000091748571e+00  1.0000000099387600e+00  1.0000000099616342e+00  1.0000000099568158e+00  1.0000000099499735e+00  1.0000000099424127e+00  1.0000000099348609e+00  1.0000000099278616e+00  1.0000000099217299e+00  1.0000000099165611e+00  1.0000000099123214e+00  1.0000000099089172e+00  1.0000000099062389e+00  1.0000000099041748e+00  1.0000000099026161e+00  1.0000000099014625e+00  1.0000000099006259e+00  1.0000000099000326e+00  1.0000000098996247e+00  1.0000000098993593e+00  1.0000000098992072e+00  1.0000000098991517e+00  1.0000000098991877e+00  1.0000000098993216e+00  1.0000000098995714e+00  1.0000000098999677e+00  1.0000000099005559e+00  1.0000000099013955e+00  1.0000000099025634e+00  1.0000000099041515e+00  1.0000000099062667e+00  1.0000000099090256e+00  1.0000000099125506e+00  1.0000000099169617e+00  1.0000000099223563e+00  1.0000000099287658e+00  1.0000000099360782e+00  1.0000000099439559e+00  1.0000000099517976e+00  1.0000000099587263e+00  1.0000000099636053e+00  1.0000000099127804e+00  1.0000000099657482e+00  1.0000000099796484e+00  1.0000000099743356e+00  1.0000000099669684e+00  1.0000000099585815e+00  1.0000000099500468e+00  1.0000000099420523e+00  1.0000000099349986e+00  1.0000000099290411e+00  1.0000000099241646e+00  1.0000000099202628e+00  1.0000000099171964e+00  1.0000000099148247e+00  1.0000000099130191e+00  1.0000000099116657e+00  1.0000000099106694e+00  1.0000000099099522e+00  1.0000000099094533e+00  1.0000000099091269e+00  1.0000000099089421e+00  1.0000000099088810e+00  1.0000000099089381e+00  1.0000000099091197e+00  1.0000000099094444e+00  1.0000000099099440e+00  1.0000000099106647e+00  1.0000000099116682e+00  1.0000000099130333e+00  1.0000000099148572e+00  1.0000000099172550e+00  1.0000000099203599e+00  1.0000000099243165e+00  1.0000000099292672e+00  1.0000000099353186e+00  1.0000000099424808e+00  1.0000000099505824e+00  1.0000000099591946e+00  1.0000000099676125e+00  1.0000000099749080e+00  1.0000000099800226e+00  1.0000000099611077e+00  1.0000000099697355e+00  1.0000000099831041e+00  1.0000000099782620e+00  1.0000000099712374e+00  1.0000000099629289e+00  1.0000000099542792e+00  1.0000000099460526e+00  1.0000000099387227e+00  1.0000000099324962e+00  1.0000000099273820e+00  1.0000000099232795e+00  1.0000000099200459e+00  1.0000000099175337e+00  1.0000000099156083e+00  1.0000000099141539e+00  1.0000000099130739e+00  1.0000000099122899e+00  1.0000000099117405e+00  1.0000000099113802e+00  1.0000000099111777e+00  1.0000000099111146e+00  1.0000000099111852e+00  1.0000000099113955e+00  1.0000000099117639e+00  1.0000000099123219e+00  1.0000000099131148e+00  1.0000000099142030e+00  1.0000000099156643e+00  1.0000000099175939e+00  1.0000000099201067e+00  1.0000000099233366e+00  1.0000000099274304e+00  1.0000000099325326e+00  1.0000000099387458e+00  1.0000000099460635e+00  1.0000000099542818e+00  1.0000000099629280e+00  1.0000000099712367e+00  1.0000000099782624e+00  1.0000000099831052e+00  1.0000000099697366e+00  1.0000000099610991e+00  1.0000000099800037e+00  1.0000000099748474e+00  1.0000000099674791e+00  1.0000000099589541e+00  1.0000000099502022e+00  1.0000000099419384e+00  1.0000000099346029e+00  1.0000000099283777e+00  1.0000000099232564e+00  1.0000000099191331e+00  1.0000000099158644e+00  1.0000000099133073e+00  1.0000000099113326e+00  1.0000000099098292e+00  1.0000000099087036e+00  1.0000000099078810e+00  1.0000000099073012e+00  1.0000000099069204e+00  1.0000000099067077e+00  1.0000000099066451e+00  1.0000000099067270e+00  1.0000000099069586e+00  1.0000000099073580e+00  1.0000000099079549e+00  1.0000000099087925e+00  1.0000000099099282e+00  1.0000000099114346e+00  1.0000000099134005e+00  1.0000000099159327e+00  1.0000000099191551e+00  1.0000000099232058e+00  1.0000000099282267e+00  1.0000000099343282e+00  1.0000000099415276e+00  1.0000000099496653e+00  1.0000000099583319e+00  1.0000000099668271e+00  1.0000000099742727e+00  1.0000000099796313e+00  1.0000000099657440e+00  1.0000000099127220e+00  1.0000000099635165e+00  1.0000000099584807e+00  1.0000000099513335e+00  1.0000000099432083e+00  1.0000000099349904e+00  1.0000000099273025e+00  1.0000000099205075e+00  1.0000000099147328e+00  1.0000000099099482e+00  1.0000000099060493e+00  1.0000000099029143e+00  1.0000000099004260e+00  1.0000000098984787e+00  1.0000000098969781e+00  1.0000000098958430e+00  1.0000000098950059e+00  1.0000000098944126e+00  1.0000000098940223e+00  1.0000000098938064e+00  1.0000000098937485e+00  1.0000000098938429e+00  1.0000000098940942e+00  1.0000000098945185e+00  1.0000000098951429e+00  1.0000000098960060e+00  1.0000000098971580e+00  1.0000000098986619e+00  1.0000000099005919e+00  1.0000000099030328e+00  1.0000000099060797e+00  1.0000000099098367e+00  1.0000000099144171e+00  1.0000000099199253e+00  1.0000000099264024e+00  1.0000000099337460e+00  1.0000000099416224e+00  1.0000000099494690e+00  1.0000000099565436e+00  1.0000000099615340e+00  1.0000000099387323e+00  1.0000000091738266e+00  1.0000000098515958e+00  1.0000000098867026e+00  1.0000000098973865e+00  1.0000000098983959e+00  1.0000000098957638e+00  1.0000000098918433e+00  1.0000000098877193e+00  1.0000000098838464e+00  1.0000000098803716e+00  1.0000000098773358e+00  1.0000000098747501e+00  1.0000000098726041e+00  1.0000000098708655e+00  1.0000000098694886e+00  1.0000000098684241e+00  1.0000000098676254e+00  1.0000000098670527e+00  1.0000000098666757e+00  1.0000000098664721e+00  1.0000000098664288e+00  1.0000000098665414e+00  1.0000000098668129e+00  1.0000000098672555e+00  1.0000000098678881e+00  1.0000000098687383e+00  1.0000000098698407e+00  1.0000000098712352e+00  1.0000000098729611e+00  1.0000000098750508e+00  1.0000000098775161e+00  1.0000000098803434e+00  1.0000000098834920e+00  1.0000000098869024e+00  1.0000000098904271e+00  1.0000000098936228e+00  1.0000000098953619e+00  1.0000000098932968e+00  1.0000000098825466e+00  1.0000000098492714e+00  1.0000000097135369e+00  -8.1317466829138714e-09  4.9134724571133670e-01  1.0000000092351609e+00  1.0000000096256110e+00  1.0000000097358090e+00  1.0000000097772461e+00  1.0000000097956809e+00  1.0000000098046937e+00  1.0000000098090338e+00  1.0000000098107422e+00  1.0000000098109831e+00  1.0000000098104966e+00  1.0000000098097179e+00  1.0000000098088777e+00  1.0000000098080895e+00  1.0000000098074058e+00  1.0000000098068498e+00  1.0000000098064314e+00  1.0000000098061541e+00  1.0000000098060191e+00  1.0000000098060262e+00  1.0000000098061743e+00  1.0000000098064625e+00  1.0000000098068882e+00  1.0000000098074466e+00  1.0000000098081299e+00  1.0000000098089217e+00  1.0000000098097908e+00  1.0000000098106754e+00  1.0000000098114461e+00  1.0000000098118549e+00  1.0000000098114319e+00  1.0000000098093706e+00  1.0000000098044448e+00  1.0000000097946622e+00  1.0000000097755966e+00  1.0000000097352011e+00  1.0000000096643054e+00  1.0000000093710038e+00  8.4301026920391386e-01  -6.3890836265963725e-09  -8.2092462221745136e-09  -9.0109014825298930e-09  1.5097986962252025e-01  8.8176500843901495e-01  1.0000000082499731e+00  1.0000000091295793e+00  1.0000000093647707e+00  1.0000000094780963e+00  1.0000000095449209e+00  1.0000000095804280e+00  1.0000000096005213e+00  1.0000000096124921e+00  1.0000000096198682e+00  1.0000000096244666e+00  1.0000000096273141e+00  1.0000000096290431e+00  1.0000000096300705e+00  1.0000000096306803e+00  1.0000000096310671e+00  1.0000000096313575e+00  1.0000000096316222e+00  1.0000000096318835e+00  1.0000000096321153e+00  1.0000000096322426e+00  1.0000000096321344e+00  1.0000000096315933e+00  1.0000000096303336e+00  1.0000000096279433e+00  1.0000000096238153e+00  1.0000000096169586e+00  1.0000000096057069e+00  1.0000000095866772e+00  1.0000000095530157e+00  1.0000000095041903e+00  1.0000000094277832e+00  1.0000000092595147e+00  1.0000000086063916e+00  9.8221693921989661e-01  1.7625035643222112e-01  -8.9379661517244949e-09  -8.2994586254308616e-09  -8.3864632055244500e-09  -9.1794682270279836e-09  -9.0742262486779479e-09  -7.6704640683599156e-09  1.4598789964742820e-01  4.7218392023976291e-01  7.6367880281723777e-01  9.9999995548941933e-01  1.0000000054287352e+00  1.0000000074257078e+00  1.0000000080288853e+00  1.0000000083112517e+00  1.0000000084678744e+00  1.0000000085621223e+00  1.0000000086211798e+00  1.0000000086588372e+00  1.0000000086829806e+00  1.0000000086984508e+00  1.0000000087083309e+00  1.0000000087145660e+00  1.0000000087182694e+00  1.0000000087198748e+00  1.0000000087191936e+00  1.0000000087153944e+00  1.0000000087069068e+00  1.0000000086911967e+00  1.0000000086642797e+00  1.0000000086197494e+00  1.0000000085468608e+00  1.0000000084245471e+00  1.0000000082085925e+00  1.0000000077528570e+00  1.0000000065079357e+00  9.9999999526485639e-01  7.9708122867722364e-01  5.1362709833446096e-01  2.0024915103473287e-01  -7.8307480170709976e-09  -9.0607609747197201e-09  -9.1653951860832337e-09  -8.3615005352923047e-09  -8.3945385812551049e-09  -9.1941208558565735e-09  -9.1870965445222263e-09  -9.1661815747352530e-09  -9.0372371928585292e-09  -8.7260304936522057e-09  -7.7669813594062355e-09  2.8926453060586413e-08  8.2750555182806759e-02  1.6250841715019290e-01  2.2951237446210068e-01  2.8436287127175847e-01  3.2729224920775829e-01  3.5938269479509038e-01  3.8259699081038873e-01  3.9893801327065387e-01  4.1013574591382934e-01  4.1762295895128781e-01  4.2245703105937887e-01  4.2537583986143346e-01  4.2681704774029572e-01  4.2692770023453586e-01  4.2557566108595990e-01  4.2233677988502927e-01  4.1647734276004972e-01  4.0694972847772293e-01  3.9231261459617967e-01  3.7070312097821456e-01  3.4011551016042946e-01  2.9867910459983305e-01  2.4551397537840852e-01  1.7751813833044430e-01  1.0404930184548886e-01  1.1468003578270181e-02  -7.5920205039021594e-09  -8.7517229758334872e-09  -9.0191483201223088e-09  -9.1141979652996740e-09  -9.1756545949171832e-09  -9.1926705333788280e-09  -8.3901168045070542e-09  -8.3941375094195835e-09  -9.1957878940562593e-09  -9.1917746457341773e-09  -9.1871372991967106e-09  -9.1823846876451155e-09  -9.1738288143661271e-09  -9.1522025531682497e-09  -9.1053828745782540e-09  -9.0502312946498281e-09  -9.0106236339099726e-09  -8.9593573255992654e-09  -8.9056334364739197e-09  -8.8556172040245914e-09  -8.8127436016045337e-09  -8.7784020750563918e-09  -8.7522946610157015e-09  -8.7333323432443485e-09  -8.7201035976962867e-09  -8.7112857329113604e-09  -8.7058475857698115e-09  -8.7031501738419634e-09  -8.7029982772779372e-09  -8.7056534222027046e-09  -8.7118283909866831e-09  -8.7226519918922499e-09  -8.7395606768419982e-09  -8.7640774455153036e-09  -8.7974520562895574e-09  -8.8400943682605923e-09  -8.8907471471800615e-09  -8.9464440031091755e-09  -9.0010425913280645e-09  -9.0503867336240490e-09  -9.0772503686912399e-09  -9.1083863850267243e-09  -9.1518348875639402e-09  -9.1750459853682148e-09  -9.1856264893537442e-09  -9.1913358268145143e-09  -9.1955394100330843e-09  -8.3947124350644420e-09  -8.3928660444243020e-09  -9.1948465407909739e-09  -9.1927125606846210e-09  -9.1899945674412197e-09  -9.1870960139722541e-09  -9.1841969055427880e-09  -9.1818106517918543e-09  -9.1809273939233820e-09  -9.1813467378124318e-09  -9.1806361968023045e-09  -9.1782513016666881e-09  -9.1757634241201760e-09  -9.1735704230979105e-09  -9.1718126149412071e-09  -9.1704990613981351e-09  -9.1695634049861390e-09  -9.1689247152746627e-09  -9.1685021170961997e-09  -9.1682276111431200e-09  -9.1680496448303163e-09  -9.1679341664271877e-09  -9.1678649231637138e-09  -9.1678432779425137e-09  -9.1678885119328784e-09  -9.1680385031890878e-09  -9.1683502263726675e-09  -9.1688989711164380e-09  -9.1697741716331060e-09  -9.1710652567931414e-09  -9.1728324171245230e-09  -9.1750428264776244e-09  -9.1775248670285629e-09  -9.1796997855783628e-09  -9.1811075331961170e-09  -9.1811533742432440e-09  -9.1829460122486138e-09  -9.1859447327102726e-09  -9.1891603084458088e-09  -9.19216572927915