<?xml version="1.0"?>
<VTKFile type="UnstructuredGrid"  version="0.1"  >
<UnstructuredGrid>
<Piece  NumberOfPoints="1681" NumberOfCells="3200">
<Points>
<DataArray  type="Float64"  NumberOfComponents="3"  format="ascii">0 0 0  0.025 0 0  0.05 0 0  0.075 0 0  0.1 0 0  0.125 0 0  0.15 0 0  0.175 0 0  0.2 0 0  0.225 0 0  0.25 0 0  0.275 0 0  0.3 0 0  0.325 0 0  0.35 0 0  0.375 0 0  0.4 0 0  0.425 0 0  0.45 0 0  0.475 0 0  0.5 0 0  0.525 0 0  0.55 0 0  0.575 0 0  0.6 0 0  0.625 0 0  0.65 0 0  0.675 0 0  0.7 0 0  0.725 0 0  0.75 0 0  0.775 0 0  0.8 0 0  0.825 0 0  0.85 0 0  0.875 0 0  0.9 0 0  0.925 0 0  0.95 0 0  0.975 0 0  1 0 0  0 0.025 0  0.025 0.025 0  0.05 0.025 0  0.075 0.025 0  0.1 0.025 0  0.125 0.025 0  0.15 0.025 0  0.175 0.025 0  0.2 0.025 0  0.225 0.025 0  0.25 0.025 0  0.275 0.025 0  0.3 0.025 0  0.325 0.025 0  0.35 0.025 0  0.375 0.025 0  0.4 0.025 0  0.425 0.025 0  0.45 0.025 0  0.475 0.025 0  0.5 0.025 0  0.525 0.025 0  0.55 0.025 0  0.575 0.025 0  0.6 0.025 0  0.625 0.025 0  0.65 0.025 0  0.675 0.025 0  0.7 0.025 0  0.725 0.025 0  0.75 0.025 0  0.775 0.025 0  0.8 0.025 0  0.825 0.025 0  0.85 0.025 0  0.875 0.025 0  0.9 0.025 0  0.925 0.025 0  0.95 0.025 0  0.975 0.025 0  1 0.025 0  0 0.05 0  0.025 0.05 0  0.05 0.05 0  0.075 0.05 0  0.1 0.05 0  0.125 0.05 0  0.15 0.05 0  0.175 0.05 0  0.2 0.05 0  0.225 0.05 0  0.25 0.05 0  0.275 0.05 0  0.3 0.05 0  0.325 0.05 0  0.35 0.05 0  0.375 0.05 0  0.4 0.05 0  0.425 0.05 0  0.45 0.05 0  0.475 0.05 0  0.5 0.05 0  0.525 0.05 0  0.55 0.05 0  0.575 0.05 0  0.6 0.05 0  0.625 0.05 0  0.65 0.05 0  0.675 0.05 0  0.7 0.05 0  0.725 0.05 0  0.75 0.05 0  0.775 0.05 0  0.8 0.05 0  0.825 0.05 0  0.85 0.05 0  0.875 0.05 0  0.9 0.05 0  0.925 0.05 0  0.95 0.05 0  0.975 0.05 0  1 0.05 0  0 0.075 0  0.025 0.075 0  0.05 0.075 0  0.075 0.075 0  0.1 0.075 0  0.125 0.075 0  0.15 0.075 0  0.175 0.075 0  0.2 0.075 0  0.225 0.075 0  0.25 0.075 0  0.275 0.075 0  0.3 0.075 0  0.325 0.075 0  0.35 0.075 0  0.375 0.075 0  0.4 0.075 0  0.425 0.075 0  0.45 0.075 0  0.475 0.075 0  0.5 0.075 0  0.525 0.075 0  0.55 0.075 0  0.575 0.075 0  0.6 0.075 0  0.625 0.075 0  0.65 0.075 0  0.675 0.075 0  0.7 0.075 0  0.725 0.075 0  0.75 0.075 0  0.775 0.075 0  0.8 0.075 0  0.825 0.075 0  0.85 0.075 0  0.875 0.075 0  0.9 0.075 0  0.925 0.075 0  0.95 0.075 0  0.975 0.075 0  1 0.075 0  0 0.1 0  0.025 0.1 0  0.05 0.1 0  0.075 0.1 0  0.1 0.1 0  0.125 0.1 0  0.15 0.1 0  0.175 0.1 0  0.2 0.1 0  0.225 0.1 0  0.25 0.1 0  0.275 0.1 0  0.3 0.1 0  0.325 0.1 0  0.35 0.1 0  0.375 0.1 0  0.4 0.1 0  0.425 0.1 0  0.45 0.1 0  0.475 0.1 0  0.5 0.1 0  0.525 0.1 0  0.55 0.1 0  0.575 0.1 0  0.6 0.1 0  0.625 0.1 0  0.65 0.1 0  0.675 0.1 0  0.7 0.1 0  0.725 0.1 0  0.75 0.1 0  0.775 0.1 0  0.8 0.1 0  0.825 0.1 0  0.85 0.1 0  0.875 0.1 0  0.9 0.1 0  0.925 0.1 0  0.95 0.1 0  0.975 0.1 0  1 0.1 0  0 0.125 0  0.025 0.125 0  0.05 0.125 0  0.075 0.125 0  0.1 0.125 0  0.125 0.125 0  0.15 0.125 0  0.175 0.125 0  0.2 0.125 0  0.225 0.125 0  0.25 0.125 0  0.275 0.125 0  0.3 0.125 0  0.325 0.125 0  0.35 0.125 0  0.375 0.125 0  0.4 0.125 0  0.425 0.125 0  0.45 0.125 0  0.475 0.125 0  0.5 0.125 0  0.525 0.125 0  0.55 0.125 0  0.575 0.125 0  0.6 0.125 0  0.625 0.125 0  0.65 0.125 0  0.675 0.125 0  0.7 0.125 0  0.725 0.125 0  0.75 0.125 0  0.775 0.125 0  0.8 0.125 0  0.825 0.125 0  0.85 0.125 0  0.875 0.125 0  0.9 0.125 0  0.925 0.125 0  0.95 0.125 0  0.975 0.125 0  1 0.125 0  0 0.15 0  0.025 0.15 0  0.05 0.15 0  0.075 0.15 0  0.1 0.15 0  0.125 0.15 0  0.15 0.15 0  0.175 0.15 0  0.2 0.15 0  0.225 0.15 0  0.25 0.15 0  0.275 0.15 0  0.3 0.15 0  0.325 0.15 0  0.35 0.15 0  0.375 0.15 0  0.4 0.15 0  0.425 0.15 0  0.45 0.15 0  0.475 0.15 0  0.5 0.15 0  0.525 0.15 0  0.55 0.15 0  0.575 0.15 0  0.6 0.15 0  0.625 0.15 0  0.65 0.15 0  0.675 0.15 0  0.7 0.15 0  0.725 0.15 0  0.75 0.15 0  0.775 0.15 0  0.8 0.15 0  0.825 0.15 0  0.85 0.15 0  0.875 0.15 0  0.9 0.15 0  0.925 0.15 0  0.95 0.15 0  0.975 0.15 0  1 0.15 0  0 0.175 0  0.025 0.175 0  0.05 0.175 0  0.075 0.175 0  0.1 0.175 0  0.125 0.175 0  0.15 0.175 0  0.175 0.175 0  0.2 0.175 0  0.225 0.175 0  0.25 0.175 0  0.275 0.175 0  0.3 0.175 0  0.325 0.175 0  0.35 0.175 0  0.375 0.175 0  0.4 0.175 0  0.425 0.175 0  0.45 0.175 0  0.475 0.175 0  0.5 0.175 0  0.525 0.175 0  0.55 0.175 0  0.575 0.175 0  0.6 0.175 0  0.625 0.175 0  0.65 0.175 0  0.675 0.175 0  0.7 0.175 0  0.725 0.175 0  0.75 0.175 0  0.775 0.175 0  0.8 0.175 0  0.825 0.175 0  0.85 0.175 0  0.875 0.175 0  0.9 0.175 0  0.925 0.175 0  0.95 0.175 0  0.975 0.175 0  1 0.175 0  0 0.2 0  0.025 0.2 0  0.05 0.2 0  0.075 0.2 0  0.1 0.2 0  0.125 0.2 0  0.15 0.2 0  0.175 0.2 0  0.2 0.2 0  0.225 0.2 0  0.25 0.2 0  0.275 0.2 0  0.3 0.2 0  0.325 0.2 0  0.35 0.2 0  0.375 0.2 0  0.4 0.2 0  0.425 0.2 0  0.45 0.2 0  0.475 0.2 0  0.5 0.2 0  0.525 0.2 0  0.55 0.2 0  0.575 0.2 0  0.6 0.2 0  0.625 0.2 0  0.65 0.2 0  0.675 0.2 0  0.7 0.2 0  0.725 0.2 0  0.75 0.2 0  0.775 0.2 0  0.8 0.2 0  0.825 0.2 0  0.85 0.2 0  0.875 0.2 0  0.9 0.2 0  0.925 0.2 0  0.95 0.2 0  0.975 0.2 0  1 0.2 0  0 0.225 0  0.025 0.225 0  0.05 0.225 0  0.075 0.225 0  0.1 0.225 0  0.125 0.225 0  0.15 0.225 0  0.175 0.225 0  0.2 0.225 0  0.225 0.225 0  0.25 0.225 0  0.275 0.225 0  0.3 0.225 0  0.325 0.225 0  0.35 0.225 0  0.375 0.225 0  0.4 0.225 0  0.425 0.225 0  0.45 0.225 0  0.475 0.225 0  0.5 0.225 0  0.525 0.225 0  0.55 0.225 0  0.575 0.225 0  0.6 0.225 0  0.625 0.225 0  0.65 0.225 0  0.675 0.225 0  0.7 0.225 0  0.725 0.225 0  0.75 0.225 0  0.775 0.225 0  0.8 0.225 0  0.825 0.225 0  0.85 0.225 0  0.875 0.225 0  0.9 0.225 0  0.925 0.225 0  0.95 0.225 0  0.975 0.225 0  1 0.225 0  0 0.25 0  0.025 0.25 0  0.05 0.25 0  0.075 0.25 0  0.1 0.25 0  0.125 0.25 0  0.15 0.25 0  0.175 0.25 0  0.2 0.25 0  0.225 0.25 0  0.25 0.25 0  0.275 0.25 0  0.3 0.25 0  0.325 0.25 0  0.35 0.25 0  0.375 0.25 0  0.4 0.25 0  0.425 0.25 0  0.45 0.25 0  0.475 0.25 0  0.5 0.25 0  0.525 0.25 0  0.55 0.25 0  0.575 0.25 0  0.6 0.25 0  0.625 0.25 0  0.65 0.25 0  0.675 0.25 0  0.7 0.25 0  0.725 0.25 0  0.75 0.25 0  0.775 0.25 0  0.8 0.25 0  0.825 0.25 0  0.85 0.25 0  0.875 0.25 0  0.9 0.25 0  0.925 0.25 0  0.95 0.25 0  0.975 0.25 0  1 0.25 0  0 0.275 0  0.025 0.275 0  0.05 0.275 0  0.075 0.275 0  0.1 0.275 0  0.125 0.275 0  0.15 0.275 0  0.175 0.275 0  0.2 0.275 0  0.225 0.275 0  0.25 0.275 0  0.275 0.275 0  0.3 0.275 0  0.325 0.275 0  0.35 0.275 0  0.375 0.275 0  0.4 0.275 0  0.425 0.275 0  0.45 0.275 0  0.475 0.275 0  0.5 0.275 0  0.525 0.275 0  0.55 0.275 0  0.575 0.275 0  0.6 0.275 0  0.625 0.275 0  0.65 0.275 0  0.675 0.275 0  0.7 0.275 0  0.725 0.275 0  0.75 0.275 0  0.775 0.275 0  0.8 0.275 0  0.825 0.275 0  0.85 0.275 0  0.875 0.275 0  0.9 0.275 0  0.925 0.275 0  0.95 0.275 0  0.975 0.275 0  1 0.275 0  0 0.3 0  0.025 0.3 0  0.05 0.3 0  0.075 0.3 0  0.1 0.3 0  0.125 0.3 0  0.15 0.3 0  0.175 0.3 0  0.2 0.3 0  0.225 0.3 0  0.25 0.3 0  0.275 0.3 0  0.3 0.3 0  0.325 0.3 0  0.35 0.3 0  0.375 0.3 0  0.4 0.3 0  0.425 0.3 0  0.45 0.3 0  0.475 0.3 0  0.5 0.3 0  0.525 0.3 0  0.55 0.3 0  0.575 0.3 0  0.6 0.3 0  0.625 0.3 0  0.65 0.3 0  0.675 0.3 0  0.7 0.3 0  0.725 0.3 0  0.75 0.3 0  0.775 0.3 0  0.8 0.3 0  0.825 0.3 0  0.85 0.3 0  0.875 0.3 0  0.9 0.3 0  0.925 0.3 0  0.95 0.3 0  0.975 0.3 0  1 0.3 0  0 0.325 0  0.025 0.325 0  0.05 0.325 0  0.075 0.325 0  0.1 0.325 0  0.125 0.325 0  0.15 0.325 0  0.175 0.325 0  0.2 0.325 0  0.225 0.325 0  0.25 0.325 0  0.275 0.325 0  0.3 0.325 0  0.325 0.325 0  0.35 0.325 0  0.375 0.325 0  0.4 0.325 0  0.425 0.325 0  0.45 0.325 0  0.475 0.325 0  0.5 0.325 0  0.525 0.325 0  0.55 0.325 0  0.575 0.325 0  0.6 0.325 0  0.625 0.325 0  0.65 0.325 0  0.675 0.325 0  0.7 0.325 0  0.725 0.325 0  0.75 0.325 0  0.775 0.325 0  0.8 0.325 0  0.825 0.325 0  0.85 0.325 0  0.875 0.325 0  0.9 0.325 0  0.925 0.325 0  0.95 0.325 0  0.975 0.325 0  1 0.325 0  0 0.35 0  0.025 0.35 0  0.05 0.35 0  0.075 0.35 0  0.1 0.35 0  0.125 0.35 0  0.15 0.35 0  0.175 0.35 0  0.2 0.35 0  0.225 0.35 0  0.25 0.35 0  0.275 0.35 0  0.3 0.35 0  0.325 0.35 0  0.35 0.35 0  0.375 0.35 0  0.4 0.35 0  0.425 0.35 0  0.45 0.35 0  0.475 0.35 0  0.5 0.35 0  0.525 0.35 0  0.55 0.35 0  0.575 0.35 0  0.6 0.35 0  0.625 0.35 0  0.65 0.35 0  0.675 0.35 0  0.7 0.35 0  0.725 0.35 0  0.75 0.35 0  0.775 0.35 0  0.8 0.35 0  0.825 0.35 0  0.85 0.35 0  0.875 0.35 0  0.9 0.35 0  0.925 0.35 0  0.95 0.35 0  0.975 0.35 0  1 0.35 0  0 0.375 0  0.025 0.375 0  0.05 0.375 0  0.075 0.375 0  0.1 0.375 0  0.125 0.375 0  0.15 0.375 0  0.175 0.375 0  0.2 0.375 0  0.225 0.375 0  0.25 0.375 0  0.275 0.375 0  0.3 0.375 0  0.325 0.375 0  0.35 0.375 0  0.375 0.375 0  0.4 0.375 0  0.425 0.375 0  0.45 0.375 0  0.475 0.375 0  0.5 0.375 0  0.525 0.375 0  0.55 0.375 0  0.575 0.375 0  0.6 0.375 0  0.625 0.375 0  0.65 0.375 0  0.675 0.375 0  0.7 0.375 0  0.725 0.375 0  0.75 0.375 0  0.775 0.375 0  0.8 0.375 0  0.825 0.375 0  0.85 0.375 0  0.875 0.375 0  0.9 0.375 0  0.925 0.375 0  0.95 0.375 0  0.975 0.375 0  1 0.375 0  0 0.4 0  0.025 0.4 0  0.05 0.4 0  0.075 0.4 0  0.1 0.4 0  0.125 0.4 0  0.15 0.4 0  0.175 0.4 0  0.2 0.4 0  0.225 0.4 0  0.25 0.4 0  0.275 0.4 0  0.3 0.4 0  0.325 0.4 0  0.35 0.4 0  0.375 0.4 0  0.4 0.4 0  0.425 0.4 0  0.45 0.4 0  0.475 0.4 0  0.5 0.4 0  0.525 0.4 0  0.55 0.4 0  0.575 0.4 0  0.6 0.4 0  0.625 0.4 0  0.65 0.4 0  0.675 0.4 0  0.7 0.4 0  0.725 0.4 0  0.75 0.4 0  0.775 0.4 0  0.8 0.4 0  0.825 0.4 0  0.85 0.4 0  0.875 0.4 0  0.9 0.4 0  0.925 0.4 0  0.95 0.4 0  0.975 0.4 0  1 0.4 0  0 0.425 0  0.025 0.425 0  0.05 0.425 0  0.075 0.425 0  0.1 0.425 0  0.125 0.425 0  0.15 0.425 0  0.175 0.425 0  0.2 0.425 0  0.225 0.425 0  0.25 0.425 0  0.275 0.425 0  0.3 0.425 0  0.325 0.425 0  0.35 0.425 0  0.375 0.425 0  0.4 0.425 0  0.425 0.425 0  0.45 0.425 0  0.475 0.425 0  0.5 0.425 0  0.525 0.425 0  0.55 0.425 0  0.575 0.425 0  0.6 0.425 0  0.625 0.425 0  0.65 0.425 0  0.675 0.425 0  0.7 0.425 0  0.725 0.425 0  0.75 0.425 0  0.775 0.425 0  0.8 0.425 0  0.825 0.425 0  0.85 0.425 0  0.875 0.425 0  0.9 0.425 0  0.925 0.425 0  0.95 0.425 0  0.975 0.425 0  1 0.425 0  0 0.45 0  0.02
[...]
<PointData  Scalars="ControlVisualisation"> 
<DataArray  type="Float64"  Name="ControlVisualisation"  format="ascii">3.2250092732246327e-01  2.6375469161371262e-01  2.6375137503808976e-01  2.6371477569164953e-01  2.6364261445631210e-01  2.6353856791621155e-01  2.6340656389091066e-01  2.6325091137107248e-01  2.6307647589587702e-01  2.6288864010043861e-01  2.6269312470591527e-01  2.6249578700640008e-01  2.6230242660013059e-01  2.6211860989925878e-01  2.6194951858768822e-01  2.6179982349680669e-01  2.6167358335136615e-01  2.6157416637698161e-01  2.6150419195944635e-01  2.6146548933014091e-01  2.6145907053861206e-01  2.6148511563808102e-01  2.6154296893389645e-01  2.6163114620785055e-01  2.6174735391378195e-01  2.6188852231811877e-01  2.6205085532083361e-01  2.6222990009638686e-01  2.6242063962354700e-01  2.6261761052825366e-01  2.6281504730325000e-01  2.6300705211768527e-01  2.6318778615097316e-01  2.6335167356964506e-01  2.6349359813300804e-01  2.6360902428779226e-01  2.6369393942244529e-01  2.6374460107670650e-01  2.6375967596541444e-01  2.6375044826646044e-01  4.0033617897996204e-01  2.6375476537674081e-01  1.6250957763941523e-01  1.6238054849425762e-01  1.6208164173689096e-01  1.6158962042862132e-01  1.6091852974542584e-01  1.6009401893913427e-01  1.5914541960681319e-01  1.5810466693749228e-01  1.5700523321881249e-01  1.5588078461350413e-01  1.5476392688244070e-01  1.5368518024726330e-01  1.5267224015695077e-01  1.5174951414076449e-01  1.5093789375898839e-01  1.5025470609555161e-01  1.4971378524184673e-01  1.4932560782399326e-01  1.4909744476464740e-01  1.4903349188206472e-01  1.4913495311570293e-01  1.4940006134415729e-01  1.4982403273657113e-01  1.5039896150853926e-01  1.5111367306258214e-01  1.5195356487668352e-01  1.5290047579525790e-01  1.5393263457618933e-01  1.5502474590188886e-01  1.5614827391963043e-01  1.5727197698571552e-01  1.5836272736772583e-01  1.5938661584454911e-01  1.6031027243350759e-01  1.6110222483569211e-01  1.6173419376449574e-01  1.6218310460821830e-01  1.6244095737301906e-01  1.6253485466457990e-01  2.6375046177477873e-01  2.6375186237136122e-01  1.6237965136061577e-01  1.6193631172900533e-01  1.6121233919649994e-01  1.6013270129255816e-01  1.5870145418000672e-01  1.5697066557867745e-01  1.5500761621211509e-01  1.5288499969734512e-01  1.5067581198360208e-01  1.4844981866080084e-01  1.4627090758852904e-01  1.4419539259654632e-01  1.4227122759375338e-01  1.4053796697577497e-01  1.3902726043689700e-01  1.3776366718034116e-01  1.3676560190478623e-01  1.3604626509129494e-01  1.3561445125640081e-01  1.3547516448268085e-01  1.3562999834234885e-01  1.3607725789172462e-01  1.3681181710208215e-01  1.3782471917418898e-01  1.3910254316092055e-01  1.4062658141648082e-01  1.4237190089650409e-01  1.4430639763890091e-01  1.4638999530125638e-01  1.4857417829463948e-01  1.5080207629339118e-01  1.5300931125246603e-01  1.5512576918572563e-01  1.5707835048466084e-01  1.5879476005017015e-01  1.6020912347997501e-01  1.6127421544608728e-01  1.6199604290185626e-01  1.6244093512159091e-01  2.6375991959028966e-01  2.6371550286288925e-01  1.6207256508539911e-01  1.6119249462940419e-01  1.6018537140773312e-01  1.5885717578396066e-01  1.5714570588517385e-01  1.5509371623988077e-01  1.5277826422320090e-01  1.5028629429861770e-01  1.4770486768481195e-01  1.4511607301808221e-01  1.4259377541259582e-01  1.4020181226909553e-01  1.3799337847881321e-01  1.3601133000982085e-01  1.3428910346698988e-01  1.3285196624609427e-01  1.3171836209832022e-01  1.3090117759406042e-01  1.3040881171174137e-01  1.3024597609750371e-01  1.3041418572418645e-01  1.3091192069227453e-01  1.3173445368395220e-01  1.3287334892297240e-01  1.3431565243139235e-01  1.3604281469961396e-01  1.3802941949255193e-01  1.4024183824848671e-01  1.4263698656323531e-01  1.4516141977520713e-01  1.4775105438394626e-01  1.5033181867950904e-01  1.5282151379945014e-01  1.5513314445151954e-01  1.5718037884086700e-01  1.5888811775527772e-01  1.6022054065724267e-01  1.6125688264506902e-01  1.6217854602379464e-01  2.6374551653392642e-01  2.6364105352948275e-01  1.6154929647555610e-01  1.6004140330109670e-01  1.5877213927862538e-01  1.5733436323962291e-01  1.5554736540269595e-01  1.5342173789856051e-01  1.5102921314480752e-01  1.4845802760137486e-01  1.4579788249867487e-01  1.4313337803588969e-01  1.4054037232915764e-01  1.3808410768789511e-01  1.3581864115986755e-01  1.3378724799581873e-01  1.3202345935213514e-01  1.3055242866907349e-01  1.2939237953710503e-01  1.2855595492698507e-01  1.2805134877021143e-01  1.2788314855210758e-01  1.2805285052546095e-01  1.2855902979053543e-01  1.2939716024287912e-01  1.3055908950385753e-01  1.3203218688465068e-01  1.3379820341955057e-01  1.3583191643247572e-01  1.3809967930556583e-01  1.4055805866082791e-01  1.4315280830748253e-01  1.4581848792499072e-01  1.4847906485033030e-01  1.5104985160356640e-01  1.5344124726217279e-01  1.5556573376995581e-01  1.5735422461655862e-01  1.5880542160531735e-01  1.6012521946123129e-01  1.6170711251353442e-01  2.6369477773081446e-01  2.6352789668865417e-01  1.6079790203459993e-01  1.5843460037304993e-01  1.5685078330126956e-01  1.5532917727137233e-01  1.5352296526372211e-01  1.5139620839351173e-01  1.4900945827813980e-01  1.4644831427601565e-01  1.4380171099387118e-01  1.4115370466348451e-01  1.3857948739784665e-01  1.3614346953603168e-01  1.3389875967448450e-01  1.3188764124051477e-01  1.3014268107659882e-01  1.2868815428875768e-01  1.2754153467746790e-01  1.2671487162967940e-01  1.2621593758647404e-01  1.2604907844642682e-01  1.2621573171086103e-01  1.2671459669693755e-01  1.2754145247239007e-01  1.2868862779131710e-01  1.3014413886670059e-01  1.3189053078410723e-01  1.3390349144820679e-01  1.3615035592701971e-01  1.3858868296909307e-01  1.4116515710412575e-01  1.4381513591648254e-01  1.4646320733657309e-01  1.4902518007627366e-01  1.5141221979462233e-01  1.5353957932586254e-01  1.5535012332391473e-01  1.5689168702932907e-01  1.5854404148384738e-01  1.6101093896552687e-01  2.6360591803555733e-01  2.6337382227583411e-01  1.5980938353301483e-01  1.5635679641054936e-01  1.5438538295959467e-01  1.5277128253332931e-01  1.5095857860715320e-01  1.4885231882645092e-01  1.4649815892588147e-01  1.4397755970657652e-01  1.4137757391147915e-01  1.3878064131885115e-01  1.3626021381324624e-01  1.3387882193972850e-01  1.3168764083927975e-01  1.2972706828133596e-01  1.2802792402642904e-01  1.2661294397397560e-01  1.2549831670782532e-01  1.2469508668181650e-01  1.2421031367392200e-01  1.2404792664157464e-01  1.2420924151250004e-01  1.2469313025380881e-01  1.2549583785458979e-01  1.2661045038301508e-01  1.2802602685504003e-01  1.2972642599437897e-01  1.3168889116509935e-01  1.3388250615161795e-01  1.3626670078582667e-01  1.3879006220895768e-01  1.4138978293351015e-01  1.4399214058816592e-01  1.4651451811793215e-01  1.4886998456472761e-01  1.5097814132405385e-01  1.5279753085950376e-01  1.5443746099452987e-01  1.5649413568012141e-01  1.6008021140204234e-01  2.6347762735545083e-01  2.6317526251524698e-01  1.5857170129176409e-01  1.5379978486239498e-01  1.5136572425789974e-01  1.4964059068266511e-01  1.4782145452953871e-01  1.4574302496427785e-01  1.4343262980838178e-01  1.4096643676739265e-01  1.3842899331129691e-01  1.3590056228383190e-01  1.3345224953418622e-01  1.3114406344708193e-01  1.2902459648145115e-01  1.2713173602924016e-01  1.2549398056941660e-01  1.2413202201503204e-01  1.2306034086026175e-01  1.2228864301696733e-01  1.2182303507244134e-01  1.2166688328575068e-01  1.2182133168301804e-01  1.2228547025532750e-01  1.2305615108947457e-01  1.2412745421118367e-01  1.2548981207424137e-01  1.2712881790907782e-01  1.2902377414323785e-01  1.3114608679205367e-01  1.3345768076204931e-01  1.3590969392363156e-01  1.3844179460739772e-01  1.4098255503102627e-01  1.4345150039681950e-01  1.4576424625080947e-01  1.4784595715158214e-01  1.4967432147260545e-01  1.5143114062701113e-01  1.5396633393049283e-01  1.5890302480968679e-01  2.6330704417753586e-01  2.6292760904026080e-01  1.5707097350156923e-01  1.5075960075547867e-01  1.4779218152799037e-01  1.4593379758365446e-01  1.4410294819103531e-01  1.4205423805655590e-01  1.3979325862191072e-01  1.3738965582098972e-01  1.3492489632301080e-01  1.3247660793807625e-01  1.3011306365800429e-01  1.2789122375631748e-01  1.2585655742862104e-01  1.2404391676007398e-01  1.2247899462850143e-01  1.2118001307700364e-01  1.2015938838355975e-01  1.1942520792612209e-01  1.1898242438535389e-01  1.1883372121905955e-01  1.1898003158677503e-01  1.1942070596736498e-01  1.2015332762596935e-01  1.2117317606710595e-01  1.2247234290402731e-01  1.2403851839065960e-01  1.2585349625557463e-01  1.2789149428479199e-01  1.3011746008569719e-01  1.3248562168561642e-01  1.3493864401115707e-01  1.3740787268852453e-01  1.3981543044309969e-01  1.4208006883277458e-01  1.4413378312157366e-01  1.4597682016818780e-01  1.4787284410824203e-01  1.5095627891314820e-01  1.5746556137078258e-01  2.6309011199983667e-01  2.6262535553055588e-01  1.5529301146955679e-01  1.4723840373807864e-01  1.4367458470788350e-01  1.4165867533871723e-01  1.3980691368719911e-01  1.3778606327313053e-01  1.3557671992454187e-01  1.3324069689455531e-01  1.3085576612721941e-01  1.2849645875555543e-01  1.2622773565921672e-01  1.2410299043226930e-01  1.2216403623539042e-01  1.2044217527552475e-01  1.1895982457928859e-01  1.1773232773917350e-01  1.1676969950612311e-01  1.1607814686772000e-01  1.1566128322840072e-01  1.1552100002831094e-01  1.1565798600121034e-01  1.1607189419438990e-01  1.1676115737481316e-01  1.1772244999562169e-01  1.1894979583726850e-01  1.2043333124824412e-01  1.2215776116793194e-01  1.2410059463896879e-01  1.2623032161346712e-01  1.2850479184081262e-01  1.3087017701870934e-01  1.3326106158400916e-01  1.3560261564843262e-01  1.3781734796859252e-01  1.3984542992223187e-01  1.4171290532908787e-01  1.4377252377579081e-01  1.4746582881573975e-01  1.5575332928761201e-01  2.6282179370400527e-01  2.6226212477121147e-01  1.5322477635420115e-01  1.4324751337580574e-01  1.3903479220139892e-01  1.3683553361992803e-01  1.3494972973688227e-01  1.3295111393345013e-01  1.3079232114578862e-01  1.2852597253984632e-01  1.2622548640673825e-01  1.2396180646244655e-01  1.2179607139253908e-01  1.1977755409530255e-01  1.1794384394228621e-01  1.1632214928895945e-01  1.1493112009843531e-01  1.1378280059769025e-01  1.1288446144586284e-01  1.1224016687251562e-01  1.1185200751188684e-01  1.1172097594007056e-01  1.1184748460731879e-01  1.1223153192882135e-01  1.1287251880125611e-01  1.1376871136520506e-01  1.1491634284254892e-01  1.1630835438243067e-01  1.1793279920462832e-01  1.1977098290566729e-01  1.2179549096671075e-01  1.2396836393229405e-01  1.2623982568850078e-01  1.2854819246106514e-01  1.3082215461618180e-01  1.3298863505749678e-01  1.3499736152635736e-01  1.3690308234013393e-01  1.3915218462269699e-01  1.4350587815625343e-01  1.5375257376737647e-01  2.6249613897691165e-01  2.6183068202606580e-01  1.5085599015399659e-01  1.3881034283034543e-01  1.3390948445685347e-01  1.3149986028412852e-01  1.2956271387361271e-01  1.2757660492602593e-01  1.2546369383957534e-01  1.2326604403266950e-01  1.2105201874190392e-01  1.1888843968854093e-01  1.1683206070510968e-01  1.1492742186111228e-01  1.1320726544670477e-01  1.1169411568176904e-01  1.1040233009292050e-01  1.0934021026400505e-01  1.0851192739566227e-01  1.0791913444850157e-01  1.0756221355714606e-01  1.0744115114883029e-01  1.0755605165109974e-01  1.0790730204693960e-01  1.0849539137660130e-01  1.0932037821912581e-01  1.1038099158513094e-01  1.1167335320989102e-01  1.1318932963780287e-01  1.1491456910240183e-01  1.1682635901942220e-01  1.1889156135451714e-01  1.2106505926166658e-01  1.2328944582815606e-01  1.2549744310474528e-01  1.2762107563351774e-01  1.2962098924058210e-01  1.3158303512377614e-01  1.3404860762394410e-01  1.3909925486307975e-01  1.5145182254234563e-01  2.6210629429245652e-01  2.6132294200221090e-01  1.4818089300840562e-01  1.3396478303859588e-01  1.2835217623423240e-01  1.2570437794176142e-01  1.2369425614990637e-01  1.2170653712679871e-01  1.1963102321719982e-01  1.1749788901423944e-01  1.1536968881029985e-01  1.1330851949032550e-01  1.1136610963185886e-01  1.0958157564849760e-01  1.0798211991729989e-01  1.0658493820506906e-01  1.0539953305563426e-01  1.0442999767012077e-01  1.0367703689469143e-01  1.0313961930955372e-01  1.0281623173172236e-01  1.0270574711313828e-01  1.0280792974501300e-01  1.0312359741869440e-01  1.0365444664555906e-01  1.0440253073550909e-01  1.0536936757921168e-01  1.0655465102971814e-01  1.0795455494313660e-01  1.0955966207533152e-01  1.1135263232619605e-01  1.1330585950823858e-01  1.1537958038997768e-01  1.1752129206183040e-01  1.1966832451688984e-01  1.2175852660359929e-01  1.2376474615160510e-01  1.2580562246422203e-01  1.2851531532689864e-01  1.3428311849301419e-01  1.4884360415840001e-01  2.6164450677312195e-01  2.6072994080320611e-01  1.4520000933598026e-01  1.2876452346371028e-01  1.2243368382646308e-01  1.1951952148939897e-01  1.1741047997316884e-01  1.1540256210227703e-01  1.1335214197926219e-01  1.1127624503480898e-01  1.0923078045110991e-01  1.0727240544313531e-01  1.0544706770656354e-01  1.0378766507219252e-01  1.0231508425669475e-01  1.0104049022204281e-01  9.9967932870462753e-02  9.9096813965181163e-02  9.8423999579922983e-02  9.7945501608264721e-02  9.7657727576484360e-02  9.7558331595409997e-02  9.7646705217639074e-02  9.7924136091085801e-02  9.8393642664779180e-02  9.9059471056833825e-02  9.9926221178617491e-02  1.0099755974173116e-01  1.0227448618886131e-01  1.0375315509351757e-01  1.0542234065141864e-01  1.0726077725976023e-01  1.0923486938251847e-01  1.1129777250386891e-01  1.1339211501370808e-01  1.1546235513127226e-01  1.1749469166139338e-01  1.1964130705750277e-01  1.2262300863636647e-01  1.2911032786595220e-01  1.4592623025101650e-01  2.6110211536612937e-01  2.6004170175995656e-01  1.4192161833123496e-01  1.2327870550318359e-01  1.1624040194431007e-01  1.1303159578643898e-01  1.1079359658092396e-01  1.0874262247837185e-01  1.0670152096854973e-01  1.0467299140730497e-01  1.0270531641968587e-01  1.0084881551021141e-01  9.9142730671028828e-02  9.7612809575944967e-02  9.6272750027025553e-02  9.5126923721109091e-02  9.4173300475970723e-02  9.3406098970225879e-02  9.2817977902701992e-02  9.2401729148965661e-02  9.2151505746180681e-02  9.2063642642079890e-02  9.2137125519412236e-02  9.2373744549767128e-02  9.2777943597701279e-02  9.3356346850414787e-02  9.4116919150573422e-02  9.5067699322212249e-02  9.6215045698678225e-02  9.7561362753198100e-02  9.9102357070037950e-02  1.0082403056646605e-01  1.0269992919836567e-01  1.0468981383424861e-01  1.0674250152126985e-01  1.0880997653313046e-01  1.1089277114384921e-01  1.1317624017713242e-01  1.1645781472303066e-01  1.2364917966980202e-01  1.4270538654617188e-01  2.6046949193158503e-01  2.5924684760680256e-01  1.3836242691444883e-01  1.1758930758958117e-01  1.0986988086455483e-01  1.0633804199943891e-01  1.0393732868892210e-01  1.0181672767384591e-01  9.9766512625965975e-02  9.7773916388443904e-02  9.5878353939147051e-02  9.4122620258256975e-02  9.2538085305681361e-02  9.1142238122905464e-02  8.9940600629000542e-02  8.8929928355182958e-02  8.8101462653826859e-02  8.7443751915262019e-02  8.6944896407614547e-02  8.6594225727912075e-02  8.6383480931298898e-02  8.6307587334165742e-02  8.6365091256555171e-02  8.6558307105203999e-02  8.6893187618868703e-02  8.7378894710965785e-02  8.8027015422273619e-02  8.8850342091235976e-02  8.9861125843651052e-02  9.1068731735911901e-02  9.2476694876973534e-02  9.4079347328924950e-02  9.5858557331098784e-02  9.7781919896406111e-02  9.9805657532430883e-02  1.0189046122819392e-01  1.0405206198077385e-01  1.0650739187485153e-01  1.1011682217049386e-01  1.1798092898359067e-01  1.3919511048625335e-01  2.5973585030464025e-01  2.5833170142144707e-01  1.3454670853920406e-01  1.1178575069384800e-01  1.0342341684091000e-01  9.9539516064541325e-02  9.6939111973249337e-02  9.4719619983313838e-02  9.2640657272520743e-02  9.0672723360685825e-02  8.8844676841691395e-02  8.7190167239560329e-02  8.5731192912492621e-02  8.4475650431281191e-02  8.3419768044316389e-02  8.2551805923617855e-02  8.1855624502455260e-02  8.1313641835468048e-02  8.0909089735801326e-02  8.0627635058983738e-02  8.0458482650420465e-02  8.0395076363784956e-02  8.0435490391817646e-02  8.0582567284936762e-02  8.0843817781992094e-02  8.1231054946742376e-02  8.1759694535074617e-02  8.2447619094865338e-02  8.3313481952206753e-02  8.4374331445394662e-02  8.5642496044557953e-02  8.7121856419798305e-02  8.8804048494700416e-02  9.0666104524609659e-02  9.2673356271624763e-02  9.4796895038108425e-02  9.7068628882960611e-02  9.9734351715230291e-02  1.0370056219876710e-01  1.1219456809061247e-01  1.3541751623865461e-01  2.5888876704734193e-01  2.5727834147748785e-01  1.3050274485665733e-01  1.0595621348177431e-01  9.6995477202418190e-02  9.2728742812730663e-02  8.9889260673549742e-02  8.7540781180855204e-02  8.5414734698203251e-02  8.3463134806427045e-02  8.1701867429930408e-02  8.0153196378231956e-02  7.8827804878766297e-02  7.7722384058009131e-02  7.6822611164006738e-02  7.6107338932227930e-02  7.5552431944691717e-02  7.5133793056688936e-02  7.4829563013016451e-02  7.4621626912072789e-02  7.4496592065029954e-02  7.4446385038991120e-02  7.4468579535611562e-02  7.4566521771945254e-02  7.4749270806872672e-02  7.5031320924544231e-02  7.5432024695180705e-02  7.5974592023383664e-02  7.6684506969836974e-02  7.7587191838696751e-02  7.8704794460781102e-02  8.0052139889359150e-02  8.1632356874348638e-02  8.3433965813480865e-02  8.5433825137727279e-02  8.7616005743769931e-02  9.0030152797469343e-02  9.2947643879767727e-02  9.7302157601958261e-02  1.0637838190867710e-01  1.3140036217623108e-01  2.5791314292361839e-01  2.5606098635980146e-01  1.2625552329531012e-01  1.0017565005934331e-01  9.0660300711081082e-02  8.5976796840826653e-02  8.2858283793598428e-02  8.0353573515871912e-02  7.8167911713282509e-02  7.6231910385657228e-02  7.4544934535353699e-02  7.3114763588051093e-02  7.1938245080376037e-02  7.0998933860502655e-02  7.0270601316106129e-02  6.9721839910587904e-02  6.9320050931000257e-02  6.9034418653472748e-02  6.8837949784669256e-02  6.8708784001363724e-02  6.8630986082213810e-02  6.8594996823323151e-02  6.8597873532351972e-02  6.8643397625938463e-02  6.8742069382394813e-02  6.8910951111320576e-02  6.9173263222655629e-02  6.9557586304889882e-02  7.0096478088795294e-02  7.0824284798783235e-02  7.1773932633733009e-02  7.2972620138073152e-02  7.4436991929103247e-02  7.6169794807427388e-02  7.8162704501576266e-02  8.0416539761252404e-02  8.3001887369436034e-02  8.6213528027933459e-02  9.0992903275846318e-02  1.0060785547686571e-01  1.2717125880784369e-01  2.5678913959741256e-01  2.5464010538656145e-01  1.2181410037750647e-01  9.4489645302783795e-02  8.4454584838583494e-02  7.9316659599205308e-02  7.5884378606322911e-02  7.3208176688301971e-02  7.0966026388916414e-02  6.9061679623387412e-02  6.7472788579374304e-02  6.6188502544915248e-02  6.5188697986044819e-02  6.4441660731292039e-02  6.3908024860750895e-02  6.3545569443369171e-02  6.3313116595109437e-02  6.3173264856269604e-02  6.3094138203318134e-02  6.3050408549115949e-02  6.3023832452394582e-02  6.3003504040987909e-02  6.2985976011637634e-02  6.2975340246471348e-02  6.2983292240233441e-02  6.3029133276308505e-02  6.3139596450846533e-02  6.3348324517382398e-02  6.3694783909941141e-02  6.4222371362947811e-02  6.4975448182744103e-02  6.5995158529560546e-02  6.7314346142307468e-02  6.8953031855704616e-02  7.0921070607643993e-02  7.3241554113573928e-02  7.6013423414627593e-02  7.9556979855539695e-02  8.4804514051454366e-02  9.4929633331258159e-02  1.2274723757635880e-01  2.5548842170287300e-01  2.5295574715634661e-01  1.1715996075667141e-01  8.8903414732199468e-02  7.8366683938695975e-02  7.2735883268075063e-02  6.8976504252637377e-02  6.6149260631267581e-02  6.3895322380500330e-02  6.208171125