<?xml version="1.0"?>
<VTKFile type="UnstructuredGrid"  version="0.1"  >
<UnstructuredGrid>
<Piece  NumberOfPoints="1681" NumberOfCells="3200">
<Points>
<DataArray  type="Float64"  NumberOfComponents="3"  format="ascii">0 0 0  0.025 0 0  0.05 0 0  0.075 0 0  0.1 0 0  0.125 0 0  0.15 0 0  0.175 0 0  0.2 0 0  0.225 0 0  0.25 0 0  0.275 0 0  0.3 0 0  0.325 0 0  0.35 0 0  0.375 0 0  0.4 0 0  0.425 0 0  0.45 0 0  0.475 0 0  0.5 0 0  0.525 0 0  0.55 0 0  0.575 0 0  0.6 0 0  0.625 0 0  0.65 0 0  0.675 0 0  0.7 0 0  0.725 0 0  0.75 0 0  0.775 0 0  0.8 0 0  0.825 0 0  0.85 0 0  0.875 0 0  0.9 0 0  0.925 0 0  0.95 0 0  0.975 0 0  1 0 0  0 0.025 0  0.025 0.025 0  0.05 0.025 0  0.075 0.025 0  0.1 0.025 0  0.125 0.025 0  0.15 0.025 0  0.175 0.025 0  0.2 0.025 0  0.225 0.025 0  0.25 0.025 0  0.275 0.025 0  0.3 0.025 0  0.325 0.025 0  0.35 0.025 0  0.375 0.025 0  0.4 0.025 0  0.425 0.025 0  0.45 0.025 0  0.475 0.025 0  0.5 0.025 0  0.525 0.025 0  0.55 0.025 0  0.575 0.025 0  0.6 0.025 0  0.625 0.025 0  0.65 0.025 0  0.675 0.025 0  0.7 0.025 0  0.725 0.025 0  0.75 0.025 0  0.775 0.025 0  0.8 0.025 0  0.825 0.025 0  0.85 0.025 0  0.875 0.025 0  0.9 0.025 0  0.925 0.025 0  0.95 0.025 0  0.975 0.025 0  1 0.025 0  0 0.05 0  0.025 0.05 0  0.05 0.05 0  0.075 0.05 0  0.1 0.05 0  0.125 0.05 0  0.15 0.05 0  0.175 0.05 0  0.2 0.05 0  0.225 0.05 0  0.25 0.05 0  0.275 0.05 0  0.3 0.05 0  0.325 0.05 0  0.35 0.05 0  0.375 0.05 0  0.4 0.05 0  0.425 0.05 0  0.45 0.05 0  0.475 0.05 0  0.5 0.05 0  0.525 0.05 0  0.55 0.05 0  0.575 0.05 0  0.6 0.05 0  0.625 0.05 0  0.65 0.05 0  0.675 0.05 0  0.7 0.05 0  0.725 0.05 0  0.75 0.05 0  0.775 0.05 0  0.8 0.05 0  0.825 0.05 0  0.85 0.05 0  0.875 0.05 0  0.9 0.05 0  0.925 0.05 0  0.95 0.05 0  0.975 0.05 0  1 0.05 0  0 0.075 0  0.025 0.075 0  0.05 0.075 0  0.075 0.075 0  0.1 0.075 0  0.125 0.075 0  0.15 0.075 0  0.175 0.075 0  0.2 0.075 0  0.225 0.075 0  0.25 0.075 0  0.275 0.075 0  0.3 0.075 0  0.325 0.075 0  0.35 0.075 0  0.375 0.075 0  0.4 0.075 0  0.425 0.075 0  0.45 0.075 0  0.475 0.075 0  0.5 0.075 0  0.525 0.075 0  0.55 0.075 0  0.575 0.075 0  0.6 0.075 0  0.625 0.075 0  0.65 0.075 0  0.675 0.075 0  0.7 0.075 0  0.725 0.075 0  0.75 0.075 0  0.775 0.075 0  0.8 0.075 0  0.825 0.075 0  0.85 0.075 0  0.875 0.075 0  0.9 0.075 0  0.925 0.075 0  0.95 0.075 0  0.975 0.075 0  1 0.075 0  0 0.1 0  0.025 0.1 0  0.05 0.1 0  0.075 0.1 0  0.1 0.1 0  0.125 0.1 0  0.15 0.1 0  0.175 0.1 0  0.2 0.1 0  0.225 0.1 0  0.25 0.1 0  0.275 0.1 0  0.3 0.1 0  0.325 0.1 0  0.35 0.1 0  0.375 0.1 0  0.4 0.1 0  0.425 0.1 0  0.45 0.1 0  0.475 0.1 0  0.5 0.1 0  0.525 0.1 0  0.55 0.1 0  0.575 0.1 0  0.6 0.1 0  0.625 0.1 0  0.65 0.1 0  0.675 0.1 0  0.7 0.1 0  0.725 0.1 0  0.75 0.1 0  0.775 0.1 0  0.8 0.1 0  0.825 0.1 0  0.85 0.1 0  0.875 0.1 0  0.9 0.1 0  0.925 0.1 0  0.95 0.1 0  0.975 0.1 0  1 0.1 0  0 0.125 0  0.025 0.125 0  0.05 0.125 0  0.075 0.125 0  0.1 0.125 0  0.125 0.125 0  0.15 0.125 0  0.175 0.125 0  0.2 0.125 0  0.225 0.125 0  0.25 0.125 0  0.275 0.125 0  0.3 0.125 0  0.325 0.125 0  0.35 0.125 0  0.375 0.125 0  0.4 0.125 0  0.425 0.125 0  0.45 0.125 0  0.475 0.125 0  0.5 0.125 0  0.525 0.125 0  0.55 0.125 0  0.575 0.125 0  0.6 0.125 0  0.625 0.125 0  0.65 0.125 0  0.675 0.125 0  0.7 0.125 0  0.725 0.125 0  0.75 0.125 0  0.775 0.125 0  0.8 0.125 0  0.825 0.125 0  0.85 0.125 0  0.875 0.125 0  0.9 0.125 0  0.925 0.125 0  0.95 0.125 0  0.975 0.125 0  1 0.125 0  0 0.15 0  0.025 0.15 0  0.05 0.15 0  0.075 0.15 0  0.1 0.15 0  0.125 0.15 0  0.15 0.15 0  0.175 0.15 0  0.2 0.15 0  0.225 0.15 0  0.25 0.15 0  0.275 0.15 0  0.3 0.15 0  0.325 0.15 0  0.35 0.15 0  0.375 0.15 0  0.4 0.15 0  0.425 0.15 0  0.45 0.15 0  0.475 0.15 0  0.5 0.15 0  0.525 0.15 0  0.55 0.15 0  0.575 0.15 0  0.6 0.15 0  0.625 0.15 0  0.65 0.15 0  0.675 0.15 0  0.7 0.15 0  0.725 0.15 0  0.75 0.15 0  0.775 0.15 0  0.8 0.15 0  0.825 0.15 0  0.85 0.15 0  0.875 0.15 0  0.9 0.15 0  0.925 0.15 0  0.95 0.15 0  0.975 0.15 0  1 0.15 0  0 0.175 0  0.025 0.175 0  0.05 0.175 0  0.075 0.175 0  0.1 0.175 0  0.125 0.175 0  0.15 0.175 0  0.175 0.175 0  0.2 0.175 0  0.225 0.175 0  0.25 0.175 0  0.275 0.175 0  0.3 0.175 0  0.325 0.175 0  0.35 0.175 0  0.375 0.175 0  0.4 0.175 0  0.425 0.175 0  0.45 0.175 0  0.475 0.175 0  0.5 0.175 0  0.525 0.175 0  0.55 0.175 0  0.575 0.175 0  0.6 0.175 0  0.625 0.175 0  0.65 0.175 0  0.675 0.175 0  0.7 0.175 0  0.725 0.175 0  0.75 0.175 0  0.775 0.175 0  0.8 0.175 0  0.825 0.175 0  0.85 0.175 0  0.875 0.175 0  0.9 0.175 0  0.925 0.175 0  0.95 0.175 0  0.975 0.175 0  1 0.175 0  0 0.2 0  0.025 0.2 0  0.05 0.2 0  0.075 0.2 0  0.1 0.2 0  0.125 0.2 0  0.15 0.2 0  0.175 0.2 0  0.2 0.2 0  0.225 0.2 0  0.25 0.2 0  0.275 0.2 0  0.3 0.2 0  0.325 0.2 0  0.35 0.2 0  0.375 0.2 0  0.4 0.2 0  0.425 0.2 0  0.45 0.2 0  0.475 0.2 0  0.5 0.2 0  0.525 0.2 0  0.55 0.2 0  0.575 0.2 0  0.6 0.2 0  0.625 0.2 0  0.65 0.2 0  0.675 0.2 0  0.7 0.2 0  0.725 0.2 0  0.75 0.2 0  0.775 0.2 0  0.8 0.2 0  0.825 0.2 0  0.85 0.2 0  0.875 0.2 0  0.9 0.2 0  0.925 0.2 0  0.95 0.2 0  0.975 0.2 0  1 0.2 0  0 0.225 0  0.025 0.225 0  0.05 0.225 0  0.075 0.225 0  0.1 0.225 0  0.125 0.225 0  0.15 0.225 0  0.175 0.225 0  0.2 0.225 0  0.225 0.225 0  0.25 0.225 0  0.275 0.225 0  0.3 0.225 0  0.325 0.225 0  0.35 0.225 0  0.375 0.225 0  0.4 0.225 0  0.425 0.225 0  0.45 0.225 0  0.475 0.225 0  0.5 0.225 0  0.525 0.225 0  0.55 0.225 0  0.575 0.225 0  0.6 0.225 0  0.625 0.225 0  0.65 0.225 0  0.675 0.225 0  0.7 0.225 0  0.725 0.225 0  0.75 0.225 0  0.775 0.225 0  0.8 0.225 0  0.825 0.225 0  0.85 0.225 0  0.875 0.225 0  0.9 0.225 0  0.925 0.225 0  0.95 0.225 0  0.975 0.225 0  1 0.225 0  0 0.25 0  0.025 0.25 0  0.05 0.25 0  0.075 0.25 0  0.1 0.25 0  0.125 0.25 0  0.15 0.25 0  0.175 0.25 0  0.2 0.25 0  0.225 0.25 0  0.25 0.25 0  0.275 0.25 0  0.3 0.25 0  0.325 0.25 0  0.35 0.25 0  0.375 0.25 0  0.4 0.25 0  0.425 0.25 0  0.45 0.25 0  0.475 0.25 0  0.5 0.25 0  0.525 0.25 0  0.55 0.25 0  0.575 0.25 0  0.6 0.25 0  0.625 0.25 0  0.65 0.25 0  0.675 0.25 0  0.7 0.25 0  0.725 0.25 0  0.75 0.25 0  0.775 0.25 0  0.8 0.25 0  0.825 0.25 0  0.85 0.25 0  0.875 0.25 0  0.9 0.25 0  0.925 0.25 0  0.95 0.25 0  0.975 0.25 0  1 0.25 0  0 0.275 0  0.025 0.275 0  0.05 0.275 0  0.075 0.275 0  0.1 0.275 0  0.125 0.275 0  0.15 0.275 0  0.175 0.275 0  0.2 0.275 0  0.225 0.275 0  0.25 0.275 0  0.275 0.275 0  0.3 0.275 0  0.325 0.275 0  0.35 0.275 0  0.375 0.275 0  0.4 0.275 0  0.425 0.275 0  0.45 0.275 0  0.475 0.275 0  0.5 0.275 0  0.525 0.275 0  0.55 0.275 0  0.575 0.275 0  0.6 0.275 0  0.625 0.275 0  0.65 0.275 0  0.675 0.275 0  0.7 0.275 0  0.725 0.275 0  0.75 0.275 0  0.775 0.275 0  0.8 0.275 0  0.825 0.275 0  0.85 0.275 0  0.875 0.275 0  0.9 0.275 0  0.925 0.275 0  0.95 0.275 0  0.975 0.275 0  1 0.275 0  0 0.3 0  0.025 0.3 0  0.05 0.3 0  0.075 0.3 0  0.1 0.3 0  0.125 0.3 0  0.15 0.3 0  0.175 0.3 0  0.2 0.3 0  0.225 0.3 0  0.25 0.3 0  0.275 0.3 0  0.3 0.3 0  0.325 0.3 0  0.35 0.3 0  0.375 0.3 0  0.4 0.3 0  0.425 0.3 0  0.45 0.3 0  0.475 0.3 0  0.5 0.3 0  0.525 0.3 0  0.55 0.3 0  0.575 0.3 0  0.6 0.3 0  0.625 0.3 0  0.65 0.3 0  0.675 0.3 0  0.7 0.3 0  0.725 0.3 0  0.75 0.3 0  0.775 0.3 0  0.8 0.3 0  0.825 0.3 0  0.85 0.3 0  0.875 0.3 0  0.9 0.3 0  0.925 0.3 0  0.95 0.3 0  0.975 0.3 0  1 0.3 0  0 0.325 0  0.025 0.325 0  0.05 0.325 0  0.075 0.325 0  0.1 0.325 0  0.125 0.325 0  0.15 0.325 0  0.175 0.325 0  0.2 0.325 0  0.225 0.325 0  0.25 0.325 0  0.275 0.325 0  0.3 0.325 0  0.325 0.325 0  0.35 0.325 0  0.375 0.325 0  0.4 0.325 0  0.425 0.325 0  0.45 0.325 0  0.475 0.325 0  0.5 0.325 0  0.525 0.325 0  0.55 0.325 0  0.575 0.325 0  0.6 0.325 0  0.625 0.325 0  0.65 0.325 0  0.675 0.325 0  0.7 0.325 0  0.725 0.325 0  0.75 0.325 0  0.775 0.325 0  0.8 0.325 0  0.825 0.325 0  0.85 0.325 0  0.875 0.325 0  0.9 0.325 0  0.925 0.325 0  0.95 0.325 0  0.975 0.325 0  1 0.325 0  0 0.35 0  0.025 0.35 0  0.05 0.35 0  0.075 0.35 0  0.1 0.35 0  0.125 0.35 0  0.15 0.35 0  0.175 0.35 0  0.2 0.35 0  0.225 0.35 0  0.25 0.35 0  0.275 0.35 0  0.3 0.35 0  0.325 0.35 0  0.35 0.35 0  0.375 0.35 0  0.4 0.35 0  0.425 0.35 0  0.45 0.35 0  0.475 0.35 0  0.5 0.35 0  0.525 0.35 0  0.55 0.35 0  0.575 0.35 0  0.6 0.35 0  0.625 0.35 0  0.65 0.35 0  0.675 0.35 0  0.7 0.35 0  0.725 0.35 0  0.75 0.35 0  0.775 0.35 0  0.8 0.35 0  0.825 0.35 0  0.85 0.35 0  0.875 0.35 0  0.9 0.35 0  0.925 0.35 0  0.95 0.35 0  0.975 0.35 0  1 0.35 0  0 0.375 0  0.025 0.375 0  0.05 0.375 0  0.075 0.375 0  0.1 0.375 0  0.125 0.375 0  0.15 0.375 0  0.175 0.375 0  0.2 0.375 0  0.225 0.375 0  0.25 0.375 0  0.275 0.375 0  0.3 0.375 0  0.325 0.375 0  0.35 0.375 0  0.375 0.375 0  0.4 0.375 0  0.425 0.375 0  0.45 0.375 0  0.475 0.375 0  0.5 0.375 0  0.525 0.375 0  0.55 0.375 0  0.575 0.375 0  0.6 0.375 0  0.625 0.375 0  0.65 0.375 0  0.675 0.375 0  0.7 0.375 0  0.725 0.375 0  0.75 0.375 0  0.775 0.375 0  0.8 0.375 0  0.825 0.375 0  0.85 0.375 0  0.875 0.375 0  0.9 0.375 0  0.925 0.375 0  0.95 0.375 0  0.975 0.375 0  1 0.375 0  0 0.4 0  0.025 0.4 0  0.05 0.4 0  0.075 0.4 0  0.1 0.4 0  0.125 0.4 0  0.15 0.4 0  0.175 0.4 0  0.2 0.4 0  0.225 0.4 0  0.25 0.4 0  0.275 0.4 0  0.3 0.4 0  0.325 0.4 0  0.35 0.4 0  0.375 0.4 0  0.4 0.4 0  0.425 0.4 0  0.45 0.4 0  0.475 0.4 0  0.5 0.4 0  0.525 0.4 0  0.55 0.4 0  0.575 0.4 0  0.6 0.4 0  0.625 0.4 0  0.65 0.4 0  0.675 0.4 0  0.7 0.4 0  0.725 0.4 0  0.75 0.4 0  0.775 0.4 0  0.8 0.4 0  0.825 0.4 0  0.85 0.4 0  0.875 0.4 0  0.9 0.4 0  0.925 0.4 0  0.95 0.4 0  0.975 0.4 0  1 0.4 0  0 0.425 0  0.025 0.425 0  0.05 0.425 0  0.075 0.425 0  0.1 0.425 0  0.125 0.425 0  0.15 0.425 0  0.175 0.425 0  0.2 0.425 0  0.225 0.425 0  0.25 0.425 0  0.275 0.425 0  0.3 0.425 0  0.325 0.425 0  0.35 0.425 0  0.375 0.425 0  0.4 0.425 0  0.425 0.425 0  0.45 0.425 0  0.475 0.425 0  0.5 0.425 0  0.525 0.425 0  0.55 0.425 0  0.575 0.425 0  0.6 0.425 0  0.625 0.425 0  0.65 0.425 0  0.675 0.425 0  0.7 0.425 0  0.725 0.425 0  0.75 0.425 0  0.775 0.425 0  0.8 0.425 0  0.825 0.425 0  0.85 0.425 0  0.875 0.425 0  0.9 0.425 0  0.925 0.425 0  0.95 0.425 0  0.975 0.425 0  1 0.425 0  0 0.45 0  0.02
[...]
<PointData  Scalars="ControlVisualisation"> 
<DataArray  type="Float64"  Name="ControlVisualisation"  format="ascii">3.7817718279845013e-08  2.1879057196400029e-08  2.1880154774884485e-08  2.1881990232188755e-08  2.1884507773533002e-08  2.1887640984045266e-08  2.1891305781907623e-08  2.1895404545956504e-08  2.1899829050257452e-08  2.1904463536888890e-08  2.1909187985288975e-08  2.1913881375072924e-08  2.1918424947036480e-08  2.1922704967064982e-08  2.1926615653388402e-08  2.1930061352544991e-08  2.1932958758701045e-08  2.1935238389166929e-08  2.1936846109563983e-08  2.1937743948061447e-08  2.1937910890605416e-08  2.1937343235902021e-08  2.1936054508707827e-08  2.1934075336816895e-08  2.1931452923816111e-08  2.1928250068060126e-08  2.1924544072216752e-08  2.1920425145828779e-08  2.1915994560469516e-08  2.1911362396384185e-08  2.1906645005773408e-08  2.1901962125887851e-08  2.1897433925585188e-08  2.1893177725918373e-08  2.1889304808804129e-08  2.1885917213179146e-08  2.1883104829030640e-08  2.1880942168300702e-08  2.1879492648625798e-08  2.1878770970765012e-08  8.5632693208913008e-08  2.1879059747824547e-08  5.9399545305958683e-09  5.9410302646902899e-09  5.9429234493705208e-09  5.9456036012589699e-09  5.9489991385736204e-09  5.9530188959607015e-09  5.9575561587142910e-09  5.9624912913272521e-09  5.9676952303018829e-09  5.9730331540917479e-09  5.9783680984049829e-09  5.9835646943840585e-09  5.9884924481576738e-09  5.9930289697149917e-09  5.9970627762109821e-09  6.0004957165250884e-09  6.0032450239996309e-09  6.0052448958988817e-09  6.0064478446123003e-09  6.0068254686081213e-09  6.0063690521407007e-09  6.0050895967356577e-09  6.0030176750093235e-09  6.0002028799171930e-09  5.9967128729004317e-09  5.9926320670283240e-09  5.9880599321378566e-09  5.9831089068171566e-09  5.9779019337259891e-09  5.9725695826117322e-09  5.9672468901332762e-09  5.9620699713543994e-09  5.9571724138684485e-09  5.9526816747495540e-09  5.9487154609533589e-09  5.9453784523649850e-09  5.9427591986119140e-09  5.9409255194007159e-09  5.9398698471998543e-09  2.1878771356061218e-08  2.1880184714071321e-08  5.9410522061520567e-09  5.9423983326308102e-09  5.9445558596225659e-09  5.9476158454422229e-09  5.9515008936524135e-09  5.9561071299978694e-09  5.9613121710851107e-09  5.9669786457002808e-09  5.9729582944745236e-09  5.9790961332216647e-09  5.9852346401087205e-09  5.9912179955091816e-09  5.9968959978698484e-09  6.0021276153480061e-09  6.0067843677933940e-09  6.0107529812430351e-09  6.0139378716407630e-09  6.0162628621846526e-09  6.0176727819514886e-09  6.0181344216455890e-09  6.0176370758481234e-09  6.0161927185408912e-09  6.0138358168485746e-09  6.0106227128858383e-09  6.0066305137962172e-09  6.0019556676040525e-09  5.9967120107662932e-09  5.9910283412994616e-09  5.9850457245395048e-09  5.9789140877038734e-09  5.9727886385472472e-09  5.9668259859489978e-09  5.9611799850674881e-09  5.9559975592464008e-09  5.9514145811596220e-09  5.9475521347423211e-09  5.9445115494057678e-09  5.9423619821755308e-09  5.9409441286625994e-09  2.1879502295286242e-08  2.1882133464131005e-08  5.9430464269377402e-09  5.9446678184655412e-09  5.9468513377036657e-09  5.9499320059127525e-09  5.9538426199129523e-09  5.9584792537207925e-09  5.9637183042569742e-09  5.9694211877678473e-09  5.9754383967180010e-09  5.9816137297826441e-09  5.9877886254187904e-09  5.9938062977402518e-09  5.9995158918609236e-09  6.0047757963993758e-09  6.0094571354187294e-09  6.0134464720592681e-09  6.0166480565565848e-09  6.0189857129645287e-09  6.0204041728452728e-09  6.0208702130296313e-09  6.0203730742498792e-09  6.0189246639114590e-09  6.0165593138965089e-09  6.0133332724075280e-09  6.0093235942445253e-09  6.0046267393685222e-09  5.9993567050241867e-09  5.9936426081176139e-09  5.9876260003602217e-09  5.9814575467205881e-09  5.9752933658491898e-09  5.9692911656323435e-09  5.9636060293978730e-09  5.9583861904119355e-09  5.9537688168138388e-09  5.9498761051225208e-09  5.9468093603164153e-09  5.9446214653812727e-09  5.9428697919168942e-09  2.1881009602408074e-08  2.1884953982083839e-08  5.9460134589720758e-09  5.9480494302032715e-09  5.9502549609776154e-09  5.9533373083152856e-09  5.9572480099227334e-09  5.9618836805627437e-09  5.9671201971224819e-09  5.9728185337314096e-09  5.9788288623434928e-09  5.9849948309992423e-09  5.9911579490525940e-09  5.9971617633047032e-09  6.0028559214967628e-09  6.0080996815346092e-09  6.0127650298876595e-09  6.0167394897707039e-09  6.0199282505496332e-09  6.0222559603316668e-09  6.0236680706113564e-09  6.0241317058997140e-09  6.0236362089776746e-09  6.0221933531297203e-09  6.0198370600932831e-09  6.0166228510828058e-09  6.0126269433638484e-09  6.0079448634131378e-09  6.0026896464824942e-09  5.9969895614571089e-09  5.9909854089930820e-09  5.9848273358152305e-09  5.9786711859401534e-09  5.9726746355231618e-09  5.9669929401266589e-09  5.9617746821744042e-09  5.9571574568713502e-09  5.9532638537966343e-09  5.9501942826519722e-09  5.9479775492957442e-09  5.9457558034820464e-09  2.1883358840507620e-08  2.1888726547843060e-08  5.9500371303480694e-09  5.9526430370025350e-09  5.9548775194766483e-09  5.9579599866898367e-09  5.9618682233093045e-09  5.9664993760686431e-09  5.9717287609427302e-09  5.9774168042130377e-09  5.9834133092082638e-09  5.9895618418255699e-09  5.9957041241975893e-09  6.0016843457019398e-09  6.0073529708808863e-09  6.0125704184107890e-09  6.0172100763894663e-09  6.0211608808003544e-09  6.0243293934035769e-09  6.0266414696867793e-09  6.0280434887062377e-09  6.0285031846705079e-09  6.0280100785894574e-09  6.0265756599643165e-09  6.0242332984172459e-09  6.0210375155964302e-09  6.0170633197776880e-09  6.0124048723723623e-09  6.0071738195040152e-09  6.0014971084477159e-09  5.9955144385352729e-09  5.9893751314379615e-09  5.9832345257169716e-09  5.9772501159408472e-09  5.9715772995100069e-09  5.9663650248372287e-09  5.9617514105448133e-09  5.9578595661951064e-09  5.9547887521506306e-09  5.9525357386403167e-09  5.9496846796552893e-09  2.1886609567532053e-08  2.1893557227338361e-08  5.9552309447125302e-09  5.9585787671717835e-09  5.9608504929616615e-09  5.9639318177977581e-09  5.9678350903668172e-09  5.9724582666094039e-09  5.9776759471183980e-09  5.9833479025080188e-09  5.9893234958548512e-09  5.9954462480022307e-09  6.0015582632145556e-09  6.0075045664965159e-09  6.0131369406603894e-09  6.0183173548968686e-09  6.0229210644602620e-09  6.0268389370518448e-09  6.0299793547523504e-09  6.0322698352006600e-09  6.0336579688052140e-09  6.0341122659470858e-09  6.0336225106120482e-09  6.0321998635910894e-09  6.0298768579746412e-09  6.0267067718977794e-09  6.0227629462752786e-09  6.0181377076615765e-09  6.0129408382278112e-09  6.0072974829316394e-09  6.0013457760222059e-09  5.9952338641844462e-09  5.9891163721744199e-09  5.9831504658386208e-09  5.9774916631388499e-09  5.9722893555866621e-09  5.9676823236451982e-09  5.9637943671980878e-09  5.9607232944050280e-09  5.9584249171177096e-09  5.9547664102806624e-09  2.1890852416130244e-08  2.1899583080428376e-08  5.9617434830179233e-09  5.9660264323118523e-09  5.9683440577282208e-09  5.9714220495911336e-09  5.9753165236698573e-09  5.9799265676968519e-09  5.9851258642904011e-09  5.9907734152101370e-09  5.9967181278683495e-09  6.0028035872166221e-09  6.0088725057616216e-09  6.0147711084449940e-09  6.0203529683894752e-09  6.0254822897331592e-09  6.0300367244804030e-09  6.0339097004984961e-09  6.0370120310937203e-09  6.0392733245909437e-09  6.0406428107818398e-09  6.0410899549232597e-09  6.0406048639950811e-09  6.0391983136243155e-09  6.0369017370547151e-09  6.0337667801617395e-09  6.0298646220051160e-09  6.0252851898155961e-09  6.0201357396401945e-09  6.0145390255302272e-09  6.0086310534074226e-09  6.0025583262403601e-09  5.9964744083983542e-09  5.9905359329470139e-09  5.9848984688849935e-09  5.9797119248149258e-09  5.9751158902917272e-09  5.9712350265948119e-09  5.9681653355932524e-09  5.9658115850110942e-09  5.9611445649892201e-09  2.1896205963789516e-08  2.1906976893672918e-08  5.9697630359017806e-09  5.9752015280088727e-09  5.9775743012392156e-09  5.9806454912193722e-09  5.9845254891415865e-09  5.9891147680084168e-09  5.9942859555436453e-09  5.9998971334179117e-09  6.0057967729557252e-09  6.0118287231459391e-09  6.0178367060599803e-09  6.0236687078850522e-09  6.0291806937017859e-09  6.0342399477702644e-09  6.0387273642869282e-09  6.0425396486690982e-09  6.0455907868353133e-09  6.0478130206959933e-09  6.0491576587348262e-09  6.0495954332898147e-09  6.0491168388469271e-09  6.0477321326187504e-09  6.0454713582594152e-09  6.0423840540481165e-09  6.0385386576336252e-09  6.0340219499237522e-09  6.0289378382316781e-09  6.0234058986438696e-09  6.0175593050324815e-09  6.0115422334795132e-09  6.0055066299579639e-09  5.9996083140814761e-09  5.9940027514851778e-09  5.9888404065510367e-09  5.9842618437748752e-09  5.9803927961584946e-09  5.9773270965477745e-09  5.9749069607054425e-09  5.9690011923261652e-09  2.1902821062449139e-08  2.1915953193438420e-08  5.9795246073171664e-09  5.9863733049172865e-09  5.9888112632742811e-09  5.9918705475186874e-09  5.9957279337969402e-09  6.0002855011782079e-09  6.0054145809590886e-09  6.0109722421516701e-09  6.0168066361730042e-09  6.0227621685249140e-09  6.0286842462637369e-09  6.0344234064282147e-09  6.0398390437206848e-09  6.0448024246582834e-09  6.0491988605328388e-09  6.0529293420753114e-09  6.0559118546017371e-09  6.0580820500895060e-09  6.0593937702218326e-09  6.0598193370469460e-09  6.0593497312203735e-09  6.0579945831067082e-09  6.0557821731487526e-09  6.0527593471518152e-09  6.0489910520010869e-09  6.0445600112651520e-09  6.0395658113330324e-09  6.0341237417575061e-09  6.0283631035599573e-09  6.0224248008583155e-09  6.0164583923001930e-09  6.0106183505574734e-09  6.0050597795930282e-09  5.9999336751322264e-09  5.9953817700412877e-09  5.9915311775207029e-09  5.9884732550610565e-09  5.9859743883623305e-09  5.9785631372789811e-09  2.1910885902748472e-08  2.1926775751651346e-08  5.9913184818387578e-09  5.9998748636911004e-09  6.0023891806356114e-09  6.0054295892071875e-09  6.0092531335426427e-09  6.0137636807723414e-09  6.0188308182972002e-09  6.0243105486246017e-09  6.0300509407922330e-09  6.0358976657214186e-09  6.0416986688620815e-09  6.0473083555952368e-09  6.0525909812564322e-09  6.0574232387464247e-09  6.0616961768304592e-09  6.0653164103110330e-09  6.0682070208542853e-09  6.0703079114911514e-09  6.0715760724102015e-09  6.0719858184396543e-09  6.0715286533351120e-09  6.0702134337066522e-09  6.0680662937009607e-09  6.0651306763008688e-09  6.0614671336334173e-09  6.0571531759486129e-09  6.0522827654785487e-09  6.0469654807193489e-09  6.0413252627688997e-09  6.0354983762504179e-09  6.0296308286996160e-09  6.0238748478223433e-09  6.0183846808341515e-09  6.0133117241559047e-09  6.0087991367989071e-09  6.0049759068639038e-09  6.0019307526708446e-09  5.9993389003224227e-09  5.9901101024958328e-09  2.1920632392134499e-08  2.1939766882453143e-08  6.0055011123381581e-09  6.0161160056751014e-09  6.0187197862136074e-09  6.0217325254222050e-09  6.0255073840374447e-09  6.0299498946604919e-09  6.0349273353624310e-09  6.0402945047427668e-09  6.0458999241216334e-09  6.0515916623579964e-09  6.0572218867062105e-09  6.0626507287518656e-09  6.0677493265842734e-09  6.0724018611278395e-09  6.0765069875240505e-09  6.0799785515089771e-09  6.0827460173687835e-09  6.0847545949279981e-09  6.0859651681282607e-09  6.0863543468163468e-09  6.0859144026292166e-09  6.0846531372360819e-09  6.0825940893203541e-09  6.0797764803513995e-09  6.0762553788985593e-09  6.0721017010480857e-09  6.0674020756876909e-09  6.0622584110099961e-09  6.0567872549458718e-09  6.0511182123259618e-09  6.0453918636774642e-09  6.0397567010303412e-09  6.0343651731179621e-09  6.0293687710011883e-09  6.0249124241333405e-09  6.0211278271011632e-09  6.0181012310674568e-09  6.0153991059425634e-09  6.0039844943869339e-09  2.1932343902940240e-08  2.1955318257183620e-08  6.0225082164946158e-09  6.0355992944857641e-09  6.0383094382245763e-09  6.0412846603957014e-09  6.0449923173056405e-09  6.0493386073900420e-09  6.0541876208776625e-09  6.0593929424882250e-09  6.0648047934460196e-09  6.0702755202401518e-09  6.0756641429873139e-09  6.0808396143905746e-09  6.0856829940417756e-09  6.0900886708035639e-09  6.0939653613932462e-09  6.0972362052345693e-09  6.0998386257424950e-09  6.1017242148748949e-09  6.1028586006889998e-09  6.1032211431284447e-09  6.1028049017079848e-09  6.1016165216447292e-09  6.0996763118416540e-09  6.0970184824063763e-09  6.0936913388109767e-09  6.0897574652991040e-09  6.0852939798988847e-09  6.0803926320884576e-09  6.0751596313793581e-09  6.0697148552660924e-09  6.0641905249278158e-09  6.0587288681986123e-09  6.0534787267253239e-09  6.0485909519009624e-09  6.0442126417607279e-09  6.0404796340735014e-09  6.0374767922351691e-09  6.0346418890815161e-09  6.0206033106293725e-09  2.1946364470379468e-08  2.1973903412102550e-08  6.0428704637961227e-09  6.0589396663796399e-09  6.0617807208720196e-09  6.0647102291050930e-09  6.0683294355238298e-09  6.0725428784863672e-09  6.0772097253220519e-09  6.0821827807006188e-09  6.0873162205857975e-09  6.0924705537773868e-09  6.0975162047022743e-09  6.1023354688151677e-09  6.1068237579219953e-09  6.1108896616849730e-09  6.1144550563281481e-09  6.1174547254253570e-09  6.1198358340762448e-09  6.1215577125503323e-09  6.1225913686442300e-09  6.1229193953905125e-09  6.1225357019528937e-09  6.1214455385863018e-09  6.1196655770321016e-09  6.1172240854095619e-09  6.1141611783601233e-09  6.1105291488268707e-09  6.1063929905250801e-09  6.1018309329946412e-09  6.0969347975612547e-09  6.0918101233352464e-09  6.0865760203973465e-09  6.0813640652745057e-09  6.0763160760517771e-09  6.0715805136359764e-09  6.0673069855943602e-09  6.0636379546005868e-09  6.0606598036682900e-09  6.0576599352554282e-09  6.0404717813733043e-09  2.1963109221737315e-08  2.1996089391578219e-08  6.0672304255510016e-09  6.0868879794060384e-09  6.0899006042991100e-09  6.0927847451513166e-09  6.0962951532615362e-09  6.1003294800221382e-09  6.1047393241203653e-09  6.1093782004367068e-09  6.1141091873995133e-09  6.1188079317942147e-09  6.1233638339620414e-09  6.1276802640885809e-09  6.1316732269785544e-09  6.1352706417575483e-09  6.1384115527221817e-09  6.1410450557530607e-09  6.1431298566122229e-09  6.1446340606722236e-09  6.1455348075588061e-09  6.1458180800311031e-09  6.1454788581118660e-09  6.1445207464609665e-09  6.1429564017950226e-09  6.1408073672718960e-09  6.1381042275639967e-09  6.1348869614336126e-09  6.1312054402287716e-09  6.1271200450874292e-09  6.1227026270422572e-09  6.1180375992980688e-09  6.1132233046332660e-09  6.1083729238872255e-09  6.1036146336869594e-09  6.0990904251321347e-09  6.0949521897857900e-09  6.0913532197668388e-09  6.0883879972051818e-09  6.0851718321708355e-09  6.0641976420317575e-09  2.1983074920960252e-08  2.2022545195628227e-08  6.0963586598251188e-09  6.1203575625812535e-09  6.1236170061651867e-09  6.1264804354141711e-09  6.1298717238344101e-09  6.1336705754354074e-09  6.1377175791300498e-09  6.1418717936931442e-09  6.1460154299540472e-09  6.1500526066210165e-09  6.1539050408219137e-09  6.1575084082600445e-09  6.1608087708390420e-09  6.1637598570112393e-09  6.1663223210083500e-09  6.1684622796923250e-09  6.1701513983323752e-09  6.1713672080419962e-09  6.1720931245613801e-09  6.1723186373470926e-09  6.1720396511087686e-09  6.1712582500115416e-09  6.1699828456469375e-09  6.1682279488228542e-09  6.1660136736362424e-09  6.1633659760447828e-09  6.1603164700915514e-09  6.1569026409610713e-09  6.1531689988728587e-09  6.1491689357126803e-09  6.1449677430200608e-09  6.1406465923855287e-09  6.1363071439499404e-09  6.1320755518610298e-09  6.1281034241067316e-09  6.1245613778481076e-09  6.1215658276753539e-09  6.1180431459343679e-09  6.0925030328576057e-09  2.2006848003497331e-08  2.2054035455606070e-08  6.1311613293911116e-09  6.1604510951845558e-09  6.1641076417826044e-09  6.1670343607960058e-09  6.1703260337930698e-09  6.1738233498203135e-09  6.1773530115837675e-09  6.1807930975127071e-09  6.1840677138878689e-09  6.1871338815615344e-09  6.1899682293995410e-09  6.1925564446991831e-09  6.1948869787974036e-09  6.1969473064734912e-09  6.1987235385869260e-09  6.2002008428144214e-09  6.2013640434987639e-09  6.2021997677683548e-09  6.2026970150428729e-09  6.2028482730566750e-09  6.2026501899000258e-09  6.2021035549521308e-09  6.2012129715617014e-09  6.1999864025967837e-09  6.1984338089920485e-09  6.1965663533385497e-09  6.1943949187645236e-09  6.1919290169595880e-09  6.1891769110183718e-09  6.1861470581833107e-09  6.1828524829517356e-09  6.1793186990110238e-09  6.1755956298030523e-09  6.1717723285030019e-09  6.1679902354719734e-09  6.1644457345377755e-09  6.1613046082634028e-09  6.1573036815436544e-09  6.1262260681940103e-09  2.2035103584417448e-08  2.2091377488900171e-08  6.1726613588786602e-09  6.2084797536168778e-09  6.2128490974063742e-09  6.2160586494607119e-09  6.2193402863588936e-09  6.2224585908618363e-09  6.2252320117076892e-09  6.2275935514103710e-09  6.2295575461839112e-09  6.2311805506173002e-09  6.2325307061682780e-09  6.2336693066325701e-09  6.2346421365810130e-09  6.2354781509176861e-09  6.2361911654616336e-09  6.2367843906303099e-09  6.2372538567362294e-09  6.2375925663684958e-09  6.2377931080220443e-09  6.2378495062332478e-09  6.2377588032968750e-09  6.2375210064786842e-09  6.2371384543907286e-09  6.2366146579686017e-09  6.2359517637143724e-09  6.2351478508230423e-09  6.2341930987237283e-09  6.2330656034617034e-09  6.2317281330186415e-09  6.2301264284971819e-09  6.2281926139421555e-09  6.2258563065689592e-09  6.2230670333823116e-09  6.2198291554977539e-09  6.2162434775242776e-09  6.2125369523310376e-09  6.2089758927007872e-09  6.2041498404759858e-09  6.1662932129755261e-09  2.2068580065735056e-08  2.2135301779016304e-08  6.2219089920545118e-09  6.2659593158491328e-09  6.2717268022491327e-09  6.2757372375319100e-09  6.2792437296622272e-09  6.2818785221783192e-09  6.2834928595237769e-09  6.2841678092355823e-09  6.2841094416244914e-09  6.2835578808741192e-09  6.2827303895047117e-09  6.2817966993207790e-09  6.2808747899581985e-09  6.2800377071794788e-09  6.2793240926626741e-09  6.2787488840881657e-09  6.2783126748382184e-09  6.2780086365256235e-09  6.2778283286262642e-09  6.2777647374896198e-09  6.2778144203728559e-09  6.2779777698670870e-09  6.2782580236174048e-09  6.2786589885330276e-09  6.2791809729981912e-09  6.2798153555893898e-09  6.2805371075757649e-09  6.2812949567455593e-09  6.2820004968062926e-09  6.2825179766319038e-09  6.2826594678804260e-09  6.2821935741905199e-09  6.2808790710347476e-09  6.2785319218294486e-09  6.2751242429939207e-09  6.2708916453709382e-09  6.2662908075225705e-09  6.2599081786291900e-09  6.2136184669646102e-09  2.2107992846437185e-08  2.2186069716926979e-08  6.2797223511455474e-09  6.3345465180966376e-09  6.3432442528438224e-09  6.3492177559484215e-09  6.3534513185180765e-09  6.3553981635597782e-09  6.3551014948837975e-09  6.3530221738294393e-09  6.3497647945970590e-09  6.3458957224779227e-09  6.3418610140620210e-09  6.3379718545066863e-09  6.3344230385218183e-09  6.3313218765682519e-09  6.3287162302584807e-09  6.3266169088126802e-09  6.3250145213792862e-09  6.3238912106757189e-09  6.3232290894961215e-09  6.3230154307364505e-09  6.3232451206936983e-09  6.3239211443918087e-09  6.3250530452677178e-09  6.3266535184682040e-09  6.3287326023983299e-09  6.3312893295360001e-09  6.3342992876077021e-09  6.3376963203761561e-09  6.3413480820878038e-09  6.3450268261546430e-09  6.3483809460439457e-09  6.3509248427312911e-09  6.3520654286209634e-09  6.3512049880336282e-09  6.3479562132816728e-09  6.3424529506726669e-09  6.3354599669026644e-09  6.3259104466102844e-09  6.2688161731314266e-09  2.2153796960948462e-08  2.2242599097430273e-08  6.3460005941476405e-09  6.4158873389419955e-09  6.4310462891165875e-09  6.4414937966943851e-09  6.4473593034325987e-09  6.4480385394010899e-09  6.4442874315538040e-09  6.437496009