<?xml version="1.0"?>
<VTKFile type="UnstructuredGrid"  version="0.1"  >
<UnstructuredGrid>
<Piece  NumberOfPoints="1681" NumberOfCells="3200">
<Points>
<DataArray  type="Float64"  NumberOfComponents="3"  format="ascii">0 0 0  0.025 0 0  0.05 0 0  0.075 0 0  0.1 0 0  0.125 0 0  0.15 0 0  0.175 0 0  0.2 0 0  0.225 0 0  0.25 0 0  0.275 0 0  0.3 0 0  0.325 0 0  0.35 0 0  0.375 0 0  0.4 0 0  0.425 0 0  0.45 0 0  0.475 0 0  0.5 0 0  0.525 0 0  0.55 0 0  0.575 0 0  0.6 0 0  0.625 0 0  0.65 0 0  0.675 0 0  0.7 0 0  0.725 0 0  0.75 0 0  0.775 0 0  0.8 0 0  0.825 0 0  0.85 0 0  0.875 0 0  0.9 0 0  0.925 0 0  0.95 0 0  0.975 0 0  1 0 0  0 0.025 0  0.025 0.025 0  0.05 0.025 0  0.075 0.025 0  0.1 0.025 0  0.125 0.025 0  0.15 0.025 0  0.175 0.025 0  0.2 0.025 0  0.225 0.025 0  0.25 0.025 0  0.275 0.025 0  0.3 0.025 0  0.325 0.025 0  0.35 0.025 0  0.375 0.025 0  0.4 0.025 0  0.425 0.025 0  0.45 0.025 0  0.475 0.025 0  0.5 0.025 0  0.525 0.025 0  0.55 0.025 0  0.575 0.025 0  0.6 0.025 0  0.625 0.025 0  0.65 0.025 0  0.675 0.025 0  0.7 0.025 0  0.725 0.025 0  0.75 0.025 0  0.775 0.025 0  0.8 0.025 0  0.825 0.025 0  0.85 0.025 0  0.875 0.025 0  0.9 0.025 0  0.925 0.025 0  0.95 0.025 0  0.975 0.025 0  1 0.025 0  0 0.05 0  0.025 0.05 0  0.05 0.05 0  0.075 0.05 0  0.1 0.05 0  0.125 0.05 0  0.15 0.05 0  0.175 0.05 0  0.2 0.05 0  0.225 0.05 0  0.25 0.05 0  0.275 0.05 0  0.3 0.05 0  0.325 0.05 0  0.35 0.05 0  0.375 0.05 0  0.4 0.05 0  0.425 0.05 0  0.45 0.05 0  0.475 0.05 0  0.5 0.05 0  0.525 0.05 0  0.55 0.05 0  0.575 0.05 0  0.6 0.05 0  0.625 0.05 0  0.65 0.05 0  0.675 0.05 0  0.7 0.05 0  0.725 0.05 0  0.75 0.05 0  0.775 0.05 0  0.8 0.05 0  0.825 0.05 0  0.85 0.05 0  0.875 0.05 0  0.9 0.05 0  0.925 0.05 0  0.95 0.05 0  0.975 0.05 0  1 0.05 0  0 0.075 0  0.025 0.075 0  0.05 0.075 0  0.075 0.075 0  0.1 0.075 0  0.125 0.075 0  0.15 0.075 0  0.175 0.075 0  0.2 0.075 0  0.225 0.075 0  0.25 0.075 0  0.275 0.075 0  0.3 0.075 0  0.325 0.075 0  0.35 0.075 0  0.375 0.075 0  0.4 0.075 0  0.425 0.075 0  0.45 0.075 0  0.475 0.075 0  0.5 0.075 0  0.525 0.075 0  0.55 0.075 0  0.575 0.075 0  0.6 0.075 0  0.625 0.075 0  0.65 0.075 0  0.675 0.075 0  0.7 0.075 0  0.725 0.075 0  0.75 0.075 0  0.775 0.075 0  0.8 0.075 0  0.825 0.075 0  0.85 0.075 0  0.875 0.075 0  0.9 0.075 0  0.925 0.075 0  0.95 0.075 0  0.975 0.075 0  1 0.075 0  0 0.1 0  0.025 0.1 0  0.05 0.1 0  0.075 0.1 0  0.1 0.1 0  0.125 0.1 0  0.15 0.1 0  0.175 0.1 0  0.2 0.1 0  0.225 0.1 0  0.25 0.1 0  0.275 0.1 0  0.3 0.1 0  0.325 0.1 0  0.35 0.1 0  0.375 0.1 0  0.4 0.1 0  0.425 0.1 0  0.45 0.1 0  0.475 0.1 0  0.5 0.1 0  0.525 0.1 0  0.55 0.1 0  0.575 0.1 0  0.6 0.1 0  0.625 0.1 0  0.65 0.1 0  0.675 0.1 0  0.7 0.1 0  0.725 0.1 0  0.75 0.1 0  0.775 0.1 0  0.8 0.1 0  0.825 0.1 0  0.85 0.1 0  0.875 0.1 0  0.9 0.1 0  0.925 0.1 0  0.95 0.1 0  0.975 0.1 0  1 0.1 0  0 0.125 0  0.025 0.125 0  0.05 0.125 0  0.075 0.125 0  0.1 0.125 0  0.125 0.125 0  0.15 0.125 0  0.175 0.125 0  0.2 0.125 0  0.225 0.125 0  0.25 0.125 0  0.275 0.125 0  0.3 0.125 0  0.325 0.125 0  0.35 0.125 0  0.375 0.125 0  0.4 0.125 0  0.425 0.125 0  0.45 0.125 0  0.475 0.125 0  0.5 0.125 0  0.525 0.125 0  0.55 0.125 0  0.575 0.125 0  0.6 0.125 0  0.625 0.125 0  0.65 0.125 0  0.675 0.125 0  0.7 0.125 0  0.725 0.125 0  0.75 0.125 0  0.775 0.125 0  0.8 0.125 0  0.825 0.125 0  0.85 0.125 0  0.875 0.125 0  0.9 0.125 0  0.925 0.125 0  0.95 0.125 0  0.975 0.125 0  1 0.125 0  0 0.15 0  0.025 0.15 0  0.05 0.15 0  0.075 0.15 0  0.1 0.15 0  0.125 0.15 0  0.15 0.15 0  0.175 0.15 0  0.2 0.15 0  0.225 0.15 0  0.25 0.15 0  0.275 0.15 0  0.3 0.15 0  0.325 0.15 0  0.35 0.15 0  0.375 0.15 0  0.4 0.15 0  0.425 0.15 0  0.45 0.15 0  0.475 0.15 0  0.5 0.15 0  0.525 0.15 0  0.55 0.15 0  0.575 0.15 0  0.6 0.15 0  0.625 0.15 0  0.65 0.15 0  0.675 0.15 0  0.7 0.15 0  0.725 0.15 0  0.75 0.15 0  0.775 0.15 0  0.8 0.15 0  0.825 0.15 0  0.85 0.15 0  0.875 0.15 0  0.9 0.15 0  0.925 0.15 0  0.95 0.15 0  0.975 0.15 0  1 0.15 0  0 0.175 0  0.025 0.175 0  0.05 0.175 0  0.075 0.175 0  0.1 0.175 0  0.125 0.175 0  0.15 0.175 0  0.175 0.175 0  0.2 0.175 0  0.225 0.175 0  0.25 0.175 0  0.275 0.175 0  0.3 0.175 0  0.325 0.175 0  0.35 0.175 0  0.375 0.175 0  0.4 0.175 0  0.425 0.175 0  0.45 0.175 0  0.475 0.175 0  0.5 0.175 0  0.525 0.175 0  0.55 0.175 0  0.575 0.175 0  0.6 0.175 0  0.625 0.175 0  0.65 0.175 0  0.675 0.175 0  0.7 0.175 0  0.725 0.175 0  0.75 0.175 0  0.775 0.175 0  0.8 0.175 0  0.825 0.175 0  0.85 0.175 0  0.875 0.175 0  0.9 0.175 0  0.925 0.175 0  0.95 0.175 0  0.975 0.175 0  1 0.175 0  0 0.2 0  0.025 0.2 0  0.05 0.2 0  0.075 0.2 0  0.1 0.2 0  0.125 0.2 0  0.15 0.2 0  0.175 0.2 0  0.2 0.2 0  0.225 0.2 0  0.25 0.2 0  0.275 0.2 0  0.3 0.2 0  0.325 0.2 0  0.35 0.2 0  0.375 0.2 0  0.4 0.2 0  0.425 0.2 0  0.45 0.2 0  0.475 0.2 0  0.5 0.2 0  0.525 0.2 0  0.55 0.2 0  0.575 0.2 0  0.6 0.2 0  0.625 0.2 0  0.65 0.2 0  0.675 0.2 0  0.7 0.2 0  0.725 0.2 0  0.75 0.2 0  0.775 0.2 0  0.8 0.2 0  0.825 0.2 0  0.85 0.2 0  0.875 0.2 0  0.9 0.2 0  0.925 0.2 0  0.95 0.2 0  0.975 0.2 0  1 0.2 0  0 0.225 0  0.025 0.225 0  0.05 0.225 0  0.075 0.225 0  0.1 0.225 0  0.125 0.225 0  0.15 0.225 0  0.175 0.225 0  0.2 0.225 0  0.225 0.225 0  0.25 0.225 0  0.275 0.225 0  0.3 0.225 0  0.325 0.225 0  0.35 0.225 0  0.375 0.225 0  0.4 0.225 0  0.425 0.225 0  0.45 0.225 0  0.475 0.225 0  0.5 0.225 0  0.525 0.225 0  0.55 0.225 0  0.575 0.225 0  0.6 0.225 0  0.625 0.225 0  0.65 0.225 0  0.675 0.225 0  0.7 0.225 0  0.725 0.225 0  0.75 0.225 0  0.775 0.225 0  0.8 0.225 0  0.825 0.225 0  0.85 0.225 0  0.875 0.225 0  0.9 0.225 0  0.925 0.225 0  0.95 0.225 0  0.975 0.225 0  1 0.225 0  0 0.25 0  0.025 0.25 0  0.05 0.25 0  0.075 0.25 0  0.1 0.25 0  0.125 0.25 0  0.15 0.25 0  0.175 0.25 0  0.2 0.25 0  0.225 0.25 0  0.25 0.25 0  0.275 0.25 0  0.3 0.25 0  0.325 0.25 0  0.35 0.25 0  0.375 0.25 0  0.4 0.25 0  0.425 0.25 0  0.45 0.25 0  0.475 0.25 0  0.5 0.25 0  0.525 0.25 0  0.55 0.25 0  0.575 0.25 0  0.6 0.25 0  0.625 0.25 0  0.65 0.25 0  0.675 0.25 0  0.7 0.25 0  0.725 0.25 0  0.75 0.25 0  0.775 0.25 0  0.8 0.25 0  0.825 0.25 0  0.85 0.25 0  0.875 0.25 0  0.9 0.25 0  0.925 0.25 0  0.95 0.25 0  0.975 0.25 0  1 0.25 0  0 0.275 0  0.025 0.275 0  0.05 0.275 0  0.075 0.275 0  0.1 0.275 0  0.125 0.275 0  0.15 0.275 0  0.175 0.275 0  0.2 0.275 0  0.225 0.275 0  0.25 0.275 0  0.275 0.275 0  0.3 0.275 0  0.325 0.275 0  0.35 0.275 0  0.375 0.275 0  0.4 0.275 0  0.425 0.275 0  0.45 0.275 0  0.475 0.275 0  0.5 0.275 0  0.525 0.275 0  0.55 0.275 0  0.575 0.275 0  0.6 0.275 0  0.625 0.275 0  0.65 0.275 0  0.675 0.275 0  0.7 0.275 0  0.725 0.275 0  0.75 0.275 0  0.775 0.275 0  0.8 0.275 0  0.825 0.275 0  0.85 0.275 0  0.875 0.275 0  0.9 0.275 0  0.925 0.275 0  0.95 0.275 0  0.975 0.275 0  1 0.275 0  0 0.3 0  0.025 0.3 0  0.05 0.3 0  0.075 0.3 0  0.1 0.3 0  0.125 0.3 0  0.15 0.3 0  0.175 0.3 0  0.2 0.3 0  0.225 0.3 0  0.25 0.3 0  0.275 0.3 0  0.3 0.3 0  0.325 0.3 0  0.35 0.3 0  0.375 0.3 0  0.4 0.3 0  0.425 0.3 0  0.45 0.3 0  0.475 0.3 0  0.5 0.3 0  0.525 0.3 0  0.55 0.3 0  0.575 0.3 0  0.6 0.3 0  0.625 0.3 0  0.65 0.3 0  0.675 0.3 0  0.7 0.3 0  0.725 0.3 0  0.75 0.3 0  0.775 0.3 0  0.8 0.3 0  0.825 0.3 0  0.85 0.3 0  0.875 0.3 0  0.9 0.3 0  0.925 0.3 0  0.95 0.3 0  0.975 0.3 0  1 0.3 0  0 0.325 0  0.025 0.325 0  0.05 0.325 0  0.075 0.325 0  0.1 0.325 0  0.125 0.325 0  0.15 0.325 0  0.175 0.325 0  0.2 0.325 0  0.225 0.325 0  0.25 0.325 0  0.275 0.325 0  0.3 0.325 0  0.325 0.325 0  0.35 0.325 0  0.375 0.325 0  0.4 0.325 0  0.425 0.325 0  0.45 0.325 0  0.475 0.325 0  0.5 0.325 0  0.525 0.325 0  0.55 0.325 0  0.575 0.325 0  0.6 0.325 0  0.625 0.325 0  0.65 0.325 0  0.675 0.325 0  0.7 0.325 0  0.725 0.325 0  0.75 0.325 0  0.775 0.325 0  0.8 0.325 0  0.825 0.325 0  0.85 0.325 0  0.875 0.325 0  0.9 0.325 0  0.925 0.325 0  0.95 0.325 0  0.975 0.325 0  1 0.325 0  0 0.35 0  0.025 0.35 0  0.05 0.35 0  0.075 0.35 0  0.1 0.35 0  0.125 0.35 0  0.15 0.35 0  0.175 0.35 0  0.2 0.35 0  0.225 0.35 0  0.25 0.35 0  0.275 0.35 0  0.3 0.35 0  0.325 0.35 0  0.35 0.35 0  0.375 0.35 0  0.4 0.35 0  0.425 0.35 0  0.45 0.35 0  0.475 0.35 0  0.5 0.35 0  0.525 0.35 0  0.55 0.35 0  0.575 0.35 0  0.6 0.35 0  0.625 0.35 0  0.65 0.35 0  0.675 0.35 0  0.7 0.35 0  0.725 0.35 0  0.75 0.35 0  0.775 0.35 0  0.8 0.35 0  0.825 0.35 0  0.85 0.35 0  0.875 0.35 0  0.9 0.35 0  0.925 0.35 0  0.95 0.35 0  0.975 0.35 0  1 0.35 0  0 0.375 0  0.025 0.375 0  0.05 0.375 0  0.075 0.375 0  0.1 0.375 0  0.125 0.375 0  0.15 0.375 0  0.175 0.375 0  0.2 0.375 0  0.225 0.375 0  0.25 0.375 0  0.275 0.375 0  0.3 0.375 0  0.325 0.375 0  0.35 0.375 0  0.375 0.375 0  0.4 0.375 0  0.425 0.375 0  0.45 0.375 0  0.475 0.375 0  0.5 0.375 0  0.525 0.375 0  0.55 0.375 0  0.575 0.375 0  0.6 0.375 0  0.625 0.375 0  0.65 0.375 0  0.675 0.375 0  0.7 0.375 0  0.725 0.375 0  0.75 0.375 0  0.775 0.375 0  0.8 0.375 0  0.825 0.375 0  0.85 0.375 0  0.875 0.375 0  0.9 0.375 0  0.925 0.375 0  0.95 0.375 0  0.975 0.375 0  1 0.375 0  0 0.4 0  0.025 0.4 0  0.05 0.4 0  0.075 0.4 0  0.1 0.4 0  0.125 0.4 0  0.15 0.4 0  0.175 0.4 0  0.2 0.4 0  0.225 0.4 0  0.25 0.4 0  0.275 0.4 0  0.3 0.4 0  0.325 0.4 0  0.35 0.4 0  0.375 0.4 0  0.4 0.4 0  0.425 0.4 0  0.45 0.4 0  0.475 0.4 0  0.5 0.4 0  0.525 0.4 0  0.55 0.4 0  0.575 0.4 0  0.6 0.4 0  0.625 0.4 0  0.65 0.4 0  0.675 0.4 0  0.7 0.4 0  0.725 0.4 0  0.75 0.4 0  0.775 0.4 0  0.8 0.4 0  0.825 0.4 0  0.85 0.4 0  0.875 0.4 0  0.9 0.4 0  0.925 0.4 0  0.95 0.4 0  0.975 0.4 0  1 0.4 0  0 0.425 0  0.025 0.425 0  0.05 0.425 0  0.075 0.425 0  0.1 0.425 0  0.125 0.425 0  0.15 0.425 0  0.175 0.425 0  0.2 0.425 0  0.225 0.425 0  0.25 0.425 0  0.275 0.425 0  0.3 0.425 0  0.325 0.425 0  0.35 0.425 0  0.375 0.425 0  0.4 0.425 0  0.425 0.425 0  0.45 0.425 0  0.475 0.425 0  0.5 0.425 0  0.525 0.425 0  0.55 0.425 0  0.575 0.425 0  0.6 0.425 0  0.625 0.425 0  0.65 0.425 0  0.675 0.425 0  0.7 0.425 0  0.725 0.425 0  0.75 0.425 0  0.775 0.425 0  0.8 0.425 0  0.825 0.425 0  0.85 0.425 0  0.875 0.425 0  0.9 0.425 0  0.925 0.425 0  0.95 0.425 0  0.975 0.425 0  1 0.425 0  0 0.45 0  0.02
[...]
<PointData  Scalars="ControlVisualisation"> 
<DataArray  type="Float64"  Name="ControlVisualisation"  format="ascii">3.7818093369124565e-08  2.1879265966710264e-08  2.1880363575934581e-08  2.1882199129135094e-08  2.1884716552857143e-08  2.1887849982489558e-08  2.1891514896133901e-08  2.1895613689814214e-08  2.1900038070639027e-08  2.1904673093880763e-08  2.1909397827526005e-08  2.1914091366859339e-08  2.1918634677992145e-08  2.1922914331757341e-08  2.1926825627468569e-08  2.1930270921917696e-08  2.1933168530315879e-08  2.1935448503885032e-08  2.1937056139533393e-08  2.1937953965723680e-08  2.1938121202260622e-08  2.1937553114609650e-08  2.1936264684760662e-08  2.1934285054564249e-08  2.1931662726773177e-08  2.1928459828325176e-08  2.1924753730786755e-08  2.1920634671180147e-08  2.1916204035732209e-08  2.1911571602326909e-08  2.1906854105437267e-08  2.1902171288959954e-08  2.1897643072021250e-08  2.1893386876587995e-08  2.1889513796622916e-08  2.1886126162324939e-08  2.1883313630456193e-08  2.1881150944601631e-08  2.1879701424766580e-08  2.1878979739870746e-08  8.5633959647741693e-08  2.1879268526190009e-08  5.9400517490661012e-09  5.9411274821635121e-09  5.9430207900450235e-09  5.9457009189060812e-09  5.9490965151211083e-09  5.9531164418519313e-09  5.9576537833843634e-09  5.9625889088640962e-09  5.9677931005173008e-09  5.9731314780688732e-09  5.9784667022831638e-09  5.9836633066689305e-09  5.9885902720802447e-09  5.9931274147149032e-09  5.9971614557493677e-09  6.0005941689687006e-09  6.0033437034683613e-09  6.0053439613146854e-09  6.0065464657984050e-09  6.0069244139982157e-09  6.0064676980340807e-09  6.0051883225365584e-09  6.0031162852952060e-09  6.0003012126780906e-09  5.9968111305514527e-09  5.9927303049653704e-09  5.9881580490907204e-09  5.9832069516162525e-09  5.9779998188837176e-09  5.9726673151764860e-09  5.9673445977880012e-09  5.9621677115055235e-09  5.9572700738616296e-09  5.9527792111654009e-09  5.9488128908453258e-09  5.9454757872613101e-09  5.9428564453848388e-09  5.9410227565013334e-09  5.9399670690380060e-09  2.1878980123319666e-08  2.1880393485588654e-08  5.9411494421946044e-09  5.9424955635038223e-09  5.9446531577315405e-09  5.9477132492484511e-09  5.9515983481981610e-09  5.9562046676833774e-09  5.9614098070937077e-09  5.9670764718647867e-09  5.9730562688931879e-09  5.9791945655724055e-09  5.9853331858557780e-09  5.9913170285266418e-09  5.9969946272316061e-09  6.0022258988259989e-09  6.0068834340557253e-09  6.0108519984041817e-09  6.0140367004251446e-09  6.0163620694300047e-09  6.0177719494577804e-09  6.0182334652692922e-09  6.0177360960293212e-09  6.0162915273909984e-09  6.0139345820154581e-09  6.0107215807468284e-09  6.0067291693255655e-09  6.0020540432432600e-09  5.9968101890004853e-09  5.9911263509256038e-09  5.9851438994020012e-09  5.9790120533157434e-09  5.9728864876759553e-09  5.9669238563921559e-09  5.9612777325600544e-09  5.9560952289167894e-09  5.9515120854502298e-09  5.9476495126859782e-09  5.9446088609593853e-09  5.9424592620713944e-09  5.9410413850050088e-09  2.1879711093517065e-08  2.1882342292442652e-08  5.9431436623938268e-09  5.9447651218916584e-09  5.9469487254213865e-09  5.9500294703096694e-09  5.9539400884092407e-09  5.9585767744497009e-09  5.9638158931139279e-09  5.9695191021291385e-09  5.9755365272365995e-09  5.9817123836463204e-09  5.9878872838086121e-09  5.9939049460816414e-09  5.9996149351295314e-09  6.0048743363673293e-09  6.0095558133142036e-09  6.0135455097030709e-09  6.0167474487225676e-09  6.0190849653065477e-09  6.0205033511156345e-09  6.0209689171256213e-09  6.0204721884270619e-09  6.0190235642493243e-09  6.0166583896280796e-09  6.0134322442025751e-09  6.0094224055690374e-09  6.0047249723325703e-09  5.9994547237943746e-09  5.9937407478531535e-09  5.9877241673507992e-09  5.9815557116992580e-09  5.9753913604345952e-09  5.9693891106235521e-09  5.9637038174724860e-09  5.9584838491415700e-09  5.9538663613299329e-09  5.9499735019185141e-09  5.9469067214193501e-09  5.9447187900528671e-09  5.9429670858140073e-09  2.1881218436201354e-08  2.1885162951783747e-08  5.9461108334403071e-09  5.9481467717958412e-09  5.9503524216313919e-09  5.9534350189281681e-09  5.9573458041237561e-09  5.9619815623542723e-09  5.9672179838558752e-09  5.9729163457971679e-09  5.9789269675556156e-09  5.9850935705510157e-09  5.9912568976460447e-09  5.9972606204182952e-09  6.0029549763089994e-09  6.0081986530602403e-09  6.0128636484933858e-09  6.0168384493201857e-09  6.0200276834981538e-09  6.0223556837155808e-09  6.0237674307422140e-09  6.0242301311735732e-09  6.0237352695631580e-09  6.0222926097842371e-09  6.0199361964138170e-09  6.0167216954815127e-09  6.0127255511003206e-09  6.0080433396476383e-09  6.0027877082529541e-09  5.9970877084300083e-09  5.9910838209027663e-09  5.9849255643563645e-09  5.9787693694369993e-09  5.9727726411334687e-09  5.9670907389493962e-09  5.9618723597274675e-09  5.9572551004886489e-09  5.9533613673985901e-09  5.9502917358265512e-09  5.9480749971982248e-09  5.9458531977933703e-09  2.1883567734412337e-08  2.1888935600574875e-08  5.9501346036968019e-09  5.9527404634172926e-09  5.9549749717141757e-09  5.9580576097792266e-09  5.9619660804366944e-09  5.9665975847293291e-09  5.9718269132707455e-09  5.9775150081297758e-09  5.9835115412303385e-09  5.9896603099648962e-09  5.9958032022833639e-09  6.0017834406414500e-09  6.0074520379482670e-09  6.0126697293765233e-09  6.0173090723034730e-09  6.0212600114372286e-09  6.0244288841570570e-09  6.0267406765882410e-09  6.0281428468435792e-09  6.0286024605141542e-09  6.0281091532267426e-09  6.0266749535322611e-09  6.0243325016596907e-09  6.0211363714272711e-09  6.0171617856421559e-09  6.0125033842185664e-09  6.0072722642149329e-09  6.0015951367994793e-09  5.9956128704141378e-09  5.9894733395504889e-09  5.9833328354837635e-09  5.9773483359815068e-09  5.9716752591261186e-09  5.9664627706487820e-09  5.9618491744687716e-09  5.9579572662673678e-09  5.9548863440936620e-09  5.9526332970793958e-09  5.9497821906630925e-09  2.1886818602994640e-08  2.1893766412061970e-08  5.9553285843982023e-09  5.9586764564665689e-09  5.9609481185140197e-09  5.9640295146104564e-09  5.9679327686650941e-09  5.9725561503873339e-09  5.9777742267797256e-09  5.9834462479617994e-09  5.9894222616725637e-09  5.9955446434972834e-09  6.0016568307365893e-09  6.0076038911203677e-09  6.0132363944003288e-09  6.0184169517884607e-09  6.0230204792557796e-09  6.0269384428405419e-09  6.0300791739343565e-09  6.0323687150032166e-09  6.0337569698772096e-09  6.0342118661600628e-09  6.0337222493230408e-09  6.0322991442749193e-09  6.0299759845125244e-09  6.0268056952544310e-09  6.0228613180926635e-09  6.0182362234864151e-09  6.0130394724841173e-09  6.0073959576410711e-09  6.0014442737141701e-09  5.9953324195005349e-09  5.9892148353888849e-09  5.9832488191090993e-09  5.9775897518672061e-09  5.9723871736168376e-09  5.9677801188567429e-09  5.9638921637965744e-09  5.9608210727951774e-09  5.9585226554313380e-09  5.9548639918879637e-09  2.1891061480729139e-08  2.1899792203801855e-08  5.9618411777632119e-09  5.9661243447564155e-09  5.9684419434105373e-09  5.9715199580953078e-09  5.9754146708704265e-09  5.9800244987900498e-09  5.9852241406157607e-09  5.9908716359890611e-09  5.9968167052402671e-09  6.0029027799060248e-09  6.0089712470295838e-09  6.0148700840884484e-09  6.0204522911887949e-09  6.0255822641750762e-09  6.0301361872669297e-09  6.0340090839509831e-09  6.0371121820132594e-09  6.0393728747966688e-09  6.0407420407171589e-09  6.0411895864881215e-09  6.0407046264354461e-09  6.0392982559282937e-09  6.0370013205870218e-09  6.0338658327645553e-09  6.0299631316607828e-09  6.0253837625736715e-09  6.0202345554449749e-09  6.0146380213418322e-09  6.0087299701730163e-09  6.0026569505042277e-09  5.9965729293557112e-09  5.9906343712961592e-09  5.9849966779402984e-09  5.9798099950938084e-09  5.9752139445148894e-09  5.9713330697354702e-09  5.9682633107844479e-09  5.9659095345859761e-09  5.9612423847127890e-09  2.1896415191915719e-08  2.1907186307594944e-08  5.9698607415167964e-09  5.9752992820905819e-09  5.9776722502396272e-09  5.9807434142693859e-09  5.9846236413957916e-09  5.9892132306056347e-09  5.9943847787817684e-09  5.9999959956318787e-09  6.0058952664822130e-09  6.0119279293297199e-09  6.0179357839778225e-09  6.0237679214674962e-09  6.0292801646969395e-09  6.0343402645086170e-09  6.0388272483587883e-09  6.0426389248613465e-09  6.0456905504236089e-09  6.0479129541747667e-09  6.0492576786769824e-09  6.0496955661472539e-09  6.0492169602030228e-09  6.0478323185911458e-09  6.0455710770006018e-09  6.0424831816667657e-09  6.0386374262406544e-09  6.0341208344449440e-09  6.0290368390879731e-09  6.0235050892266112e-09  6.0176584545315204e-09  6.0116410735164305e-09  6.0056053423701606e-09  5.9997070133576277e-09  5.9941013493706386e-09  5.9889389515700999e-09  5.9843602631695829e-09  5.9804911381266874e-09  5.9774253497187349e-09  5.9750051192019496e-09  5.9690991245924069e-09  2.1903030467755708e-08  2.1916163024163602e-08  5.9796229764495900e-09  5.9864716265439227e-09  5.9889093503449483e-09  5.9919686359551398e-09  5.9958260436341060e-09  6.0003836360558953e-09  6.0055131446975957e-09  6.0110712062531268e-09  6.0169056849273324e-09  6.0228616188258219e-09  6.0287838239746806e-09  6.0345226713872758e-09  6.0399387500316423e-09  6.0449024853469389e-09  6.0492989712306544e-09  6.0530292083847625e-09  6.0560122777918520e-09  6.0581820857500087e-09  6.0594942530802124e-09  6.0599201512191661e-09  6.0594498056727626e-09  6.0580948270173227e-09  6.0558818567542235e-09  6.0528585430686236e-09  6.0490903504303200e-09  6.0446593998963000e-09  6.0396649801363178e-09  6.0342230815093332e-09  6.0284624726131175e-09  6.0225239271894871e-09  6.0165573246940128e-09  6.0107172927609678e-09  6.0051586899688692e-09  6.0000324812871988e-09  5.9954804367349845e-09  5.9916296318683641e-09  5.9885715953582543e-09  5.9860726804968371e-09  5.9786612628111811e-09  2.1911095421007066e-08  2.1926985567741346e-08  5.9914168589300535e-09  5.9999736565665483e-09  6.0024879735017801e-09  6.0055281891084933e-09  6.0093517380329042e-09  6.0138622917603820e-09  6.0189295562339473e-09  6.0244095299396564e-09  6.0301499024693218e-09  6.0359974207087109e-09  6.0417988511377108e-09  6.0474081423575250e-09  6.0526913961029798e-09  6.0575233725748655e-09  6.0617963000337518e-09  6.0654166971064243e-09  6.0683083067959587e-09  6.0704089456854735e-09  6.0716760232004746e-09  6.0720864098898094e-09  6.0716287164863305e-09  6.0703138819773176e-09  6.0681666535615100e-09  6.0652301448798858e-09  6.0615668530848378e-09  6.0572527632349605e-09  6.0523822394705562e-09  6.0470650651909109e-09  6.0414250404183509e-09  6.0355977789612611e-09  6.0297299569406732e-09  6.0239739822824024e-09  6.0184838558165249e-09  6.0134108225201072e-09  6.0088980628145133e-09  6.0050746646024283e-09  6.0020293864098138e-09  5.9994374158717713e-09  5.9902084440420725e-09  2.1920842169956507e-08  2.1939977011948464e-08  6.0055996391480131e-09  6.0162145641047824e-09  6.0188183281124817e-09  6.0218315945841509e-09  6.0256066302747029e-09  6.0300494590547906e-09  6.0350266255085826e-09  6.0403943062940030e-09  6.0459992735514655e-09  6.0516914136240926e-09  6.0573223562819730e-09  6.0627510742348165e-09  6.0678501070830569e-09  6.0725030691095757e-09  6.0766071083908954e-09  6.0800790703759310e-09  6.0828477442970290e-09  6.0848564021013606e-09  6.0860658910249532e-09  6.0864544183108307e-09  6.0860149884089262e-09  6.0847537400009883e-09  6.0826948893825050e-09  6.0798763528905884e-09  6.0763554138179050e-09  6.0722016667319177e-09  6.0675022696182958e-09  6.0623588691121009e-09  6.0568873709196911e-09  6.0512181255891002e-09  6.0454915632463356e-09  6.0398563536257050e-09  6.0344648194133778e-09  6.0294684377397211e-09  6.0250118592779703e-09  6.0212270488347294e-09  6.0182003798007547e-09  6.0154981248079601e-09  6.0040833220012180e-09  2.1932554051524080e-08  2.1955529249072887e-08  6.0226074524079875e-09  6.0356983793740596e-09  6.0384081116290264e-09  6.0413835487927381e-09  6.0450915874198310e-09  6.0494384186930006e-09  6.0542872363797108e-09  6.0594925345450920e-09  6.0649046034917356e-09  6.0703753398392497e-09  6.0757647537106259e-09  6.0809400692335382e-09  6.0857840083347650e-09  6.0901907496953335e-09  6.0940673246045483e-09  6.0973370258602102e-09  6.0999398267874160e-09  6.1018258812875191e-09  6.1029604096623488e-09  6.1033217158788222e-09  6.1029059151214198e-09  6.1017179131387276e-09  6.0997770276786967e-09  6.0971189729709386e-09  6.0937922788767393e-09  6.0898582199527186e-09  6.0853949067828956e-09  6.0804935596103083e-09  6.0752598446504384e-09  6.0698151678038514e-09  6.0642909581050894e-09  6.0588291524659793e-09  6.0535791629590977e-09  6.0486913129390521e-09  6.0443125103081641e-09  6.0405792989570303e-09  6.0375764395173137e-09  6.0347414515442397e-09  6.0207025112108658e-09  2.1946575014499482e-08  2.1974114598301357e-08  6.0429702835822478e-09  6.0590394339169520e-09  6.0618805623113037e-09  6.0648098895326413e-09  6.0684293705847358e-09  6.0726428638505656e-09  6.0773099247344539e-09  6.0822824741133937e-09  6.0874167647807091e-09  6.0925705742913597e-09  6.0976178264004925e-09  6.1024370485367036e-09  6.1069256651062354e-09  6.1109917371415534e-09  6.1145579012256569e-09  6.1175570299955319e-09  6.1199371553791623e-09  6.1216595365283248e-09  6.1226940260219503e-09  6.1230211349952809e-09  6.1226366742857999e-09  6.1215473214240198e-09  6.1197666823980379e-09  6.1173250178865570e-09  6.1142625469722273e-09  6.1106308170820041e-09  6.1064941829175124e-09  6.1019316964265570e-09  6.0970352248634664e-09  6.0919109721727424e-09  6.0866771039256187e-09  6.0814646936984612e-09  6.0764167035620355e-09  6.0716810695472852e-09  6.0674070976771815e-09  6.0637378802165808e-09  6.0607597308783007e-09  6.0577600109768579e-09  6.0405714651529810e-09  2.1963320100119250e-08  2.1996299519409004e-08  6.0673298433644497e-09  6.0869885448074935e-09  6.0900013391088205e-09  6.0928852723196806e-09  6.0963957235039674e-09  6.1004300164336268e-09  6.1048407648275537e-09  6.1094796205614710e-09  6.1142109648477741e-09  6.1189090842574030e-09  6.1234647498842829e-09  6.1277832729974085e-09  6.1317763231113632e-09  6.1353740838834249e-09  6.1385145615098604e-09  6.1411475566974143e-09  6.1432323420115574e-09  6.1447363459748425e-09  6.1456379233011985e-09  6.1459209851196632e-09  6.1455803102244026e-09  6.1446225914753333e-09  6.1430582061032946e-09  6.1409090022146091e-09  6.1382061833944969e-09  6.1349890964989695e-09  6.1313071314345531e-09  6.1272207602368747e-09  6.1228038494395140e-09  6.1181390628556559e-09  6.1133246126236786e-09  6.1084739448780692e-09  6.1037154948460658e-09  6.0991910134005867e-09  6.0950523625513345e-09  6.0914533525481252e-09  6.0884881510773917e-09  6.0852719950442826e-09  6.0642974648443627e-09  2.1983286082551362e-08  2.2022758162736735e-08  6.0964594938004134e-09  6.1204588469380547e-09  6.1237187967413696e-09  6.1265823012732668e-09  6.1299737598991525e-09  6.1337728119577288e-09  6.1378188083515094e-09  6.1419738437975645e-09  6.1461181205900215e-09  6.1501547586941531e-09  6.1540062310549389e-09  6.1576108896267189e-09  6.1609126158513961e-09  6.1638638205371131e-09  6.1664265057077686e-09  6.1685650958471629e-09  6.1702541435811901e-09  6.1714710143477140e-09  6.1721962900360970e-09  6.1724226568462593e-09  6.1721423988937606e-09  6.1713604453654379e-09  6.1700854923777415e-09  6.1683310580022510e-09  6.1661166566587745e-09  6.1634685295759883e-09  6.1604185691048121e-09  6.1570045024103306e-09  6.1532712144749040e-09  6.1492710674675587e-09  6.1450695821443251e-09  6.1407483882355696e-09  6.1364087254374672e-09  6.1321766802736747e-09  6.1282040979183761e-09  6.1246621628021934e-09  6.1216669750873630e-09  6.1181439539832338e-09  6.0926030746520919e-09  2.2007059244303485e-08  2.2054247530648909e-08  6.1312633509869853e-09  6.1605544007659485e-09  6.1642098382740486e-09  6.1671368789025423e-09  6.1704283521907987e-09  6.1739268293589372e-09  6.1774556170595249e-09  6.1808947549685898e-09  6.1841703845006204e-09  6.1872366186100074e-09  6.1900710653707717e-09  6.1926597540582617e-09  6.1949912761780089e-09  6.1970520857807050e-09  6.1988283298831938e-09  6.2003050568341635e-09  6.2014672335714242e-09  6.2023039375598637e-09  6.2028010354056658e-09  6.2029524498399810e-09  6.2027544724282459e-09  6.2022066468521911e-09  6.2013164763476567e-09  6.2000913181720730e-09  6.1985381587019787e-09  6.1966695972306197e-09  6.1944979128043454e-09  6.1920322158737453e-09  6.1892800273585587e-09  6.1862499052435808e-09  6.1829551133462833e-09  6.1794212968573934e-09  6.1756978700181354e-09  6.1718740773979881e-09  6.1680919267151947e-09  6.1645477068531565e-09  6.1614067655423303e-09  6.1574055917575923e-09  6.1263270835563589e-09  2.2035315519379927e-08  2.2091591813859172e-08  6.1727634154309418e-09  6.2085830521483194e-09  6.2129526525130001e-09  6.2161626302744479e-09  6.2194434142806959e-09  6.2225610398032912e-09  6.2253353062437260e-09  6.2276970520060385e-09  6.2296606628656665e-09  6.2312846859297854e-09  6.2326348423160957e-09  6.2337739503227846e-09  6.2347470975240107e-09  6.2355851192049332e-09  6.2362971737107269e-09  6.2368894702330406e-09  6.2373580251222443e-09  6.2376979070484108e-09  6.2378985587097901e-09  6.2379550346278127e-09  6.2378640667478322e-09  6.2376258976056703e-09  6.2372429347473003e-09  6.2367208461233984e-09  6.2360577984697620e-09  6.2352518232880857e-09  6.2342972705924043e-09  6.2331695138103028e-09  6.2318319733823687e-09  6.2302300796998784e-09  6.2282964400106689e-09  6.2259598574364573e-09  6.2231699944399898e-09  6.2199318007888518e-09  6.2163461076407959e-09  6.2126394896575656e-09  6.2090783529049207e-09  6.2042522919549330e-09  6.1663949804152257e-09  2.2068792784306102e-08  2.2135517660530787e-08  6.2220138034380965e-09  6.2660639607290795e-09  6.2718309729910986e-09  6.2758419840947614e-09  6.2793497196225548e-09  6.2819831994784097e-09  6.2835966761288082e-09  6.2842725334515291e-09  6.2842146935867099e-09  6.2836618340215870e-09  6.2828356165678309e-09  6.2819033686233546e-09  6.2809801577089316e-09  6.2801448154139272e-09  6.2794312940762822e-09  6.2788558127390007e-09  6.2784184686452493e-09  6.2781151786377748e-09  6.2779353125502366e-09  6.2778716610274496e-09  6.2779204881540229e-09  6.2780841898487233e-09  6.2783648017654480e-09  6.2787659904992651e-09  6.2792878904145735e-09  6.2799206000862015e-09  6.2806421637703521e-09  6.2813993509568371e-09  6.2821050458054292e-09  6.2826228801977789e-09  6.2827642339252048e-09  6.2822977977200828e-09  6.2809828021597541e-09  6.2786356288236982e-09  6.2752279388661984e-09  6.2709952441762486e-09  6.2663942499563005e-09  6.2600114249199126e-09  6.2137210865488486e-09  2.2108206343315293e-08  2.2186285123192315e-08  6.2798270798946400e-09  6.3346524062497757e-09  6.3433499747670920e-09  6.3493231717824431e-09  6.3535580732180324e-09  6.3555051533611179e-09  6.3552072371764187e-09  6.3531273857767344e-09  6.3498713688934514e-09  6.3460019663711269e-09  6.3419665415797157e-09  6.3380797135184159e-09  6.3345312856902027e-09  6.3314299273201588e-09  6.3288252988924082e-09  6.3267252664633843e-09  6.3251218393573738e-09  6.3239982859161544e-09  6.3233377307668082e-09  6.3231234048412377e-09  6.3233531729266597e-09  6.3240293038282666e-09  6.3251628388710700e-09  6.3267622496683358e-09  6.3288400734799810e-09  6.3313965362537294e-09  6.3344059281071516e-09  6.3378018816295386e-09  6.3414542365114184e-09  6.3451337457124850e-09  6.3484873999107355e-09  6.3510305019447487e-09  6.3521703833251342e-09  6.3513103555564879e-09  6.3480618751485371e-09  6.3425584143641923e-09  6.3355654012659288e-09  6.3260159086449307e-09  6.2689201196065007e-09  2.2154011475779946e-08  2.2242816020539120e-08  6.3461059851925448e-09  6.4159940695214334e-09  6.4311538144995034e-09  6.4416020045645253e-09  6.4474680834381502e-09  6.4481479362406066e-09  6.4443956791477876e-09  6.437604131