<?xml version="1.0"?>
<VTKFile type="UnstructuredGrid"  version="0.1"  >
<UnstructuredGrid>
<Piece  NumberOfPoints="1681" NumberOfCells="3200">
<Points>
<DataArray  type="Float64"  NumberOfComponents="3"  format="ascii">0 0 0  0.025 0 0  0.05 0 0  0.075 0 0  0.1 0 0  0.125 0 0  0.15 0 0  0.175 0 0  0.2 0 0  0.225 0 0  0.25 0 0  0.275 0 0  0.3 0 0  0.325 0 0  0.35 0 0  0.375 0 0  0.4 0 0  0.425 0 0  0.45 0 0  0.475 0 0  0.5 0 0  0.525 0 0  0.55 0 0  0.575 0 0  0.6 0 0  0.625 0 0  0.65 0 0  0.675 0 0  0.7 0 0  0.725 0 0  0.75 0 0  0.775 0 0  0.8 0 0  0.825 0 0  0.85 0 0  0.875 0 0  0.9 0 0  0.925 0 0  0.95 0 0  0.975 0 0  1 0 0  0 0.025 0  0.025 0.025 0  0.05 0.025 0  0.075 0.025 0  0.1 0.025 0  0.125 0.025 0  0.15 0.025 0  0.175 0.025 0  0.2 0.025 0  0.225 0.025 0  0.25 0.025 0  0.275 0.025 0  0.3 0.025 0  0.325 0.025 0  0.35 0.025 0  0.375 0.025 0  0.4 0.025 0  0.425 0.025 0  0.45 0.025 0  0.475 0.025 0  0.5 0.025 0  0.525 0.025 0  0.55 0.025 0  0.575 0.025 0  0.6 0.025 0  0.625 0.025 0  0.65 0.025 0  0.675 0.025 0  0.7 0.025 0  0.725 0.025 0  0.75 0.025 0  0.775 0.025 0  0.8 0.025 0  0.825 0.025 0  0.85 0.025 0  0.875 0.025 0  0.9 0.025 0  0.925 0.025 0  0.95 0.025 0  0.975 0.025 0  1 0.025 0  0 0.05 0  0.025 0.05 0  0.05 0.05 0  0.075 0.05 0  0.1 0.05 0  0.125 0.05 0  0.15 0.05 0  0.175 0.05 0  0.2 0.05 0  0.225 0.05 0  0.25 0.05 0  0.275 0.05 0  0.3 0.05 0  0.325 0.05 0  0.35 0.05 0  0.375 0.05 0  0.4 0.05 0  0.425 0.05 0  0.45 0.05 0  0.475 0.05 0  0.5 0.05 0  0.525 0.05 0  0.55 0.05 0  0.575 0.05 0  0.6 0.05 0  0.625 0.05 0  0.65 0.05 0  0.675 0.05 0  0.7 0.05 0  0.725 0.05 0  0.75 0.05 0  0.775 0.05 0  0.8 0.05 0  0.825 0.05 0  0.85 0.05 0  0.875 0.05 0  0.9 0.05 0  0.925 0.05 0  0.95 0.05 0  0.975 0.05 0  1 0.05 0  0 0.075 0  0.025 0.075 0  0.05 0.075 0  0.075 0.075 0  0.1 0.075 0  0.125 0.075 0  0.15 0.075 0  0.175 0.075 0  0.2 0.075 0  0.225 0.075 0  0.25 0.075 0  0.275 0.075 0  0.3 0.075 0  0.325 0.075 0  0.35 0.075 0  0.375 0.075 0  0.4 0.075 0  0.425 0.075 0  0.45 0.075 0  0.475 0.075 0  0.5 0.075 0  0.525 0.075 0  0.55 0.075 0  0.575 0.075 0  0.6 0.075 0  0.625 0.075 0  0.65 0.075 0  0.675 0.075 0  0.7 0.075 0  0.725 0.075 0  0.75 0.075 0  0.775 0.075 0  0.8 0.075 0  0.825 0.075 0  0.85 0.075 0  0.875 0.075 0  0.9 0.075 0  0.925 0.075 0  0.95 0.075 0  0.975 0.075 0  1 0.075 0  0 0.1 0  0.025 0.1 0  0.05 0.1 0  0.075 0.1 0  0.1 0.1 0  0.125 0.1 0  0.15 0.1 0  0.175 0.1 0  0.2 0.1 0  0.225 0.1 0  0.25 0.1 0  0.275 0.1 0  0.3 0.1 0  0.325 0.1 0  0.35 0.1 0  0.375 0.1 0  0.4 0.1 0  0.425 0.1 0  0.45 0.1 0  0.475 0.1 0  0.5 0.1 0  0.525 0.1 0  0.55 0.1 0  0.575 0.1 0  0.6 0.1 0  0.625 0.1 0  0.65 0.1 0  0.675 0.1 0  0.7 0.1 0  0.725 0.1 0  0.75 0.1 0  0.775 0.1 0  0.8 0.1 0  0.825 0.1 0  0.85 0.1 0  0.875 0.1 0  0.9 0.1 0  0.925 0.1 0  0.95 0.1 0  0.975 0.1 0  1 0.1 0  0 0.125 0  0.025 0.125 0  0.05 0.125 0  0.075 0.125 0  0.1 0.125 0  0.125 0.125 0  0.15 0.125 0  0.175 0.125 0  0.2 0.125 0  0.225 0.125 0  0.25 0.125 0  0.275 0.125 0  0.3 0.125 0  0.325 0.125 0  0.35 0.125 0  0.375 0.125 0  0.4 0.125 0  0.425 0.125 0  0.45 0.125 0  0.475 0.125 0  0.5 0.125 0  0.525 0.125 0  0.55 0.125 0  0.575 0.125 0  0.6 0.125 0  0.625 0.125 0  0.65 0.125 0  0.675 0.125 0  0.7 0.125 0  0.725 0.125 0  0.75 0.125 0  0.775 0.125 0  0.8 0.125 0  0.825 0.125 0  0.85 0.125 0  0.875 0.125 0  0.9 0.125 0  0.925 0.125 0  0.95 0.125 0  0.975 0.125 0  1 0.125 0  0 0.15 0  0.025 0.15 0  0.05 0.15 0  0.075 0.15 0  0.1 0.15 0  0.125 0.15 0  0.15 0.15 0  0.175 0.15 0  0.2 0.15 0  0.225 0.15 0  0.25 0.15 0  0.275 0.15 0  0.3 0.15 0  0.325 0.15 0  0.35 0.15 0  0.375 0.15 0  0.4 0.15 0  0.425 0.15 0  0.45 0.15 0  0.475 0.15 0  0.5 0.15 0  0.525 0.15 0  0.55 0.15 0  0.575 0.15 0  0.6 0.15 0  0.625 0.15 0  0.65 0.15 0  0.675 0.15 0  0.7 0.15 0  0.725 0.15 0  0.75 0.15 0  0.775 0.15 0  0.8 0.15 0  0.825 0.15 0  0.85 0.15 0  0.875 0.15 0  0.9 0.15 0  0.925 0.15 0  0.95 0.15 0  0.975 0.15 0  1 0.15 0  0 0.175 0  0.025 0.175 0  0.05 0.175 0  0.075 0.175 0  0.1 0.175 0  0.125 0.175 0  0.15 0.175 0  0.175 0.175 0  0.2 0.175 0  0.225 0.175 0  0.25 0.175 0  0.275 0.175 0  0.3 0.175 0  0.325 0.175 0  0.35 0.175 0  0.375 0.175 0  0.4 0.175 0  0.425 0.175 0  0.45 0.175 0  0.475 0.175 0  0.5 0.175 0  0.525 0.175 0  0.55 0.175 0  0.575 0.175 0  0.6 0.175 0  0.625 0.175 0  0.65 0.175 0  0.675 0.175 0  0.7 0.175 0  0.725 0.175 0  0.75 0.175 0  0.775 0.175 0  0.8 0.175 0  0.825 0.175 0  0.85 0.175 0  0.875 0.175 0  0.9 0.175 0  0.925 0.175 0  0.95 0.175 0  0.975 0.175 0  1 0.175 0  0 0.2 0  0.025 0.2 0  0.05 0.2 0  0.075 0.2 0  0.1 0.2 0  0.125 0.2 0  0.15 0.2 0  0.175 0.2 0  0.2 0.2 0  0.225 0.2 0  0.25 0.2 0  0.275 0.2 0  0.3 0.2 0  0.325 0.2 0  0.35 0.2 0  0.375 0.2 0  0.4 0.2 0  0.425 0.2 0  0.45 0.2 0  0.475 0.2 0  0.5 0.2 0  0.525 0.2 0  0.55 0.2 0  0.575 0.2 0  0.6 0.2 0  0.625 0.2 0  0.65 0.2 0  0.675 0.2 0  0.7 0.2 0  0.725 0.2 0  0.75 0.2 0  0.775 0.2 0  0.8 0.2 0  0.825 0.2 0  0.85 0.2 0  0.875 0.2 0  0.9 0.2 0  0.925 0.2 0  0.95 0.2 0  0.975 0.2 0  1 0.2 0  0 0.225 0  0.025 0.225 0  0.05 0.225 0  0.075 0.225 0  0.1 0.225 0  0.125 0.225 0  0.15 0.225 0  0.175 0.225 0  0.2 0.225 0  0.225 0.225 0  0.25 0.225 0  0.275 0.225 0  0.3 0.225 0  0.325 0.225 0  0.35 0.225 0  0.375 0.225 0  0.4 0.225 0  0.425 0.225 0  0.45 0.225 0  0.475 0.225 0  0.5 0.225 0  0.525 0.225 0  0.55 0.225 0  0.575 0.225 0  0.6 0.225 0  0.625 0.225 0  0.65 0.225 0  0.675 0.225 0  0.7 0.225 0  0.725 0.225 0  0.75 0.225 0  0.775 0.225 0  0.8 0.225 0  0.825 0.225 0  0.85 0.225 0  0.875 0.225 0  0.9 0.225 0  0.925 0.225 0  0.95 0.225 0  0.975 0.225 0  1 0.225 0  0 0.25 0  0.025 0.25 0  0.05 0.25 0  0.075 0.25 0  0.1 0.25 0  0.125 0.25 0  0.15 0.25 0  0.175 0.25 0  0.2 0.25 0  0.225 0.25 0  0.25 0.25 0  0.275 0.25 0  0.3 0.25 0  0.325 0.25 0  0.35 0.25 0  0.375 0.25 0  0.4 0.25 0  0.425 0.25 0  0.45 0.25 0  0.475 0.25 0  0.5 0.25 0  0.525 0.25 0  0.55 0.25 0  0.575 0.25 0  0.6 0.25 0  0.625 0.25 0  0.65 0.25 0  0.675 0.25 0  0.7 0.25 0  0.725 0.25 0  0.75 0.25 0  0.775 0.25 0  0.8 0.25 0  0.825 0.25 0  0.85 0.25 0  0.875 0.25 0  0.9 0.25 0  0.925 0.25 0  0.95 0.25 0  0.975 0.25 0  1 0.25 0  0 0.275 0  0.025 0.275 0  0.05 0.275 0  0.075 0.275 0  0.1 0.275 0  0.125 0.275 0  0.15 0.275 0  0.175 0.275 0  0.2 0.275 0  0.225 0.275 0  0.25 0.275 0  0.275 0.275 0  0.3 0.275 0  0.325 0.275 0  0.35 0.275 0  0.375 0.275 0  0.4 0.275 0  0.425 0.275 0  0.45 0.275 0  0.475 0.275 0  0.5 0.275 0  0.525 0.275 0  0.55 0.275 0  0.575 0.275 0  0.6 0.275 0  0.625 0.275 0  0.65 0.275 0  0.675 0.275 0  0.7 0.275 0  0.725 0.275 0  0.75 0.275 0  0.775 0.275 0  0.8 0.275 0  0.825 0.275 0  0.85 0.275 0  0.875 0.275 0  0.9 0.275 0  0.925 0.275 0  0.95 0.275 0  0.975 0.275 0  1 0.275 0  0 0.3 0  0.025 0.3 0  0.05 0.3 0  0.075 0.3 0  0.1 0.3 0  0.125 0.3 0  0.15 0.3 0  0.175 0.3 0  0.2 0.3 0  0.225 0.3 0  0.25 0.3 0  0.275 0.3 0  0.3 0.3 0  0.325 0.3 0  0.35 0.3 0  0.375 0.3 0  0.4 0.3 0  0.425 0.3 0  0.45 0.3 0  0.475 0.3 0  0.5 0.3 0  0.525 0.3 0  0.55 0.3 0  0.575 0.3 0  0.6 0.3 0  0.625 0.3 0  0.65 0.3 0  0.675 0.3 0  0.7 0.3 0  0.725 0.3 0  0.75 0.3 0  0.775 0.3 0  0.8 0.3 0  0.825 0.3 0  0.85 0.3 0  0.875 0.3 0  0.9 0.3 0  0.925 0.3 0  0.95 0.3 0  0.975 0.3 0  1 0.3 0  0 0.325 0  0.025 0.325 0  0.05 0.325 0  0.075 0.325 0  0.1 0.325 0  0.125 0.325 0  0.15 0.325 0  0.175 0.325 0  0.2 0.325 0  0.225 0.325 0  0.25 0.325 0  0.275 0.325 0  0.3 0.325 0  0.325 0.325 0  0.35 0.325 0  0.375 0.325 0  0.4 0.325 0  0.425 0.325 0  0.45 0.325 0  0.475 0.325 0  0.5 0.325 0  0.525 0.325 0  0.55 0.325 0  0.575 0.325 0  0.6 0.325 0  0.625 0.325 0  0.65 0.325 0  0.675 0.325 0  0.7 0.325 0  0.725 0.325 0  0.75 0.325 0  0.775 0.325 0  0.8 0.325 0  0.825 0.325 0  0.85 0.325 0  0.875 0.325 0  0.9 0.325 0  0.925 0.325 0  0.95 0.325 0  0.975 0.325 0  1 0.325 0  0 0.35 0  0.025 0.35 0  0.05 0.35 0  0.075 0.35 0  0.1 0.35 0  0.125 0.35 0  0.15 0.35 0  0.175 0.35 0  0.2 0.35 0  0.225 0.35 0  0.25 0.35 0  0.275 0.35 0  0.3 0.35 0  0.325 0.35 0  0.35 0.35 0  0.375 0.35 0  0.4 0.35 0  0.425 0.35 0  0.45 0.35 0  0.475 0.35 0  0.5 0.35 0  0.525 0.35 0  0.55 0.35 0  0.575 0.35 0  0.6 0.35 0  0.625 0.35 0  0.65 0.35 0  0.675 0.35 0  0.7 0.35 0  0.725 0.35 0  0.75 0.35 0  0.775 0.35 0  0.8 0.35 0  0.825 0.35 0  0.85 0.35 0  0.875 0.35 0  0.9 0.35 0  0.925 0.35 0  0.95 0.35 0  0.975 0.35 0  1 0.35 0  0 0.375 0  0.025 0.375 0  0.05 0.375 0  0.075 0.375 0  0.1 0.375 0  0.125 0.375 0  0.15 0.375 0  0.175 0.375 0  0.2 0.375 0  0.225 0.375 0  0.25 0.375 0  0.275 0.375 0  0.3 0.375 0  0.325 0.375 0  0.35 0.375 0  0.375 0.375 0  0.4 0.375 0  0.425 0.375 0  0.45 0.375 0  0.475 0.375 0  0.5 0.375 0  0.525 0.375 0  0.55 0.375 0  0.575 0.375 0  0.6 0.375 0  0.625 0.375 0  0.65 0.375 0  0.675 0.375 0  0.7 0.375 0  0.725 0.375 0  0.75 0.375 0  0.775 0.375 0  0.8 0.375 0  0.825 0.375 0  0.85 0.375 0  0.875 0.375 0  0.9 0.375 0  0.925 0.375 0  0.95 0.375 0  0.975 0.375 0  1 0.375 0  0 0.4 0  0.025 0.4 0  0.05 0.4 0  0.075 0.4 0  0.1 0.4 0  0.125 0.4 0  0.15 0.4 0  0.175 0.4 0  0.2 0.4 0  0.225 0.4 0  0.25 0.4 0  0.275 0.4 0  0.3 0.4 0  0.325 0.4 0  0.35 0.4 0  0.375 0.4 0  0.4 0.4 0  0.425 0.4 0  0.45 0.4 0  0.475 0.4 0  0.5 0.4 0  0.525 0.4 0  0.55 0.4 0  0.575 0.4 0  0.6 0.4 0  0.625 0.4 0  0.65 0.4 0  0.675 0.4 0  0.7 0.4 0  0.725 0.4 0  0.75 0.4 0  0.775 0.4 0  0.8 0.4 0  0.825 0.4 0  0.85 0.4 0  0.875 0.4 0  0.9 0.4 0  0.925 0.4 0  0.95 0.4 0  0.975 0.4 0  1 0.4 0  0 0.425 0  0.025 0.425 0  0.05 0.425 0  0.075 0.425 0  0.1 0.425 0  0.125 0.425 0  0.15 0.425 0  0.175 0.425 0  0.2 0.425 0  0.225 0.425 0  0.25 0.425 0  0.275 0.425 0  0.3 0.425 0  0.325 0.425 0  0.35 0.425 0  0.375 0.425 0  0.4 0.425 0  0.425 0.425 0  0.45 0.425 0  0.475 0.425 0  0.5 0.425 0  0.525 0.425 0  0.55 0.425 0  0.575 0.425 0  0.6 0.425 0  0.625 0.425 0  0.65 0.425 0  0.675 0.425 0  0.7 0.425 0  0.725 0.425 0  0.75 0.425 0  0.775 0.425 0  0.8 0.425 0  0.825 0.425 0  0.85 0.425 0  0.875 0.425 0  0.9 0.425 0  0.925 0.425 0  0.95 0.425 0  0.975 0.425 0  1 0.425 0  0 0.45 0  0.02
[...]
<PointData  Scalars="ControlVisualisation"> 
<DataArray  type="Float64"  Name="ControlVisualisation"  format="ascii">3.7817575936531939e-08  2.1878976064334521e-08  2.1880073633234163e-08  2.1881909074696518e-08  2.1884426593860582e-08  2.1887559776637044e-08  2.1891224542251665e-08  2.1895323269862549e-08  2.1899747734823905e-08  2.1904382179542766e-08  2.1909106586883740e-08  2.1913799933276776e-08  2.1918343464115711e-08  2.1922623444941741e-08  2.1926534095718110e-08  2.1929979762027690e-08  2.1932877141565807e-08  2.1935156750506721e-08  2.1936764454862550e-08  2.1937662283099242e-08  2.1937829222008050e-08  2.1937261574718535e-08  2.1935972859401587e-08  2.1933993703536683e-08  2.1931371314948905e-08  2.1928168488914647e-08  2.1924462527394159e-08  2.1920343638449447e-08  2.1915913092751532e-08  2.1911280971016204e-08  2.1906563624084682e-08  2.1901880786715329e-08  2.1897352627223047e-08  2.1893096466167634e-08  2.1889223584462180e-08  2.1885836019034685e-08  2.1883023660227923e-08  2.1880861019155893e-08  2.1879411512529236e-08  2.1878689841112756e-08  8.5632236393487148e-08  2.1878978615764236e-08  5.9399163537426328e-09  5.9409920787007544e-09  5.9428852475280159e-09  5.9455653767707091e-09  5.9489608847474264e-09  5.9529806080242393e-09  5.9575178316125191e-09  5.9624529219470285e-09  5.9676568152814577e-09  5.9729946932004570e-09  5.9783295908108678e-09  5.9835261404277869e-09  5.9884538501389104e-09  5.9929903316011446e-09  5.9970241012610419e-09  6.0004570097202019e-09  6.0032062924777548e-09  6.0052061451334766e-09  6.0064090811968735e-09  6.0067866996473492e-09  6.0063302875358576e-09  6.0050508442341933e-09  6.0029789403323778e-09  6.0001641695470432e-09  5.9966741940297605e-09  5.9925934246473979e-09  5.9880213306861696e-09  5.9830703491855164e-09  5.9778634223266082e-09  5.9725311188411182e-09  5.9672084733094054e-09  5.9620316002924175e-09  5.9571340856916925e-09  5.9526433863994832e-09  5.9486772074468330e-09  5.9453402277883631e-09  5.9427209970370178e-09  5.9408873338740723e-09  5.9398316708634992e-09  2.1878690226408000e-08  2.1880103572020733e-08  5.9410140199639342e-09  5.9423601349309515e-09  5.9445176437181180e-09  5.9475776036047058e-09  5.9514626179990771e-09  5.9560688146285784e-09  5.9612738106237925e-09  5.9669402359541487e-09  5.9729198329080771e-09  5.9790576179681904e-09  5.9851960706472610e-09  5.9911793721268007e-09  5.9968573236733920e-09  6.0020888928772188e-09  6.0067456035745762e-09  6.0107141801219052e-09  6.0138990414738195e-09  6.0162240092274952e-09  6.0176339134135919e-09  6.0180955474742912e-09  6.0175982060695046e-09  6.0161538615887616e-09  6.0137969802428018e-09  6.0105839052423644e-09  6.0065917419069039e-09  6.0019169379366367e-09  5.9966733293974488e-09  5.9909897103320935e-09  5.9850071467830955e-09  5.9788755655557867e-09  5.9727501710116553e-09  5.9667875709400961e-09  5.9611416202676257e-09  5.9559592405800597e-09  5.9513763032317482e-09  5.9475138907216328e-09  5.9444733321926556e-09  5.9423237839060425e-09  5.9409059429588259e-09  2.1879421159055647e-08  2.1882052305056385e-08  5.9430082238883102e-09  5.9446296017011315e-09  5.9468131024055242e-09  5.9498937444210981e-09  5.9538043246037714e-09  5.9584409184093754e-09  5.9636799231324204e-09  5.9693827567069714e-09  5.9753999137670108e-09  5.9815751929546832e-09  5.9877500339839041e-09  5.9937676502762735e-09  5.9994771951228277e-09  6.0047370506264987e-09  6.0094183457889687e-09  6.0134076465215276e-09  6.0166092014091871e-09  6.0189468361205425e-09  6.0203652804597292e-09  6.0208313143480704e-09  6.0203341785043380e-09  6.0188857821184181e-09  6.0165204523992121e-09  6.0132944397803823e-09  6.0092847979429532e-09  6.0045879852104102e-09  5.9993179994065162e-09  5.9936039538829637e-09  5.9875873993002685e-09  5.9814190017827772e-09  5.9752548758275962e-09  5.9692527287603534e-09  5.9635676430729612e-09  5.9583478506442417e-09  5.9537305180783235e-09  5.9498378406645057e-09  5.9467711228339139e-09  5.9445832472239148e-09  5.9428315894210589e-09  2.1880928452667486e-08  2.1884872798755400e-08  5.9459752308839689e-09  5.9480111845743356e-09  5.9502166968483690e-09  5.9532990182290248e-09  5.9572096858405537e-09  5.9618453168392410e-09  5.9670817876082060e-09  5.9727800736218077e-09  5.9787903499526492e-09  5.9849562652968530e-09  5.9911193289231862e-09  5.9971230872787209e-09  6.0028171936789212e-09  6.0080609066003284e-09  6.0127262103413328e-09  6.0167006341613871e-09  6.0198893649336365e-09  6.0222170524446610e-09  6.0236291488153516e-09  6.0240927785606404e-09  6.0235972842160677e-09  6.0221544398110619e-09  6.0197981688637725e-09  6.0165839888682806e-09  6.0125881174325204e-09  6.0079060798365186e-09  6.0026509100873671e-09  5.9969508768153425e-09  5.9909467777973913e-09  5.9847887607117821e-09  5.9786326657527305e-09  5.9726361687160265e-09  5.9669545240889695e-09  5.9617363124896565e-09  5.9571191282687013e-09  5.9532255594567427e-09  5.9501560153686638e-09  5.9479393017619892e-09  5.9457175759258174e-09  2.1883277669654240e-08  2.1888645331840213e-08  5.9499988689743677e-09  5.9526047527855292e-09  5.9548392158008862e-09  5.9579216567264327e-09  5.9618298600439846e-09  5.9664609727211162e-09  5.9716903126330598e-09  5.9773783055765508e-09  5.9833747575980808e-09  5.9895232363280714e-09  5.9956654636739238e-09  6.0016456316672442e-09  6.0073142049610378e-09  6.0125316038026049e-09  6.0171712170699797e-09  6.0211219845034336e-09  6.0242904665626993e-09  6.0266025210273768e-09  6.0280045266977424e-09  6.0284642163271533e-09  6.0279711147913850e-09  6.0265367067582777e-09  6.0241943667777976e-09  6.0209986131896804e-09  6.0170244532656211e-09  6.0123660482033624e-09  6.0071350427992535e-09  6.0014583824034637e-09  5.9954757666312474e-09  5.9893365156407285e-09  5.9831959654194946e-09  5.9772116089574950e-09  5.9715388430088654e-09  5.9663266144928472e-09  5.9617130413136740e-09  5.9578212313009391e-09  5.9547504444836095e-09  5.9524974510007106e-09  5.9496464179085009e-09  2.1886528367643631e-08  2.1893475969923752e-08  5.9551926399250398e-09  5.9585404334027580e-09  5.9608121401137533e-09  5.9638934375505840e-09  5.9677966765926943e-09  5.9724198122948465e-09  5.9776374476617474e-09  5.9833093538354751e-09  5.9892848940095337e-09  5.9954075915665323e-09  6.0015195517392560e-09  6.0074658008705051e-09  6.0130981246058609e-09  6.0182784899145838e-09  6.0228821548455984e-09  6.0267999901966647e-09  6.0299403754465250e-09  6.0322308342998438e-09  6.0336189549017976e-09  6.0340732464109533e-09  6.0335834949081773e-09  6.0321608593341325e-09  6.0298378734914046e-09  6.0266678170484091e-09  6.0227240269909051e-09  6.0180988297323335e-09  6.0129020089046820e-09  6.0072587052498475e-09  6.0013070527908318e-09  5.9951951963297023e-09  5.9890777596454047e-09  5.9831119065907119e-09  5.9774531542107927e-09  5.9722508930224505e-09  5.9676439021059678e-09  5.9637559799443009e-09  5.9606849344345793e-09  5.9583865776017335e-09  5.9547281039284093e-09  2.1890771177907247e-08  2.1899501771577341e-08  5.9617051247158897e-09  5.9659880359944837e-09  5.9683056416070532e-09  5.9713836071704780e-09  5.9752780473031437e-09  5.9798880506090617e-09  5.9850873012152987e-09  5.9907348029536745e-09  5.9966794624548852e-09  6.0027648673130461e-09  6.0088337304042817e-09  6.0147322791581739e-09  6.0203140868839863e-09  6.0254433611835895e-09  6.0299977519992171e-09  6.0338706898062511e-09  6.0369729875140571e-09  6.0392342580831533e-09  6.0406037320702121e-09  6.0410508709717315e-09  6.0405657835878316e-09  6.0391592440742136e-09  6.0368626869140852e-09  6.0337277597224565e-09  6.0298256370230399e-09  6.0252462466849737e-09  6.0200968450411595e-09  6.0145001840206547e-09  6.0085922656756435e-09  6.0025195926009455e-09  5.9964357307161381e-09  5.9904973086429140e-09  5.9848598947379678e-09  5.9796733971320918e-09  5.9750774034339787e-09  5.9711965742072884e-09  5.9681269103768840e-09  5.9657731805125694e-09  5.9611062030876422e-09  2.1896124677287088e-08  2.1906895521195412e-08  5.9697246106332709e-09  5.9751630552938257e-09  5.9775358070485846e-09  5.9806069712987778e-09  5.9844869358622828e-09  5.9890761741945103e-09  5.9942473158256038e-09  5.9998584443773948e-09  6.0057580293429484e-09  6.0117899255739938e-09  6.0177978529203551e-09  6.0236298015474458e-09  6.0291417336271702e-09  6.0342009393472215e-09  6.0386883135277029e-09  6.0425005589382816e-09  6.0455516655049168e-09  6.0477738756178263e-09  6.0491184992880736e-09  6.0495562689117886e-09  6.0490776786315533e-09  6.0476929828118763e-09  6.0454322273961244e-09  6.0423449526210520e-09  6.0384995921730794e-09  6.0339829285081462e-09  6.0288988640927793e-09  6.0233669759399025e-09  6.0175204364117129e-09  6.0115034193935795e-09  6.0054678717819586e-09  5.9995696098668892e-09  5.9939640969466562e-09  5.9888017982320028e-09  5.9842232762652187e-09  5.9803542634862287e-09  5.9772885910101214e-09  5.9748684764966828e-09  5.9689627620986291e-09  2.1902739716994653e-08  2.1915871744675816e-08  5.9794861015762262e-09  5.9863347400074016e-09  5.9887726768394874e-09  5.9918319344498757e-09  5.9956892876852210e-09  6.0002468141628939e-09  6.0053758483085245e-09  6.0109334605401392e-09  6.0167678000180969e-09  6.0227232756886414e-09  6.0286452987595269e-09  6.0343844055989082e-09  6.0397999915571343e-09  6.0447633219076696e-09  6.0491597147153385e-09  6.0528901574576241e-09  6.0558726372610039e-09  6.0580428097414628e-09  6.0593545149144605e-09  6.0597800748716058e-09  6.0593104735177262e-09  6.0579553362393784e-09  6.0557429454205955e-09  6.0527201486373571e-09  6.0489518899133915e-09  6.0445208929234343e-09  6.0395267407000583e-09  6.0340847210888698e-09  6.0283241376495195e-09  6.0223858904797764e-09  6.0164195374729895e-09  6.0105795491410184e-09  6.0050210275117574e-09  5.9998949694236429e-09  5.9953431052582799e-09  5.9914925473207921e-09  5.9884346517977919e-09  5.9859358073024853e-09  5.9785246241562249e-09  2.1910804484958127e-08  2.1926694212057256e-08  5.9912798799660375e-09  5.9998361874665088e-09  6.0023504832019402e-09  6.0053908643916030e-09  6.0092143755837582e-09  6.0137248825567371e-09  6.0187919734082608e-09  6.0242716549496201e-09  6.0300119920434520e-09  6.0358586607728263e-09  6.0416596073432333e-09  6.0472692390168060e-09  6.0525518147433214e-09  6.0573840236305136e-09  6.0616569171514020e-09  6.0652771112075817e-09  6.0681676888328746e-09  6.0702685559263185e-09  6.0715367011008286e-09  6.0719464401618496e-09  6.0714892782971050e-09  6.0701740702653079e-09  6.0680269498487827e-09  6.0650913619190260e-09  6.0614278555213276e-09  6.0571139408086776e-09  6.0522435786470531e-09  6.0469263439409789e-09  6.0412861807194898e-09  6.0354593499354369e-09  6.0295918576554480e-09  6.0238359295312897e-09  6.0183458124191970e-09  6.0132729020133245e-09  6.0087603552182142e-09  6.0049371589485801e-09  6.0018920318071791e-09  5.9993002027287748e-09  5.9900714897303796e-09  2.1920550887832950e-08  2.1939685235111374e-08  6.0054623968012785e-09  6.0160771968833163e-09  6.0186809536060964e-09  6.0216936663852701e-09  6.0254684909358109e-09  6.0299109630597258e-09  6.0348883581786010e-09  6.0402554788863152e-09  6.0458608420233571e-09  6.0515525225665647e-09  6.0571826912667938e-09  6.0626114780625643e-09  6.0677100240510947e-09  6.0723625095825543e-09  6.0764675909784931e-09  6.0799391151762224e-09  6.0827065477908824e-09  6.0847151020237252e-09  6.0859256592491797e-09  6.0863148288336014e-09  6.0858748877583214e-09  6.0846136353556007e-09  6.0825546076423176e-09  6.0797370274433697e-09  6.0762159614538859e-09  6.0720623268913288e-09  6.0673627508878498e-09  6.0622191361540019e-09  6.0567480341837020e-09  6.0510790475394134e-09  6.0453527541444301e-09  6.0397176436360438e-09  6.0343261651031295e-09  6.0293298082759807e-09  6.0248735014816000e-09  6.0210889385859672e-09  6.0180623693593215e-09  6.0153602682748188e-09  6.0039457615030164e-09  2.1932262294487867e-08  2.1955236478394299e-08  6.0224693629259403e-09  6.0355603286240705e-09  6.0382704477972166e-09  6.0412456431792977e-09  6.0449532671123962e-09  6.0492995161421613e-09  6.0541484843921583e-09  6.0593537566564102e-09  6.0647655539071551e-09  6.0702362231768008e-09  6.0756247864088787e-09  6.0808002016308254e-09  6.0856435322229982e-09  6.0900491582430668e-09  6.0939258008402345e-09  6.0971966060586874e-09  6.0997989933855078e-09  6.1016845574030408e-09  6.1028189271488439e-09  6.1031814610687652e-09  6.1027652218443276e-09  6.1015768555638746e-09  6.0996366648950901e-09  6.0969788631432694e-09  6.0936517562151403e-09  6.0897179262015039e-09  6.0852544895232625e-09  6.0803531922892041e-09  6.0751202460625310e-09  6.0696755259704569e-09  6.0641512506464094e-09  6.0586896458774081e-09  6.0534395526650419e-09  6.0485518223749853e-09  6.0441735516394332e-09  6.0404405778306775e-09  6.0374377626254102e-09  6.0346028838354457e-09  6.0205644340362264e-09  2.1946282737150712e-08  2.1973821484238616e-08  6.0428314496314505e-09  6.0589005136377528e-09  6.0617415441271313e-09  6.0646710230792732e-09  6.0682901956937953e-09  6.0725035988784173e-09  6.0771703997874478e-09  6.0821434046572929e-09  6.0872767914323460e-09  6.0924310672370015e-09  6.0974766601755512e-09  6.1022958667435342e-09  6.1067841030343660e-09  6.1108499565300849e-09  6.1144153031321990e-09  6.1174149337526799e-09  6.1197960079208415e-09  6.1215178599417972e-09  6.1225514994259646e-09  6.1228795191939602e-09  6.1224958279612096e-09  6.1214056746952962e-09  6.1196257319699981e-09  6.1171842681414153e-09  6.1141213995448166e-09  6.1104894133733204e-09  6.1063533026836712e-09  6.1017912962943395e-09  6.0968952166601600e-09  6.0917705989326257e-09  6.0865365497527562e-09  6.0813246454649170e-09  6.0762767037661953e-09  6.0715411858168492e-09  6.0672676964297702e-09  6.0635986971653216e-09  6.0606205707451342e-09  6.0576207286762775e-09  6.0404327321748729e-09  2.1963027339123912e-08  2.1996007278397008e-08  6.0671912178529932e-09  6.0868486044643871e-09  6.0898612027456596e-09  6.0927453167803871e-09  6.0962556894731623e-09  6.1002899772458494e-09  6.1046997795929217e-09  6.1093386039916782e-09  6.1140695368260106e-09  6.1187682266173881e-09  6.1233240642408990e-09  6.1276404371853898e-09  6.1316333454446954e-09  6.1352307041191600e-09  6.1383715700118915e-09  6.1410050345481679e-09  6.1430898028775468e-09  6.1445939787419126e-09  6.1454947097214785e-09  6.1457779715353557e-09  6.1454387527039366e-09  6.1444806480196920e-09  6.1429163208509367e-09  6.1407673162138249e-09  6.1380642142278911e-09  6.1348469911095513e-09  6.1311655192462490e-09  6.1270801776332347e-09  6.1226628167543130e-09  6.1179978449244643e-09  6.1131836025904051e-09  6.1083332722342231e-09  6.1035750284778968e-09  6.0990508618930318e-09  6.0949126623004690e-09  6.0913137222969475e-09  6.0883485232676641e-09  6.0851323843222709e-09  6.0641583856996401e-09  2.1982992859443687e-08  2.2022462870746077e-08  6.0963192226219170e-09  6.1203179213958595e-09  6.1235773375380295e-09  6.1264407417593650e-09  6.1298319976073002e-09  6.1336308101986385e-09  6.1376777718891040e-09  6.1418319404815399e-09  6.1459755185997290e-09  6.1500126389433137e-09  6.1538650113768734e-09  6.1574683155076725e-09  6.1607686217448937e-09  6.1637196456399920e-09  6.1662820635432695e-09  6.1684219845783647e-09  6.1701110709514053e-09  6.1713268564278198e-09  6.1720527562919047e-09  6.1722782571231037e-09  6.1719992679091174e-09  6.1712178740174176e-09  6.1699424843220842e-09  6.1681876187158692e-09  6.1659733796669594e-09  6.1633257271583453e-09  6.1602762750537794e-09  6.1568625030270850e-09  6.1531289188786045e-09  6.1491289108558860e-09  6.1449277694902950e-09  6.1406066676959151e-09  6.1362672639883458e-09  6.1320357101660949e-09  6.1280636142515708e-09  6.1245215939359182e-09  6.1215260641619653e-09  6.1180034086987728e-09  6.0924635275876875e-09  2.2006765727743885e-08  2.2053952875779149e-08  6.1311216225756419e-09  6.1604111427495524e-09  6.1640676580729270e-09  6.1669943515005170e-09  6.1702859947805104e-09  6.1737832750024323e-09  6.1773128956550164e-09  6.1807529371275335e-09  6.1840275036666599e-09  6.1870936115696515e-09  6.1899278925963180e-09  6.1925160364527213e-09  6.1948465090385356e-09  6.1969067742903234e-09  6.1986829542714660e-09  6.2001602251304310e-09  6.2013233923272167e-09  6.2021590972846193e-09  6.2026563290834328e-09  6.2028075738817259e-09  6.2026094800837033e-09  6.2020628456339042e-09  6.2011722749424707e-09  6.1999457355203012e-09  6.1983931812705695e-09  6.1965257774113529e-09  6.1943544033498742e-09  6.1918885605536676e-09  6.1891365141375156e-09  6.1861067162815681e-09  6.1828121917692042e-09  6.1792784549449367e-09  6.1755554259092000e-09  6.1717321571922540e-09  6.1679500891156266e-09  6.1644056072172874e-09  6.1612644952272221e-09  6.1572635938357084e-09  6.1261862626655260e-09  2.2035021051268924e-08  2.2091294616636905e-08  6.1726213349870112e-09  6.2084394297916347e-09  6.2128087388203076e-09  6.2160182646320178e-09  6.2192998725948568e-09  6.2224181478268000e-09  6.2251915373652762e-09  6.2275530370318729e-09  6.2295169850797662e-09  6.2311399366658457e-09  6.2324900210093485e-09  6.2336285360480228e-09  6.2346012824465652e-09  6.2354372300299191e-09  6.2361501885524319e-09  6.2367433831259961e-09  6.2372128282559858e-09  6.2375515265660604e-09  6.2377520588836292e-09  6.2378084361227320e-09  6.2377177111063625e-09  6.2374798982818183e-09  6.2370973503358745e-09  6.2365735847893252e-09  6.2359107382307759e-09  6.2351068868660554e-09  6.2341522055415976e-09  6.2330247752602636e-09  6.2316873671892693e-09  6.2300857185764097e-09  6.2281519545055734e-09  6.2258156908474035e-09  6.2230264506911225e-09  6.2197885943563957e-09  6.2162029285130053e-09  6.2124964102876973e-09  6.2089353568182525e-09  6.2041093290096135e-09  6.1662530437716584e-09  2.2068497223167174e-08  2.2135218554604146e-08  6.2218685921732680e-09  6.2659185540225795e-09  6.2716859961485766e-09  6.2756964034708815e-09  6.2792028699361178e-09  6.2818376388129298e-09  6.2834519587572115e-09  6.2841268876079718e-09  6.2840684831504299e-09  6.2835168719916199e-09  6.2826893030481648e-09  6.2817555074713991e-09  6.2808334838637279e-09  6.2799963052123185e-09  6.2792826294716158e-09  6.2787073991746339e-09  6.2782712044424252e-09  6.2779671781990010e-09  6.2777868687943590e-09  6.2777232452405147e-09  6.2777728770058237e-09  6.2779361808302998e-09  6.2782164191448847e-09  6.2786174149533451e-09  6.2791394651745730e-09  6.2797739326285038e-09  6.2804957726287299e-09  6.2812536982799755e-09  6.2819593028263081e-09  6.2824768382553541e-09  6.2826183803991827e-09  6.2821525283466254e-09  6.2808380499109645e-09  6.2784909061522462e-09  6.2750832169172084e-09  6.2708506046081958e-09  6.2662497571473822e-09  6.2598671472037467e-09  6.2135778512820841e-09  2.2107909625947653e-08  2.2185986089773697e-08  6.2796815046114029e-09  6.3345052260393070e-09  6.3432029024152965e-09  6.3491763704644834e-09  6.3534099144365531e-09  6.3553567512053643e-09  6.3550600891348402e-09  6.3529807786532779e-09  6.3497233974293486e-09  6.3458542884036194e-09  6.3418194875110610e-09  6.3379301787198228e-09  6.3343811859194286e-09  6.3312798695036463e-09  6.3286741448082657e-09  6.3265748293471078e-09  6.3249725228404187e-09  6.3238492948587590e-09  6.3231871941304173e-09  6.3229734771831828e-09  6.3232030496524683e-09  6.3238789557603414e-09  6.3250108008082470e-09  6.3266113107463164e-09  6.3286905047033934e-09  6.3312473714889554e-09  6.3342574540371708e-09  6.3376545753042814e-09  6.3413063978744523e-09  6.3449851946948847e-09  6.3483393678763498e-09  6.3508833075693190e-09  6.3520239113380792e-09  6.3511634497633536e-09  6.3479146199804361e-09  6.3424112974419260e-09  6.3354182756890810e-09  6.3258687711741431e-09  6.2687750091797915e-09  2.2153713280633817e-08  2.2242515011769632e-08  6.3459592355216696e-09  6.4158454222508720e-09  6.4310042745681976e-09  6.4414517256593135e-09  6.4473172142506560e-09  6.4479964686944388e-09  6.4442454137697648e-09  6.437454071