<?xml version="1.0"?>
<VTKFile type="UnstructuredGrid"  version="0.1"  >
<UnstructuredGrid>
<Piece  NumberOfPoints="1681" NumberOfCells="3200">
<Points>
<DataArray  type="Float64"  NumberOfComponents="3"  format="ascii">0 0 0  0.025 0 0  0.05 0 0  0.075 0 0  0.1 0 0  0.125 0 0  0.15 0 0  0.175 0 0  0.2 0 0  0.225 0 0  0.25 0 0  0.275 0 0  0.3 0 0  0.325 0 0  0.35 0 0  0.375 0 0  0.4 0 0  0.425 0 0  0.45 0 0  0.475 0 0  0.5 0 0  0.525 0 0  0.55 0 0  0.575 0 0  0.6 0 0  0.625 0 0  0.65 0 0  0.675 0 0  0.7 0 0  0.725 0 0  0.75 0 0  0.775 0 0  0.8 0 0  0.825 0 0  0.85 0 0  0.875 0 0  0.9 0 0  0.925 0 0  0.95 0 0  0.975 0 0  1 0 0  0 0.025 0  0.025 0.025 0  0.05 0.025 0  0.075 0.025 0  0.1 0.025 0  0.125 0.025 0  0.15 0.025 0  0.175 0.025 0  0.2 0.025 0  0.225 0.025 0  0.25 0.025 0  0.275 0.025 0  0.3 0.025 0  0.325 0.025 0  0.35 0.025 0  0.375 0.025 0  0.4 0.025 0  0.425 0.025 0  0.45 0.025 0  0.475 0.025 0  0.5 0.025 0  0.525 0.025 0  0.55 0.025 0  0.575 0.025 0  0.6 0.025 0  0.625 0.025 0  0.65 0.025 0  0.675 0.025 0  0.7 0.025 0  0.725 0.025 0  0.75 0.025 0  0.775 0.025 0  0.8 0.025 0  0.825 0.025 0  0.85 0.025 0  0.875 0.025 0  0.9 0.025 0  0.925 0.025 0  0.95 0.025 0  0.975 0.025 0  1 0.025 0  0 0.05 0  0.025 0.05 0  0.05 0.05 0  0.075 0.05 0  0.1 0.05 0  0.125 0.05 0  0.15 0.05 0  0.175 0.05 0  0.2 0.05 0  0.225 0.05 0  0.25 0.05 0  0.275 0.05 0  0.3 0.05 0  0.325 0.05 0  0.35 0.05 0  0.375 0.05 0  0.4 0.05 0  0.425 0.05 0  0.45 0.05 0  0.475 0.05 0  0.5 0.05 0  0.525 0.05 0  0.55 0.05 0  0.575 0.05 0  0.6 0.05 0  0.625 0.05 0  0.65 0.05 0  0.675 0.05 0  0.7 0.05 0  0.725 0.05 0  0.75 0.05 0  0.775 0.05 0  0.8 0.05 0  0.825 0.05 0  0.85 0.05 0  0.875 0.05 0  0.9 0.05 0  0.925 0.05 0  0.95 0.05 0  0.975 0.05 0  1 0.05 0  0 0.075 0  0.025 0.075 0  0.05 0.075 0  0.075 0.075 0  0.1 0.075 0  0.125 0.075 0  0.15 0.075 0  0.175 0.075 0  0.2 0.075 0  0.225 0.075 0  0.25 0.075 0  0.275 0.075 0  0.3 0.075 0  0.325 0.075 0  0.35 0.075 0  0.375 0.075 0  0.4 0.075 0  0.425 0.075 0  0.45 0.075 0  0.475 0.075 0  0.5 0.075 0  0.525 0.075 0  0.55 0.075 0  0.575 0.075 0  0.6 0.075 0  0.625 0.075 0  0.65 0.075 0  0.675 0.075 0  0.7 0.075 0  0.725 0.075 0  0.75 0.075 0  0.775 0.075 0  0.8 0.075 0  0.825 0.075 0  0.85 0.075 0  0.875 0.075 0  0.9 0.075 0  0.925 0.075 0  0.95 0.075 0  0.975 0.075 0  1 0.075 0  0 0.1 0  0.025 0.1 0  0.05 0.1 0  0.075 0.1 0  0.1 0.1 0  0.125 0.1 0  0.15 0.1 0  0.175 0.1 0  0.2 0.1 0  0.225 0.1 0  0.25 0.1 0  0.275 0.1 0  0.3 0.1 0  0.325 0.1 0  0.35 0.1 0  0.375 0.1 0  0.4 0.1 0  0.425 0.1 0  0.45 0.1 0  0.475 0.1 0  0.5 0.1 0  0.525 0.1 0  0.55 0.1 0  0.575 0.1 0  0.6 0.1 0  0.625 0.1 0  0.65 0.1 0  0.675 0.1 0  0.7 0.1 0  0.725 0.1 0  0.75 0.1 0  0.775 0.1 0  0.8 0.1 0  0.825 0.1 0  0.85 0.1 0  0.875 0.1 0  0.9 0.1 0  0.925 0.1 0  0.95 0.1 0  0.975 0.1 0  1 0.1 0  0 0.125 0  0.025 0.125 0  0.05 0.125 0  0.075 0.125 0  0.1 0.125 0  0.125 0.125 0  0.15 0.125 0  0.175 0.125 0  0.2 0.125 0  0.225 0.125 0  0.25 0.125 0  0.275 0.125 0  0.3 0.125 0  0.325 0.125 0  0.35 0.125 0  0.375 0.125 0  0.4 0.125 0  0.425 0.125 0  0.45 0.125 0  0.475 0.125 0  0.5 0.125 0  0.525 0.125 0  0.55 0.125 0  0.575 0.125 0  0.6 0.125 0  0.625 0.125 0  0.65 0.125 0  0.675 0.125 0  0.7 0.125 0  0.725 0.125 0  0.75 0.125 0  0.775 0.125 0  0.8 0.125 0  0.825 0.125 0  0.85 0.125 0  0.875 0.125 0  0.9 0.125 0  0.925 0.125 0  0.95 0.125 0  0.975 0.125 0  1 0.125 0  0 0.15 0  0.025 0.15 0  0.05 0.15 0  0.075 0.15 0  0.1 0.15 0  0.125 0.15 0  0.15 0.15 0  0.175 0.15 0  0.2 0.15 0  0.225 0.15 0  0.25 0.15 0  0.275 0.15 0  0.3 0.15 0  0.325 0.15 0  0.35 0.15 0  0.375 0.15 0  0.4 0.15 0  0.425 0.15 0  0.45 0.15 0  0.475 0.15 0  0.5 0.15 0  0.525 0.15 0  0.55 0.15 0  0.575 0.15 0  0.6 0.15 0  0.625 0.15 0  0.65 0.15 0  0.675 0.15 0  0.7 0.15 0  0.725 0.15 0  0.75 0.15 0  0.775 0.15 0  0.8 0.15 0  0.825 0.15 0  0.85 0.15 0  0.875 0.15 0  0.9 0.15 0  0.925 0.15 0  0.95 0.15 0  0.975 0.15 0  1 0.15 0  0 0.175 0  0.025 0.175 0  0.05 0.175 0  0.075 0.175 0  0.1 0.175 0  0.125 0.175 0  0.15 0.175 0  0.175 0.175 0  0.2 0.175 0  0.225 0.175 0  0.25 0.175 0  0.275 0.175 0  0.3 0.175 0  0.325 0.175 0  0.35 0.175 0  0.375 0.175 0  0.4 0.175 0  0.425 0.175 0  0.45 0.175 0  0.475 0.175 0  0.5 0.175 0  0.525 0.175 0  0.55 0.175 0  0.575 0.175 0  0.6 0.175 0  0.625 0.175 0  0.65 0.175 0  0.675 0.175 0  0.7 0.175 0  0.725 0.175 0  0.75 0.175 0  0.775 0.175 0  0.8 0.175 0  0.825 0.175 0  0.85 0.175 0  0.875 0.175 0  0.9 0.175 0  0.925 0.175 0  0.95 0.175 0  0.975 0.175 0  1 0.175 0  0 0.2 0  0.025 0.2 0  0.05 0.2 0  0.075 0.2 0  0.1 0.2 0  0.125 0.2 0  0.15 0.2 0  0.175 0.2 0  0.2 0.2 0  0.225 0.2 0  0.25 0.2 0  0.275 0.2 0  0.3 0.2 0  0.325 0.2 0  0.35 0.2 0  0.375 0.2 0  0.4 0.2 0  0.425 0.2 0  0.45 0.2 0  0.475 0.2 0  0.5 0.2 0  0.525 0.2 0  0.55 0.2 0  0.575 0.2 0  0.6 0.2 0  0.625 0.2 0  0.65 0.2 0  0.675 0.2 0  0.7 0.2 0  0.725 0.2 0  0.75 0.2 0  0.775 0.2 0  0.8 0.2 0  0.825 0.2 0  0.85 0.2 0  0.875 0.2 0  0.9 0.2 0  0.925 0.2 0  0.95 0.2 0  0.975 0.2 0  1 0.2 0  0 0.225 0  0.025 0.225 0  0.05 0.225 0  0.075 0.225 0  0.1 0.225 0  0.125 0.225 0  0.15 0.225 0  0.175 0.225 0  0.2 0.225 0  0.225 0.225 0  0.25 0.225 0  0.275 0.225 0  0.3 0.225 0  0.325 0.225 0  0.35 0.225 0  0.375 0.225 0  0.4 0.225 0  0.425 0.225 0  0.45 0.225 0  0.475 0.225 0  0.5 0.225 0  0.525 0.225 0  0.55 0.225 0  0.575 0.225 0  0.6 0.225 0  0.625 0.225 0  0.65 0.225 0  0.675 0.225 0  0.7 0.225 0  0.725 0.225 0  0.75 0.225 0  0.775 0.225 0  0.8 0.225 0  0.825 0.225 0  0.85 0.225 0  0.875 0.225 0  0.9 0.225 0  0.925 0.225 0  0.95 0.225 0  0.975 0.225 0  1 0.225 0  0 0.25 0  0.025 0.25 0  0.05 0.25 0  0.075 0.25 0  0.1 0.25 0  0.125 0.25 0  0.15 0.25 0  0.175 0.25 0  0.2 0.25 0  0.225 0.25 0  0.25 0.25 0  0.275 0.25 0  0.3 0.25 0  0.325 0.25 0  0.35 0.25 0  0.375 0.25 0  0.4 0.25 0  0.425 0.25 0  0.45 0.25 0  0.475 0.25 0  0.5 0.25 0  0.525 0.25 0  0.55 0.25 0  0.575 0.25 0  0.6 0.25 0  0.625 0.25 0  0.65 0.25 0  0.675 0.25 0  0.7 0.25 0  0.725 0.25 0  0.75 0.25 0  0.775 0.25 0  0.8 0.25 0  0.825 0.25 0  0.85 0.25 0  0.875 0.25 0  0.9 0.25 0  0.925 0.25 0  0.95 0.25 0  0.975 0.25 0  1 0.25 0  0 0.275 0  0.025 0.275 0  0.05 0.275 0  0.075 0.275 0  0.1 0.275 0  0.125 0.275 0  0.15 0.275 0  0.175 0.275 0  0.2 0.275 0  0.225 0.275 0  0.25 0.275 0  0.275 0.275 0  0.3 0.275 0  0.325 0.275 0  0.35 0.275 0  0.375 0.275 0  0.4 0.275 0  0.425 0.275 0  0.45 0.275 0  0.475 0.275 0  0.5 0.275 0  0.525 0.275 0  0.55 0.275 0  0.575 0.275 0  0.6 0.275 0  0.625 0.275 0  0.65 0.275 0  0.675 0.275 0  0.7 0.275 0  0.725 0.275 0  0.75 0.275 0  0.775 0.275 0  0.8 0.275 0  0.825 0.275 0  0.85 0.275 0  0.875 0.275 0  0.9 0.275 0  0.925 0.275 0  0.95 0.275 0  0.975 0.275 0  1 0.275 0  0 0.3 0  0.025 0.3 0  0.05 0.3 0  0.075 0.3 0  0.1 0.3 0  0.125 0.3 0  0.15 0.3 0  0.175 0.3 0  0.2 0.3 0  0.225 0.3 0  0.25 0.3 0  0.275 0.3 0  0.3 0.3 0  0.325 0.3 0  0.35 0.3 0  0.375 0.3 0  0.4 0.3 0  0.425 0.3 0  0.45 0.3 0  0.475 0.3 0  0.5 0.3 0  0.525 0.3 0  0.55 0.3 0  0.575 0.3 0  0.6 0.3 0  0.625 0.3 0  0.65 0.3 0  0.675 0.3 0  0.7 0.3 0  0.725 0.3 0  0.75 0.3 0  0.775 0.3 0  0.8 0.3 0  0.825 0.3 0  0.85 0.3 0  0.875 0.3 0  0.9 0.3 0  0.925 0.3 0  0.95 0.3 0  0.975 0.3 0  1 0.3 0  0 0.325 0  0.025 0.325 0  0.05 0.325 0  0.075 0.325 0  0.1 0.325 0  0.125 0.325 0  0.15 0.325 0  0.175 0.325 0  0.2 0.325 0  0.225 0.325 0  0.25 0.325 0  0.275 0.325 0  0.3 0.325 0  0.325 0.325 0  0.35 0.325 0  0.375 0.325 0  0.4 0.325 0  0.425 0.325 0  0.45 0.325 0  0.475 0.325 0  0.5 0.325 0  0.525 0.325 0  0.55 0.325 0  0.575 0.325 0  0.6 0.325 0  0.625 0.325 0  0.65 0.325 0  0.675 0.325 0  0.7 0.325 0  0.725 0.325 0  0.75 0.325 0  0.775 0.325 0  0.8 0.325 0  0.825 0.325 0  0.85 0.325 0  0.875 0.325 0  0.9 0.325 0  0.925 0.325 0  0.95 0.325 0  0.975 0.325 0  1 0.325 0  0 0.35 0  0.025 0.35 0  0.05 0.35 0  0.075 0.35 0  0.1 0.35 0  0.125 0.35 0  0.15 0.35 0  0.175 0.35 0  0.2 0.35 0  0.225 0.35 0  0.25 0.35 0  0.275 0.35 0  0.3 0.35 0  0.325 0.35 0  0.35 0.35 0  0.375 0.35 0  0.4 0.35 0  0.425 0.35 0  0.45 0.35 0  0.475 0.35 0  0.5 0.35 0  0.525 0.35 0  0.55 0.35 0  0.575 0.35 0  0.6 0.35 0  0.625 0.35 0  0.65 0.35 0  0.675 0.35 0  0.7 0.35 0  0.725 0.35 0  0.75 0.35 0  0.775 0.35 0  0.8 0.35 0  0.825 0.35 0  0.85 0.35 0  0.875 0.35 0  0.9 0.35 0  0.925 0.35 0  0.95 0.35 0  0.975 0.35 0  1 0.35 0  0 0.375 0  0.025 0.375 0  0.05 0.375 0  0.075 0.375 0  0.1 0.375 0  0.125 0.375 0  0.15 0.375 0  0.175 0.375 0  0.2 0.375 0  0.225 0.375 0  0.25 0.375 0  0.275 0.375 0  0.3 0.375 0  0.325 0.375 0  0.35 0.375 0  0.375 0.375 0  0.4 0.375 0  0.425 0.375 0  0.45 0.375 0  0.475 0.375 0  0.5 0.375 0  0.525 0.375 0  0.55 0.375 0  0.575 0.375 0  0.6 0.375 0  0.625 0.375 0  0.65 0.375 0  0.675 0.375 0  0.7 0.375 0  0.725 0.375 0  0.75 0.375 0  0.775 0.375 0  0.8 0.375 0  0.825 0.375 0  0.85 0.375 0  0.875 0.375 0  0.9 0.375 0  0.925 0.375 0  0.95 0.375 0  0.975 0.375 0  1 0.375 0  0 0.4 0  0.025 0.4 0  0.05 0.4 0  0.075 0.4 0  0.1 0.4 0  0.125 0.4 0  0.15 0.4 0  0.175 0.4 0  0.2 0.4 0  0.225 0.4 0  0.25 0.4 0  0.275 0.4 0  0.3 0.4 0  0.325 0.4 0  0.35 0.4 0  0.375 0.4 0  0.4 0.4 0  0.425 0.4 0  0.45 0.4 0  0.475 0.4 0  0.5 0.4 0  0.525 0.4 0  0.55 0.4 0  0.575 0.4 0  0.6 0.4 0  0.625 0.4 0  0.65 0.4 0  0.675 0.4 0  0.7 0.4 0  0.725 0.4 0  0.75 0.4 0  0.775 0.4 0  0.8 0.4 0  0.825 0.4 0  0.85 0.4 0  0.875 0.4 0  0.9 0.4 0  0.925 0.4 0  0.95 0.4 0  0.975 0.4 0  1 0.4 0  0 0.425 0  0.025 0.425 0  0.05 0.425 0  0.075 0.425 0  0.1 0.425 0  0.125 0.425 0  0.15 0.425 0  0.175 0.425 0  0.2 0.425 0  0.225 0.425 0  0.25 0.425 0  0.275 0.425 0  0.3 0.425 0  0.325 0.425 0  0.35 0.425 0  0.375 0.425 0  0.4 0.425 0  0.425 0.425 0  0.45 0.425 0  0.475 0.425 0  0.5 0.425 0  0.525 0.425 0  0.55 0.425 0  0.575 0.425 0  0.6 0.425 0  0.625 0.425 0  0.65 0.425 0  0.675 0.425 0  0.7 0.425 0  0.725 0.425 0  0.75 0.425 0  0.775 0.425 0  0.8 0.425 0  0.825 0.425 0  0.85 0.425 0  0.875 0.425 0  0.9 0.425 0  0.925 0.425 0  0.95 0.425 0  0.975 0.425 0  1 0.425 0  0 0.45 0  0.02
[...]
<PointData  Scalars="ControlVisualisation"> 
<DataArray  type="Float64"  Name="ControlVisualisation"  format="ascii">3.7817575840975353e-08  2.1878976009313633e-08  2.1880073578131130e-08  2.1881909018989007e-08  2.1884426538045674e-08  2.1887559720814525e-08  2.1891224486512140e-08  2.1895323214910595e-08  2.1899747680788748e-08  2.1904382123637258e-08  2.1909106531377320e-08  2.1913799876551776e-08  2.1918343407618795e-08  2.1922623391970246e-08  2.1926534040421711e-08  2.1929979707953153e-08  2.1932877086325713e-08  2.1935156698773989e-08  2.1936764400255183e-08  2.1937662232095543e-08  2.1937829169176682e-08  2.1937261525152566e-08  2.1935972806519057e-08  2.1933993649825616e-08  2.1931371258748718e-08  2.1928168430825852e-08  2.1924462470781078e-08  2.1920343583046597e-08  2.1915913036087704e-08  2.1911280915528346e-08  2.1906563570306475e-08  2.1901880733818743e-08  2.1897352574901028e-08  2.1893096411517812e-08  2.1889223529688053e-08  2.1885835964439306e-08  2.1883023605669482e-08  2.1880860964173674e-08  2.1879411457362165e-08  2.1878689785912761e-08  8.5632236095302342e-08  2.1878978560661520e-08  5.9399163277326730e-09  5.9409920528271569e-09  5.9428852210596954e-09  5.9455653501365257e-09  5.9489608578083004e-09  5.9529805819009962e-09  5.9575178046537442e-09  5.9624528966798032e-09  5.9676567897091261e-09  5.9729946655847535e-09  5.9783295639800925e-09  5.9835261126132763e-09  5.9884538254984482e-09  5.9929903071428722e-09  5.9970240754539018e-09  6.0004569825774555e-09  6.0032062678850896e-09  6.0052061188944895e-09  6.0064090584197125e-09  6.0067866772219989e-09  6.0063302654757398e-09  6.0050508224689000e-09  6.0029789177446470e-09  6.0001641444864154e-09  5.9966741668991124e-09  5.9925933968589658e-09  5.9880213039429596e-09  5.9830703223310581e-09  5.9778633949541479e-09  5.9725310936983695e-09  5.9672084488631991e-09  5.9620315762605071e-09  5.9571340607046003e-09  5.9526433605760981e-09  5.9486771818399252e-09  5.9453402020346002e-09  5.9427209709431148e-09  5.9408873076495327e-09  5.9398316447248912e-09  2.1878690171216418e-08  2.1880103516655698e-08  5.9410139938264297e-09  5.9423601090456263e-09  5.9445176173600351e-09  5.9475775767136696e-09  5.9514625908870282e-09  5.9560687890326622e-09  5.9612737838159524e-09  5.9669402078337434e-09  5.9729198083298180e-09  5.9790575911913771e-09  5.9851960443171533e-09  5.9911793467714055e-09  5.9968572979373828e-09  6.0020888677248038e-09  6.0067455788298719e-09  6.0107141549191346e-09  6.0138990183609282e-09  6.0162239850431470e-09  6.0176338885020477e-09  6.0180955282866301e-09  6.0175981836356856e-09  6.0161538398968865e-09  6.0137969580467343e-09  6.0105838794640615e-09  6.0065917141462908e-09  6.0019169093849436e-09  5.9966732998929173e-09  5.9909896838967081e-09  5.9850071199894756e-09  5.9788755405648985e-09  5.9727501462977601e-09  5.9667875467695146e-09  5.9611415953456888e-09  5.9559592150458999e-09  5.9513762775021240e-09  5.9475138645986487e-09  5.9444733057799283e-09  5.9423237575835350e-09  5.9409059168820820e-09  2.1879421103985403e-08  2.1882052250182732e-08  5.9430081977808795e-09  5.9446295755912036e-09  5.9468130764103080e-09  5.9498937177441528e-09  5.9538042964346021e-09  5.9584408916618699e-09  5.9636798970147939e-09  5.9693827273503224e-09  5.9753998849939956e-09  5.9815751658881945e-09  5.9877500068103833e-09  5.9937676277150009e-09  5.9994771698076789e-09  6.0047370242628646e-09  6.0094183220334119e-09  6.0134076244758176e-09  6.0166091780658706e-09  6.0189468123621063e-09  6.0203652559398426e-09  6.0208312955167503e-09  6.0203341570216642e-09  6.0188857579971474e-09  6.0165204263422676e-09  6.0132944128547451e-09  6.0092847696976875e-09  6.0045879563895641e-09  5.9993179684878284e-09  5.9936039286274290e-09  5.9875873743545295e-09  5.9814189768464258e-09  5.9752548517831829e-09  5.9692527036361014e-09  5.9635676185039980e-09  5.9583478248478938e-09  5.9537304918413539e-09  5.9498378144076606e-09  5.9467710965210422e-09  5.9445832208273266e-09  5.9428315630119571e-09  2.1880928397337510e-08  2.1884872743456242e-08  5.9459752048942344e-09  5.9480111584111736e-09  5.9502166700946770e-09  5.9532989921099102e-09  5.9572096581599951e-09  5.9618452876531723e-09  5.9670817606902525e-09  5.9727800448501333e-09  5.9787903211423521e-09  5.9849562370501099e-09  5.9911192995921318e-09  5.9971230591974099e-09  6.0028171701735981e-09  6.0080608822449415e-09  6.0127261881263527e-09  6.0167006121344227e-09  6.0198893425222928e-09  6.0222170276781190e-09  6.0236291221230182e-09  6.0240927579254098e-09  6.0235972621469675e-09  6.0221544156772949e-09  6.0197981431787788e-09  6.0165839614087471e-09  6.0125880890975486e-09  6.0079060510081344e-09  6.0026508821814059e-09  5.9969508520700781e-09  5.9909467541730948e-09  5.9847887336268374e-09  5.9786326414150527e-09  5.9726361437278052e-09  5.9669544993872198e-09  5.9617362858774017e-09  5.9571191010579093e-09  5.9532255330614185e-09  5.9501559891687023e-09  5.9479392754929705e-09  5.9457175497495976e-09  2.1883277614121992e-08  2.1888645276737904e-08  5.9499988425478827e-09  5.9526047269544522e-09  5.9548391895996086e-09  5.9579216292925989e-09  5.9618298335503954e-09  5.9664609453573255e-09  5.9716902853441737e-09  5.9773782776115520e-09  5.9833747301068514e-09  5.9895232112149160e-09  5.9956654382350842e-09  6.0016456017349792e-09  6.0073141794978575e-09  6.0125315808037364e-09  6.0171711934888770e-09  6.0211219624677648e-09  6.0242904443010836e-09  6.0266024999900149e-09  6.0280045010482166e-09  6.0284641928278753e-09  6.0279710904878417e-09  6.0265366832452130e-09  6.0241943411735045e-09  6.0209985871479825e-09  6.0170244260512847e-09  6.0123660181572774e-09  6.0071350168933207e-09  6.0014583599031072e-09  5.9954757424870969e-09  5.9893364897001419e-09  5.9831959407335159e-09  5.9772115836608767e-09  5.9715388172874137e-09  5.9663265877212567e-09  5.9617130141793897e-09  5.9578212052868574e-09  5.9547504180064291e-09  5.9524974242748938e-09  5.9496463916422466e-09  2.1886528312805913e-08  2.1893475915159813e-08  5.9551926140960787e-09  5.9585404082224041e-09  5.9608121147921128e-09  5.9638934111063717e-09  5.9677966499635691e-09  5.9724197868251679e-09  5.9776374199546694e-09  5.9833093263048744e-09  5.9892848664477500e-09  5.9954075655782289e-09  6.0015195282268457e-09  6.0074657728420302e-09  6.0130980958315776e-09  6.0182784671925867e-09  6.0228821293112542e-09  6.0267999642098395e-09  6.0299403530669194e-09  6.0322308155645222e-09  6.0336189355809811e-09  6.0340732233863338e-09  6.0335834686389096e-09  6.0321608335725816e-09  6.0298378485514236e-09  6.0266677891667406e-09  6.0227240019720897e-09  6.0180988043039917e-09  6.0129019821283195e-09  6.0072586814633459e-09  6.0013070281495681e-09  5.9951951708186904e-09  5.9890777339038659e-09  5.9831118800774929e-09  5.9774531269730347e-09  5.9722508665064083e-09  5.9676438763855708e-09  5.9637559548920533e-09  5.9606849082432172e-09  5.9583865505894517e-09  5.9547280768679823e-09  2.1890771121992571e-08  2.1899501718456080e-08  5.9617051001145821e-09  5.9659880110258037e-09  5.9683056169079372e-09  5.9713835812792203e-09  5.9752780206634745e-09  5.9798880258405875e-09  5.9850872743139037e-09  5.9907347755133697e-09  5.9966794381558062e-09  6.0027648385155778e-09  6.0088337043800828e-09  6.0147322530357928e-09  6.0203140565061456e-09  6.0254433328931853e-09  6.0299977273868096e-09  6.0338706644949470e-09  6.0369729633494140e-09  6.0392342379672002e-09  6.0406037100260994e-09  6.0410508485492880e-09  6.0405657591654332e-09  6.0391592165907142e-09  6.0368626624034631e-09  6.0337277331581806e-09  6.0298256109399002e-09  6.0252462210920626e-09  6.0200968177820039e-09  6.0145001558188425e-09  6.0085922383585770e-09  6.0025195665208242e-09  5.9964357028798859e-09  5.9904972810662145e-09  5.9848598669275038e-09  5.9796733707510264e-09  5.9750773783077778e-09  5.9711965486908882e-09  5.9681268836594738e-09  5.9657731534201345e-09  5.9611061763617452e-09  2.1896124621444684e-08  2.1906895465956982e-08  5.9697245856250640e-09  5.9751630311056898e-09  5.9775357840330053e-09  5.9806069468088170e-09  5.9844869082619268e-09  5.9890761453325624e-09  5.9942472899395746e-09  5.9998584150995058e-09  6.0057580060046372e-09  6.0117899020246523e-09  6.0177978277831387e-09  6.0236297770153194e-09  6.0291417058840966e-09  6.0342009089650306e-09  6.0386882883346170e-09  6.0425005349049923e-09  6.0455516402004792e-09  6.0477738538348950e-09  6.0491184750799654e-09  6.0495562450210473e-09  6.0490776548135609e-09  6.0476929565312721e-09  6.0454322022652210e-09  6.0423449275303024e-09  6.0384995632893742e-09  6.0339829000980573e-09  6.0288988365943270e-09  6.0233669494809664e-09  6.0175204102392071e-09  6.0115033930859042e-09  6.0054678434654238e-09  5.9995695818689066e-09  5.9939640697960094e-09  5.9888017711910004e-09  5.9842232499484659e-09  5.9803542356253670e-09  5.9772885633856647e-09  5.9748684504409063e-09  5.9689627364182892e-09  2.1902739661846320e-08  2.1915871690362816e-08  5.9794860758765807e-09  5.9863347139073626e-09  5.9887726519568043e-09  5.9918319109958088e-09  5.9956892625880757e-09  6.0002467844644414e-09  6.0053758195091719e-09  6.0109334336629806e-09  6.0167677724006356e-09  6.0227232525634789e-09  6.0286452755677036e-09  6.0343843797123646e-09  6.0397999678736349e-09  6.0447632949644102e-09  6.0491596898397998e-09  6.0528901334056140e-09  6.0558726096342939e-09  6.0580427857480155e-09  6.0593544893536796e-09  6.0597800507655626e-09  6.0593104497151260e-09  6.0579553073593550e-09  6.0557429210172959e-09  6.0527201239455997e-09  6.0489518596303606e-09  6.0445208649245733e-09  6.0395267145431342e-09  6.0340846947833335e-09  6.0283241122366881e-09  6.0223858642487889e-09  6.0164195091958972e-09  6.0105795204250621e-09  6.0050210010137693e-09  5.9998949434148933e-09  5.9953430795129533e-09  5.9914925209294905e-09  5.9884346252834247e-09  5.9859357814945991e-09  5.9785245987404942e-09  2.1910804430637149e-08  2.1926694161062375e-08  5.9912798573590780e-09  5.9998361641464526e-09  6.0023504582239767e-09  6.0053908396577951e-09  6.0092143510399090e-09  6.0137248562554583e-09  6.0187919446261780e-09  6.0242716259610838e-09  6.0300119654967827e-09  6.0358586368575318e-09  6.0416595869900714e-09  6.0472692128814745e-09  6.0525517879814337e-09  6.0573840021468522e-09  6.0616568903954038e-09  6.0652770857257105e-09  6.0681676634567709e-09  6.0702685334415261e-09  6.0715366746395177e-09  6.0719464104160692e-09  6.0714892530973454e-09  6.0701740399937690e-09  6.0680269268181149e-09  6.0650913368788974e-09  6.0614278249383039e-09  6.0571139132071809e-09  6.0522435507966610e-09  6.0469263149237205e-09  6.0412861529292984e-09  6.0354593216556678e-09  6.0295918263592648e-09  6.0238358979099533e-09  6.0183457831429458e-09  6.0132728744981780e-09  6.0087603297435983e-09  6.0049371343278793e-09  6.0018920064361179e-09  5.9993001763745895e-09  5.9900714628247726e-09  2.1920550832003129e-08  2.1939685179950401e-08  6.0054623731445507e-09  6.0160771728611170e-09  6.0186809308331929e-09  6.0216936427971305e-09  6.0254684702639181e-09  6.0299109379860898e-09  6.0348883369044264e-09  6.0402554550177258e-09  6.0458608141358949e-09  6.0515524979022425e-09  6.0571826698116568e-09  6.0626114590932309e-09  6.0677099961065828e-09  6.0723624845590794e-09  6.0764675685068744e-09  6.0799390883819614e-09  6.0827065183957901e-09  6.0847150780051457e-09  6.0859256336079456e-09  6.0863147971008140e-09  6.0858748581318617e-09  6.0846136063831911e-09  6.0825545854330997e-09  6.0797370025361368e-09  6.0762159294339386e-09  6.0720622998478622e-09  6.0673627191452058e-09  6.0622191046074608e-09  6.0567480062057935e-09  6.0510790160013187e-09  6.0453527206757182e-09  6.0397176122086713e-09  6.0343261358907383e-09  6.0293297805697944e-09  6.0248734746800829e-09  6.0210889115718283e-09  6.0180623404742275e-09  6.0153602375080303e-09  6.0039457318245643e-09  2.1932262237201351e-08  2.1955236423484299e-08  6.0224693366781983e-09  6.0355603024966799e-09  6.0382704222329475e-09  6.0412456202711361e-09  6.0449532469473161e-09  6.0492994966589998e-09  6.0541484617308084e-09  6.0593537416404690e-09  6.0647655321848471e-09  6.0702362015682285e-09  6.0756247625386871e-09  6.0808001852502943e-09  6.0856435113781766e-09  6.0900491290190901e-09  6.0939257754226874e-09  6.0971965861293133e-09  6.0997989635458043e-09  6.1016845300493509e-09  6.1028189017906561e-09  6.1031814300228603e-09  6.1027651902253975e-09  6.1015768275857304e-09  6.0996366435977999e-09  6.0969788391160607e-09  6.0936517230618580e-09  6.0897178958353248e-09  6.0852544562278524e-09  6.0803531598751268e-09  6.0751202168736979e-09  6.0696754923382519e-09  6.0641512187152508e-09  6.0586896163311519e-09  6.0534395231702885e-09  6.0485517941958965e-09  6.0441735248347108e-09  6.0404405487877003e-09  6.0374377312781642e-09  6.0346028522819579e-09  6.0205644044020549e-09  2.1946282678658081e-08  2.1973821431685499e-08  6.0428314259222273e-09  6.0589004909951303e-09  6.0617415177800010e-09  6.0646709976736077e-09  6.0682901696471376e-09  6.0725035775146557e-09  6.0771703776262692e-09  6.0821433889287968e-09  6.0872767713211542e-09  6.0924310497286311e-09  6.0974766374847214e-09  6.1022958433306129e-09  6.1067840846775904e-09  6.1108499324356322e-09  6.1144152746822111e-09  6.1174149096123973e-09  6.1197959817167035e-09  6.1215178293862938e-09  6.1225514714468624e-09  6.1228794866581195e-09  6.1224958004396318e-09  6.1214056528740011e-09  6.1196257078468439e-09  6.1171842409224020e-09  6.1141213677211998e-09  6.1104893793292969e-09  6.1063532676419083e-09  6.1017912647165492e-09  6.0968951843669221e-09  6.0917705646131453e-09  6.0865365183838828e-09  6.0813246158768104e-09  6.0762766736785775e-09  6.0715411563574669e-09  6.0672676662824920e-09  6.0635986655060705e-09  6.0606205396337803e-09  6.0576206988291931e-09  6.0404327026348751e-09  2.1963027281742218e-08  2.1996007226005562e-08  6.0671911937578143e-09  6.0868485805474317e-09  6.0898611780509956e-09  6.0927452913456553e-09  6.0962556649695025e-09  6.1002899512589414e-09  6.1046997450169177e-09  6.1093385813167543e-09  6.1140695201156933e-09  6.1187682036172449e-09  6.1233240495034232e-09  6.1276404134266202e-09  6.1316333215138317e-09  6.1352306800108123e-09  6.1383715484944017e-09  6.1410050095244299e-09  6.1430897726679207e-09  6.1445939444411339e-09  6.1454946782980004e-09  6.1457779393706650e-09  6.1454387280035220e-09  6.1444806295438413e-09  6.1429162948036876e-09  6.1407672855288057e-09  6.1380641829445432e-09  6.1348469574709555e-09  6.1311654834574997e-09  6.1270801521594178e-09  6.1226627881794026e-09  6.1179978148956872e-09  6.1131835736477103e-09  6.1083332407861852e-09  6.1035749970287604e-09  6.0990508324989694e-09  6.0949126325928621e-09  6.0913136895848329e-09  6.0883484892772345e-09  6.0851323536408615e-09  6.0641583542652077e-09  2.1982992798177026e-08  2.2022462816609283e-08  6.0963191981639308e-09  6.1203178947287882e-09  6.1235773112035973e-09  6.1264407135398924e-09  6.1298319661282777e-09  6.1336307849300053e-09  6.1376777458207841e-09  6.1418319111269448e-09  6.1459754943739581e-09  6.1500126164118874e-09  6.1538649911220120e-09  6.1574682973127405e-09  6.1607686004962169e-09  6.1637196271270835e-09  6.1662820353440008e-09  6.1684219607922915e-09  6.1701110416781881e-09  6.1713268178555102e-09  6.1720527222400941e-09  6.1722782257387364e-09  6.1719992458834740e-09  6.1712178557924731e-09  6.1699424582634639e-09  6.1681875815717970e-09  6.1659733437306809e-09  6.1633256963612051e-09  6.1602762452334501e-09  6.1568624780675891e-09  6.1531288895649473e-09  6.1491288778997183e-09  6.1449277386782482e-09  6.1406066330268094e-09  6.1362672303126989e-09  6.1320356770162165e-09  6.1280635809106732e-09  6.1245215617983632e-09  6.1215260311054929e-09  6.1180033730166273e-09  6.0924634921240773e-09  2.2006765664984031e-08  2.2053952820795809e-08  6.1311215961869955e-09  6.1604111137463279e-09  6.1640676272684397e-09  6.1669943250482984e-09  6.1702859666685787e-09  6.1737832414472452e-09  6.1773128615784889e-09  6.1807529155611730e-09  6.1840274835045096e-09  6.1870935866471099e-09  6.1899278668922421e-09  6.1925160163317068e-09  6.1948464892357830e-09  6.1969067588600118e-09  6.1986829322055182e-09  6.2001601954571976e-09  6.2013233651708912e-09  6.2021590579619072e-09  6.2026562937398332e-09  6.2028075489229307e-09  6.2026094591389691e-09  6.2020628292818190e-09  6.2011722471381237e-09  6.1999456938526395e-09  6.1983931433969653e-09  6.1965257532403802e-09  6.1943543809952388e-09  6.1918885322348614e-09  6.1891364810948348e-09  6.1861066791374512e-09  6.1828121571042046e-09  6.1792784191330024e-09  6.1755553938000959e-09  6.1717321261339323e-09  6.1679500567729557e-09  6.1644055720505350e-09  6.1612644589143729e-09  6.1572635580685122e-09  6.1261862267767641e-09  2.2035020986763858e-08  2.2091294563205835e-08  6.1726213111232426e-09  6.2084394067305018e-09  6.2128087123038618e-09  6.2160182356473626e-09  6.2192998473970038e-09  6.2224181260685535e-09  6.2251915105884902e-09  6.2275530022523625e-09  6.2295169621644139e-09  6.2311399046150652e-09  6.2324899975893242e-09  6.2336285048440495e-09  6.2346012631520381e-09  6.2354372055810253e-09  6.2361501644093401e-09  6.2367433520544924e-09  6.2372127975737501e-09  6.2375514884127393e-09  6.2377520252244366e-09  6.2378084177025000e-09  6.2377176921112789e-09  6.2374798741418334e-09  6.2370973225832585e-09  6.2365735503333484e-09  6.2359107041980169e-09  6.2351068652045601e-09  6.2341521808262829e-09  6.2330247443373258e-09  6.2316873329836991e-09  6.2300856826946307e-09  6.2281519214777992e-09  6.2258156599062205e-09  6.2230264244689503e-09  6.2197885683938970e-09  6.2162028992900311e-09  6.2124963807374656e-09  6.2089353256659391e-09  6.2041092940145316e-09  6.1662530085751242e-09  2.2068497161450789e-08  2.2135218500731877e-08  6.2218685662860775e-09  6.2659185266984025e-09  6.2716859696876181e-09  6.2756963721173821e-09  6.2792028364979653e-09  6.2818376141453335e-09  6.2834519420484857e-09  6.2841268636573029e-09  6.2840684576597989e-09  6.2835168384655570e-09  6.2826892705936921e-09  6.2817554789969283e-09  6.2808334639268189e-09  6.2799962847833843e-09  6.2792826053299642e-09  6.2787073665027906e-09  6.2782711648717310e-09  6.2779671366496237e-09  6.2777868384546431e-09  6.2777232238252388e-09  6.2777728534447999e-09  6.2779361466011665e-09  6.2782163925918916e-09  6.2786173890932514e-09  6.2791394283494922e-09  6.2797739002666463e-09  6.2804957433874560e-09  6.2812536655668732e-09  6.2819592680162599e-09  6.2824768039466047e-09  6.2826183506002319e-09  6.2821525014541730e-09  6.2808380265355535e-09  6.2784908821659109e-09  6.2750831897894116e-09  6.2708505753355817e-09  6.2662497289397805e-09  6.2598671187862793e-09  6.2135778210907999e-09  2.2107909562800933e-08  2.2185986027413000e-08  6.2796814750457592e-09  6.3345051945634692e-09  6.3432028656741530e-09  6.3491763310747655e-09  6.3534098747165329e-09  6.3553567173631034e-09  6.3550600653848859e-09  6.3529807596367380e-09  6.3497233706702981e-09  6.3458542628852539e-09  6.3418194535302085e-09  6.3379301491788060e-09  6.3343811634641972e-09  6.3312798514195458e-09  6.3286741205260959e-09  6.3265747948285970e-09  6.3249724854898830e-09  6.3238492599605061e-09  6.3231871623162891e-09  6.3229734519535421e-09  6.3232030197152758e-09  6.3238789205615721e-09  6.3250107759700687e-09  6.3266112869642865e-09  6.3286904668161258e-09  6.3312473316702277e-09  6.3342574263775010e-09  6.3376545445274369e-09  6.3413063632324029e-09  6.3449851614243620e-09  6.3483393338564510e-09  6.3508832728365551e-09  6.3520238809403952e-09  6.3511634198041589e-09  6.3479145879753921e-09  6.3424112641304776e-09  6.3354182424891135e-09  6.3258687367279063e-09  6.2687749814953923e-09  2.2153713225635339e-08  2.2242514948167235e-08  6.3459592005699072e-09  6.4158453871211698e-09  6.4310042319720894e-09  6.4414516789944469e-09  6.4473171713536815e-09  6.4479964290412192e-09  6.4442453874929267e-09  6.437454046