<?xml version="1.0"?>
<VTKFile type="UnstructuredGrid"  version="0.1"  >
<UnstructuredGrid>
<Piece  NumberOfPoints="1681" NumberOfCells="3200">
<Points>
<DataArray  type="Float64"  NumberOfComponents="3"  format="ascii">0 0 0  0.025 0 0  0.05 0 0  0.075 0 0  0.1 0 0  0.125 0 0  0.15 0 0  0.175 0 0  0.2 0 0  0.225 0 0  0.25 0 0  0.275 0 0  0.3 0 0  0.325 0 0  0.35 0 0  0.375 0 0  0.4 0 0  0.425 0 0  0.45 0 0  0.475 0 0  0.5 0 0  0.525 0 0  0.55 0 0  0.575 0 0  0.6 0 0  0.625 0 0  0.65 0 0  0.675 0 0  0.7 0 0  0.725 0 0  0.75 0 0  0.775 0 0  0.8 0 0  0.825 0 0  0.85 0 0  0.875 0 0  0.9 0 0  0.925 0 0  0.95 0 0  0.975 0 0  1 0 0  0 0.025 0  0.025 0.025 0  0.05 0.025 0  0.075 0.025 0  0.1 0.025 0  0.125 0.025 0  0.15 0.025 0  0.175 0.025 0  0.2 0.025 0  0.225 0.025 0  0.25 0.025 0  0.275 0.025 0  0.3 0.025 0  0.325 0.025 0  0.35 0.025 0  0.375 0.025 0  0.4 0.025 0  0.425 0.025 0  0.45 0.025 0  0.475 0.025 0  0.5 0.025 0  0.525 0.025 0  0.55 0.025 0  0.575 0.025 0  0.6 0.025 0  0.625 0.025 0  0.65 0.025 0  0.675 0.025 0  0.7 0.025 0  0.725 0.025 0  0.75 0.025 0  0.775 0.025 0  0.8 0.025 0  0.825 0.025 0  0.85 0.025 0  0.875 0.025 0  0.9 0.025 0  0.925 0.025 0  0.95 0.025 0  0.975 0.025 0  1 0.025 0  0 0.05 0  0.025 0.05 0  0.05 0.05 0  0.075 0.05 0  0.1 0.05 0  0.125 0.05 0  0.15 0.05 0  0.175 0.05 0  0.2 0.05 0  0.225 0.05 0  0.25 0.05 0  0.275 0.05 0  0.3 0.05 0  0.325 0.05 0  0.35 0.05 0  0.375 0.05 0  0.4 0.05 0  0.425 0.05 0  0.45 0.05 0  0.475 0.05 0  0.5 0.05 0  0.525 0.05 0  0.55 0.05 0  0.575 0.05 0  0.6 0.05 0  0.625 0.05 0  0.65 0.05 0  0.675 0.05 0  0.7 0.05 0  0.725 0.05 0  0.75 0.05 0  0.775 0.05 0  0.8 0.05 0  0.825 0.05 0  0.85 0.05 0  0.875 0.05 0  0.9 0.05 0  0.925 0.05 0  0.95 0.05 0  0.975 0.05 0  1 0.05 0  0 0.075 0  0.025 0.075 0  0.05 0.075 0  0.075 0.075 0  0.1 0.075 0  0.125 0.075 0  0.15 0.075 0  0.175 0.075 0  0.2 0.075 0  0.225 0.075 0  0.25 0.075 0  0.275 0.075 0  0.3 0.075 0  0.325 0.075 0  0.35 0.075 0  0.375 0.075 0  0.4 0.075 0  0.425 0.075 0  0.45 0.075 0  0.475 0.075 0  0.5 0.075 0  0.525 0.075 0  0.55 0.075 0  0.575 0.075 0  0.6 0.075 0  0.625 0.075 0  0.65 0.075 0  0.675 0.075 0  0.7 0.075 0  0.725 0.075 0  0.75 0.075 0  0.775 0.075 0  0.8 0.075 0  0.825 0.075 0  0.85 0.075 0  0.875 0.075 0  0.9 0.075 0  0.925 0.075 0  0.95 0.075 0  0.975 0.075 0  1 0.075 0  0 0.1 0  0.025 0.1 0  0.05 0.1 0  0.075 0.1 0  0.1 0.1 0  0.125 0.1 0  0.15 0.1 0  0.175 0.1 0  0.2 0.1 0  0.225 0.1 0  0.25 0.1 0  0.275 0.1 0  0.3 0.1 0  0.325 0.1 0  0.35 0.1 0  0.375 0.1 0  0.4 0.1 0  0.425 0.1 0  0.45 0.1 0  0.475 0.1 0  0.5 0.1 0  0.525 0.1 0  0.55 0.1 0  0.575 0.1 0  0.6 0.1 0  0.625 0.1 0  0.65 0.1 0  0.675 0.1 0  0.7 0.1 0  0.725 0.1 0  0.75 0.1 0  0.775 0.1 0  0.8 0.1 0  0.825 0.1 0  0.85 0.1 0  0.875 0.1 0  0.9 0.1 0  0.925 0.1 0  0.95 0.1 0  0.975 0.1 0  1 0.1 0  0 0.125 0  0.025 0.125 0  0.05 0.125 0  0.075 0.125 0  0.1 0.125 0  0.125 0.125 0  0.15 0.125 0  0.175 0.125 0  0.2 0.125 0  0.225 0.125 0  0.25 0.125 0  0.275 0.125 0  0.3 0.125 0  0.325 0.125 0  0.35 0.125 0  0.375 0.125 0  0.4 0.125 0  0.425 0.125 0  0.45 0.125 0  0.475 0.125 0  0.5 0.125 0  0.525 0.125 0  0.55 0.125 0  0.575 0.125 0  0.6 0.125 0  0.625 0.125 0  0.65 0.125 0  0.675 0.125 0  0.7 0.125 0  0.725 0.125 0  0.75 0.125 0  0.775 0.125 0  0.8 0.125 0  0.825 0.125 0  0.85 0.125 0  0.875 0.125 0  0.9 0.125 0  0.925 0.125 0  0.95 0.125 0  0.975 0.125 0  1 0.125 0  0 0.15 0  0.025 0.15 0  0.05 0.15 0  0.075 0.15 0  0.1 0.15 0  0.125 0.15 0  0.15 0.15 0  0.175 0.15 0  0.2 0.15 0  0.225 0.15 0  0.25 0.15 0  0.275 0.15 0  0.3 0.15 0  0.325 0.15 0  0.35 0.15 0  0.375 0.15 0  0.4 0.15 0  0.425 0.15 0  0.45 0.15 0  0.475 0.15 0  0.5 0.15 0  0.525 0.15 0  0.55 0.15 0  0.575 0.15 0  0.6 0.15 0  0.625 0.15 0  0.65 0.15 0  0.675 0.15 0  0.7 0.15 0  0.725 0.15 0  0.75 0.15 0  0.775 0.15 0  0.8 0.15 0  0.825 0.15 0  0.85 0.15 0  0.875 0.15 0  0.9 0.15 0  0.925 0.15 0  0.95 0.15 0  0.975 0.15 0  1 0.15 0  0 0.175 0  0.025 0.175 0  0.05 0.175 0  0.075 0.175 0  0.1 0.175 0  0.125 0.175 0  0.15 0.175 0  0.175 0.175 0  0.2 0.175 0  0.225 0.175 0  0.25 0.175 0  0.275 0.175 0  0.3 0.175 0  0.325 0.175 0  0.35 0.175 0  0.375 0.175 0  0.4 0.175 0  0.425 0.175 0  0.45 0.175 0  0.475 0.175 0  0.5 0.175 0  0.525 0.175 0  0.55 0.175 0  0.575 0.175 0  0.6 0.175 0  0.625 0.175 0  0.65 0.175 0  0.675 0.175 0  0.7 0.175 0  0.725 0.175 0  0.75 0.175 0  0.775 0.175 0  0.8 0.175 0  0.825 0.175 0  0.85 0.175 0  0.875 0.175 0  0.9 0.175 0  0.925 0.175 0  0.95 0.175 0  0.975 0.175 0  1 0.175 0  0 0.2 0  0.025 0.2 0  0.05 0.2 0  0.075 0.2 0  0.1 0.2 0  0.125 0.2 0  0.15 0.2 0  0.175 0.2 0  0.2 0.2 0  0.225 0.2 0  0.25 0.2 0  0.275 0.2 0  0.3 0.2 0  0.325 0.2 0  0.35 0.2 0  0.375 0.2 0  0.4 0.2 0  0.425 0.2 0  0.45 0.2 0  0.475 0.2 0  0.5 0.2 0  0.525 0.2 0  0.55 0.2 0  0.575 0.2 0  0.6 0.2 0  0.625 0.2 0  0.65 0.2 0  0.675 0.2 0  0.7 0.2 0  0.725 0.2 0  0.75 0.2 0  0.775 0.2 0  0.8 0.2 0  0.825 0.2 0  0.85 0.2 0  0.875 0.2 0  0.9 0.2 0  0.925 0.2 0  0.95 0.2 0  0.975 0.2 0  1 0.2 0  0 0.225 0  0.025 0.225 0  0.05 0.225 0  0.075 0.225 0  0.1 0.225 0  0.125 0.225 0  0.15 0.225 0  0.175 0.225 0  0.2 0.225 0  0.225 0.225 0  0.25 0.225 0  0.275 0.225 0  0.3 0.225 0  0.325 0.225 0  0.35 0.225 0  0.375 0.225 0  0.4 0.225 0  0.425 0.225 0  0.45 0.225 0  0.475 0.225 0  0.5 0.225 0  0.525 0.225 0  0.55 0.225 0  0.575 0.225 0  0.6 0.225 0  0.625 0.225 0  0.65 0.225 0  0.675 0.225 0  0.7 0.225 0  0.725 0.225 0  0.75 0.225 0  0.775 0.225 0  0.8 0.225 0  0.825 0.225 0  0.85 0.225 0  0.875 0.225 0  0.9 0.225 0  0.925 0.225 0  0.95 0.225 0  0.975 0.225 0  1 0.225 0  0 0.25 0  0.025 0.25 0  0.05 0.25 0  0.075 0.25 0  0.1 0.25 0  0.125 0.25 0  0.15 0.25 0  0.175 0.25 0  0.2 0.25 0  0.225 0.25 0  0.25 0.25 0  0.275 0.25 0  0.3 0.25 0  0.325 0.25 0  0.35 0.25 0  0.375 0.25 0  0.4 0.25 0  0.425 0.25 0  0.45 0.25 0  0.475 0.25 0  0.5 0.25 0  0.525 0.25 0  0.55 0.25 0  0.575 0.25 0  0.6 0.25 0  0.625 0.25 0  0.65 0.25 0  0.675 0.25 0  0.7 0.25 0  0.725 0.25 0  0.75 0.25 0  0.775 0.25 0  0.8 0.25 0  0.825 0.25 0  0.85 0.25 0  0.875 0.25 0  0.9 0.25 0  0.925 0.25 0  0.95 0.25 0  0.975 0.25 0  1 0.25 0  0 0.275 0  0.025 0.275 0  0.05 0.275 0  0.075 0.275 0  0.1 0.275 0  0.125 0.275 0  0.15 0.275 0  0.175 0.275 0  0.2 0.275 0  0.225 0.275 0  0.25 0.275 0  0.275 0.275 0  0.3 0.275 0  0.325 0.275 0  0.35 0.275 0  0.375 0.275 0  0.4 0.275 0  0.425 0.275 0  0.45 0.275 0  0.475 0.275 0  0.5 0.275 0  0.525 0.275 0  0.55 0.275 0  0.575 0.275 0  0.6 0.275 0  0.625 0.275 0  0.65 0.275 0  0.675 0.275 0  0.7 0.275 0  0.725 0.275 0  0.75 0.275 0  0.775 0.275 0  0.8 0.275 0  0.825 0.275 0  0.85 0.275 0  0.875 0.275 0  0.9 0.275 0  0.925 0.275 0  0.95 0.275 0  0.975 0.275 0  1 0.275 0  0 0.3 0  0.025 0.3 0  0.05 0.3 0  0.075 0.3 0  0.1 0.3 0  0.125 0.3 0  0.15 0.3 0  0.175 0.3 0  0.2 0.3 0  0.225 0.3 0  0.25 0.3 0  0.275 0.3 0  0.3 0.3 0  0.325 0.3 0  0.35 0.3 0  0.375 0.3 0  0.4 0.3 0  0.425 0.3 0  0.45 0.3 0  0.475 0.3 0  0.5 0.3 0  0.525 0.3 0  0.55 0.3 0  0.575 0.3 0  0.6 0.3 0  0.625 0.3 0  0.65 0.3 0  0.675 0.3 0  0.7 0.3 0  0.725 0.3 0  0.75 0.3 0  0.775 0.3 0  0.8 0.3 0  0.825 0.3 0  0.85 0.3 0  0.875 0.3 0  0.9 0.3 0  0.925 0.3 0  0.95 0.3 0  0.975 0.3 0  1 0.3 0  0 0.325 0  0.025 0.325 0  0.05 0.325 0  0.075 0.325 0  0.1 0.325 0  0.125 0.325 0  0.15 0.325 0  0.175 0.325 0  0.2 0.325 0  0.225 0.325 0  0.25 0.325 0  0.275 0.325 0  0.3 0.325 0  0.325 0.325 0  0.35 0.325 0  0.375 0.325 0  0.4 0.325 0  0.425 0.325 0  0.45 0.325 0  0.475 0.325 0  0.5 0.325 0  0.525 0.325 0  0.55 0.325 0  0.575 0.325 0  0.6 0.325 0  0.625 0.325 0  0.65 0.325 0  0.675 0.325 0  0.7 0.325 0  0.725 0.325 0  0.75 0.325 0  0.775 0.325 0  0.8 0.325 0  0.825 0.325 0  0.85 0.325 0  0.875 0.325 0  0.9 0.325 0  0.925 0.325 0  0.95 0.325 0  0.975 0.325 0  1 0.325 0  0 0.35 0  0.025 0.35 0  0.05 0.35 0  0.075 0.35 0  0.1 0.35 0  0.125 0.35 0  0.15 0.35 0  0.175 0.35 0  0.2 0.35 0  0.225 0.35 0  0.25 0.35 0  0.275 0.35 0  0.3 0.35 0  0.325 0.35 0  0.35 0.35 0  0.375 0.35 0  0.4 0.35 0  0.425 0.35 0  0.45 0.35 0  0.475 0.35 0  0.5 0.35 0  0.525 0.35 0  0.55 0.35 0  0.575 0.35 0  0.6 0.35 0  0.625 0.35 0  0.65 0.35 0  0.675 0.35 0  0.7 0.35 0  0.725 0.35 0  0.75 0.35 0  0.775 0.35 0  0.8 0.35 0  0.825 0.35 0  0.85 0.35 0  0.875 0.35 0  0.9 0.35 0  0.925 0.35 0  0.95 0.35 0  0.975 0.35 0  1 0.35 0  0 0.375 0  0.025 0.375 0  0.05 0.375 0  0.075 0.375 0  0.1 0.375 0  0.125 0.375 0  0.15 0.375 0  0.175 0.375 0  0.2 0.375 0  0.225 0.375 0  0.25 0.375 0  0.275 0.375 0  0.3 0.375 0  0.325 0.375 0  0.35 0.375 0  0.375 0.375 0  0.4 0.375 0  0.425 0.375 0  0.45 0.375 0  0.475 0.375 0  0.5 0.375 0  0.525 0.375 0  0.55 0.375 0  0.575 0.375 0  0.6 0.375 0  0.625 0.375 0  0.65 0.375 0  0.675 0.375 0  0.7 0.375 0  0.725 0.375 0  0.75 0.375 0  0.775 0.375 0  0.8 0.375 0  0.825 0.375 0  0.85 0.375 0  0.875 0.375 0  0.9 0.375 0  0.925 0.375 0  0.95 0.375 0  0.975 0.375 0  1 0.375 0  0 0.4 0  0.025 0.4 0  0.05 0.4 0  0.075 0.4 0  0.1 0.4 0  0.125 0.4 0  0.15 0.4 0  0.175 0.4 0  0.2 0.4 0  0.225 0.4 0  0.25 0.4 0  0.275 0.4 0  0.3 0.4 0  0.325 0.4 0  0.35 0.4 0  0.375 0.4 0  0.4 0.4 0  0.425 0.4 0  0.45 0.4 0  0.475 0.4 0  0.5 0.4 0  0.525 0.4 0  0.55 0.4 0  0.575 0.4 0  0.6 0.4 0  0.625 0.4 0  0.65 0.4 0  0.675 0.4 0  0.7 0.4 0  0.725 0.4 0  0.75 0.4 0  0.775 0.4 0  0.8 0.4 0  0.825 0.4 0  0.85 0.4 0  0.875 0.4 0  0.9 0.4 0  0.925 0.4 0  0.95 0.4 0  0.975 0.4 0  1 0.4 0  0 0.425 0  0.025 0.425 0  0.05 0.425 0  0.075 0.425 0  0.1 0.425 0  0.125 0.425 0  0.15 0.425 0  0.175 0.425 0  0.2 0.425 0  0.225 0.425 0  0.25 0.425 0  0.275 0.425 0  0.3 0.425 0  0.325 0.425 0  0.35 0.425 0  0.375 0.425 0  0.4 0.425 0  0.425 0.425 0  0.45 0.425 0  0.475 0.425 0  0.5 0.425 0  0.525 0.425 0  0.55 0.425 0  0.575 0.425 0  0.6 0.425 0  0.625 0.425 0  0.65 0.425 0  0.675 0.425 0  0.7 0.425 0  0.725 0.425 0  0.75 0.425 0  0.775 0.425 0  0.8 0.425 0  0.825 0.425 0  0.85 0.425 0  0.875 0.425 0  0.9 0.425 0  0.925 0.425 0  0.95 0.425 0  0.975 0.425 0  1 0.425 0  0 0.45 0  0.02
[...]
<PointData  Scalars="ControlVisualisation"> 
<DataArray  type="Float64"  Name="ControlVisualisation"  format="ascii">3.7817649156391643e-08  2.1879018030225427e-08  2.1880115564284011e-08  2.1881950877357906e-08  2.1884468331227314e-08  2.1887601572172518e-08  2.1891266340580463e-08  2.1895365313063012e-08  2.1899790128455432e-08  2.1904423927479499e-08  2.1909148695165742e-08  2.1913841728595440e-08  2.1918385085180242e-08  2.1922666159398577e-08  2.1926576167104929e-08  2.1930022301972800e-08  2.1932919322034547e-08  2.1935200011498137e-08  2.1936806634389628e-08  2.1937705289498649e-08  2.1937871810060200e-08  2.1937305529306956e-08  2.1936015906695576e-08  2.1934036288187771e-08  2.1931413202550081e-08  2.1928209978438026e-08  2.1924504435859865e-08  2.1920385849784306e-08  2.1915954807770030e-08  2.1911323001536029e-08  2.1906606019249256e-08  2.1901923436248582e-08  2.1897395339159249e-08  2.1893138547494754e-08  2.1889265654582959e-08  2.1885878097627564e-08  2.1883065749149878e-08  2.1880903004762305e-08  2.1879453437262034e-08  2.1878731754194719e-08  8.5632468886929588e-08  2.1879020559222640e-08  5.9399361460316946e-09  5.9410118985801665e-09  5.9429049210515275e-09  5.9455850241384339e-09  5.9489804316744161e-09  5.9530003941793382e-09  5.9575373999143935e-09  5.9624730888897188e-09  5.9676768526611323e-09  5.9730141904553279e-09  5.9783495201433596e-09  5.9835456177523050e-09  5.9884741068722771e-09  5.9930108094549337e-09  5.9970442529167058e-09  6.0004768137446189e-09  6.0032267832275139e-09  6.0052262078862283e-09  6.0064299225360700e-09  6.0068076163096644e-09  6.0063514894306663e-09  6.0050722598094742e-09  6.0030000702227951e-09  6.0001845189533110e-09  5.9966940650855078e-09  5.9926130704319304e-09  5.9880412635069548e-09  5.9830902622449766e-09  5.9778831602720651e-09  5.9725513933554559e-09  5.9672288315237364e-09  5.9620520015564461e-09  5.9571541608326038e-09  5.9526632794226653e-09  5.9486971646351224e-09  5.9453600995185654e-09  5.9427407744611145e-09  5.9409070698684277e-09  5.9398514256136604e-09  2.1878732142495688e-08  2.1880145441987706e-08  5.9410337699295264e-09  5.9423799457460184e-09  5.9445373243699479e-09  5.9475971998260186e-09  5.9514821318031693e-09  5.9560887412124326e-09  5.9612934135014393e-09  5.9669595593140521e-09  5.9729402800659514e-09  5.9790773814045952e-09  5.9852160455176635e-09  5.9911995944897500e-09  5.9968773710395362e-09  6.0021091352400760e-09  6.0067661087833656e-09  6.0107347077242844e-09  6.0139200077773178e-09  6.0162446001616072e-09  6.0176542553153612e-09  6.0181174791749620e-09  6.0176193540821371e-09  6.0161752632553232e-09  6.0138182260886074e-09  6.0106041563172201e-09  6.0066114370809177e-09  6.0019364030912411e-09  5.9966925930871138e-09  5.9910098933187327e-09  5.9850270823296584e-09  5.9788959425046750e-09  5.9727705565457974e-09  5.9668079291888610e-09  5.9611617393022814e-09  5.9559792263035482e-09  5.9513962567927762e-09  5.9475336972499876e-09  5.9444930352377329e-09  5.9423435045067147e-09  5.9409257240560198e-09  2.1879463113466250e-08  2.1882094319202666e-08  5.9430280051829008e-09  5.9446493800704599e-09  5.9468328966918069e-09  5.9499133829336551e-09  5.9538235850410159e-09  5.9584605788688274e-09  5.9636997628178923e-09  5.9694017427862905e-09  5.9754192022044589e-09  5.9815949985664614e-09  5.9877697250834677e-09  5.9937885644343813e-09  5.9994975238687278e-09  6.0047569050717885e-09  6.0094390024725119e-09  6.0134290566734393e-09  6.0166302375457476e-09  6.0189675634147863e-09  6.0203858061922361e-09  6.0208534151593646e-09  6.0203554588065911e-09  6.0189065136832341e-09  6.0165405966448919e-09  6.0133143134782496e-09  6.0093043640483529e-09  6.0046073972607405e-09  5.9993368922679643e-09  5.9936244862379828e-09  5.9876078364416093e-09  5.9814393776874451e-09  5.9752753964298064e-09  5.9692728469056072e-09  5.9635878910052395e-09  5.9583677878453503e-09  5.9537503400637102e-09  5.9498576270367669e-09  5.9467908672341432e-09  5.9446029686035034e-09  5.9428512978401392e-09  2.1880970354540612e-08  2.1884914677083161e-08  5.9459950227897250e-09  5.9480309645052197e-09  5.9502363358468384e-09  5.9533188420270628e-09  5.9572290891048694e-09  5.9618643631604349e-09  5.9671014469975311e-09  5.9727992607860328e-09  5.9788096381616333e-09  5.9849758559648830e-09  5.9911385184015740e-09  5.9971424543993524e-09  6.0028380152819373e-09  6.0080816421855978e-09  6.0127472945922450e-09  6.0167219125732877e-09  6.0199104643498969e-09  6.0222375725210176e-09  6.0236491665001444e-09  6.0241143996240993e-09  6.0236185554328005e-09  6.0221749504763746e-09  6.0198183615016357e-09  6.0166037202094158e-09  6.0126077663206537e-09  6.0079256927581622e-09  6.0026706541081157e-09  5.9969715106538132e-09  5.9909675077593058e-09  5.9848085151342608e-09  5.9786530935548647e-09  5.9726563540065217e-09  5.9669748303797763e-09  5.9617560445660916e-09  5.9571386852899340e-09  5.9532453080812337e-09  5.9501758014412656e-09  5.9479590756930553e-09  5.9457373640997755e-09  2.1883319535330392e-08  2.1888687326074589e-08  5.9500185848852137e-09  5.9526246463783170e-09  5.9548590263046453e-09  5.9579411365538422e-09  5.9618496248063698e-09  5.9664805018664152e-09  5.9717099031244529e-09  5.9773977327129804e-09  5.9833943700591635e-09  5.9895436313945014e-09  5.9956858654949726e-09  6.0016646870563063e-09  6.0073345202967974e-09  6.0125527067960244e-09  6.0171920583133110e-09  6.0211432483738464e-09  6.0243114744358772e-09  6.0266240263300573e-09  6.0280250238501259e-09  6.0284849174788294e-09  6.0279917946823488e-09  6.0265575509787560e-09  6.0242145665914502e-09  6.0210188323216151e-09  6.0170444498419005e-09  6.0123853873414499e-09  6.0071553501957816e-09  6.0014794516696699e-09  5.9954964083153137e-09  5.9893566185574259e-09  5.9832163948382301e-09  5.9772318179733598e-09  5.9715589066140250e-09  5.9663463095547689e-09  5.9617326259179648e-09  5.9578411103329981e-09  5.9547701960890071e-09  5.9525171153615996e-09  5.9496661923604624e-09  2.1886570433552978e-08  2.1893518074071770e-08  5.9552125554987238e-09  5.9585605439839513e-09  5.9608322591490956e-09  5.9639132059728199e-09  5.9678163850834663e-09  5.9724398478255300e-09  5.9776569143994241e-09  5.9833289488779464e-09  5.9893044799141201e-09  5.9954276593623560e-09  6.0015405190414087e-09  6.0074855154329011e-09  6.0131176385445578e-09  6.0182996890238213e-09  6.0229025622175693e-09  6.0268202712809233e-09  6.0299613319550096e-09  6.0322528820864164e-09  6.0336411353891393e-09  6.0340943062604361e-09  6.0336036027991426e-09  6.0321812874929139e-09  6.0298582723854384e-09  6.0266875486077794e-09  6.0227445942847495e-09  6.0181193193783582e-09  6.0129221143641152e-09  6.0072794276082185e-09  6.0013276587507682e-09  5.9952155491933245e-09  5.9890979010398947e-09  5.9831317864677788e-09  5.9774727760608998e-09  5.9722706871018123e-09  5.9676639253658008e-09  5.9637761533679340e-09  5.9607047936771230e-09  5.9584062137615349e-09  5.9547476896813661e-09  2.1890812968076990e-08  2.1899544356061011e-08  5.9617253943756310e-09  5.9660081590167058e-09  5.9683258268914255e-09  5.9714035511445481e-09  5.9752978114498278e-09  5.9799082300015763e-09  5.9851068787962214e-09  5.9907543422351555e-09  5.9966999613125421e-09  6.0027841546007280e-09  6.0088538837208051e-09  6.0147527053610677e-09  6.0203331432616227e-09  6.0254629998273522e-09  6.0300184803966857e-09  6.0338912026131013e-09  6.0369935855549766e-09  6.0392559187318350e-09  6.0406251482477922e-09  6.0410721812832718e-09  6.0405865266350650e-09  6.0391791930830929e-09  6.0368833247700258e-09  6.0337478621044552e-09  6.0298459524435906e-09  6.0252667512932580e-09  6.0201168122008631e-09  6.0145198729409241e-09  6.0086122228949034e-09  6.0025397904393710e-09  5.9964553273162186e-09  5.9905169121320897e-09  5.9848794048660338e-09  5.9796933016540927e-09  5.9750976298412382e-09  5.9712166749261544e-09  5.9681466893345231e-09  5.9657928359637662e-09  5.9611259555497657e-09  2.1896166526321044e-08  2.1906937563833254e-08  5.9697448241696662e-09  5.9751835058577518e-09  5.9775564590950087e-09  5.9806273167729814e-09  5.9845065666985690e-09  5.9890955215267771e-09  5.9942673168851400e-09  5.9998775104853123e-09  6.0057786814720889e-09  6.0118107543680442e-09  6.0178182480271880e-09  6.0236506458849834e-09  6.0291618320397988e-09  6.0342199637531303e-09  6.0387088545421995e-09  6.0425213430609634e-09  6.0455720496755567e-09  6.0477952792244737e-09  6.0491392392304267e-09  6.0495772377339038e-09  6.0490986899787244e-09  6.0477132096206864e-09  6.0454527559257615e-09  6.0423654385114393e-09  6.0385190604795446e-09  6.0340027602642341e-09  6.0289188002973850e-09  6.0233871026527737e-09  6.0175407027208904e-09  6.0115235441529488e-09  6.0054873691760390e-09  5.9995892004395602e-09  5.9939838531749173e-09  5.9888215629648973e-09  5.9842431944938390e-09  5.9803737722711858e-09  5.9773082070119589e-09  5.9748885022224959e-09  5.9689828402642652e-09  2.1902781856380840e-08  2.1915913981297660e-08  5.9795060554815772e-09  5.9863547826777829e-09  5.9887930237307291e-09  5.9918526376388356e-09  5.9957095979306435e-09  6.0002660141068941e-09  6.0053953112047331e-09  6.0109534148554533e-09  6.0167874134980477e-09  6.0227441557103718e-09  6.0286662150001578e-09  6.0344047381143555e-09  6.0398214353189520e-09  6.0447835725474018e-09  6.0491804760058642e-09  6.0529111530162110e-09  6.0558924151713066e-09  6.0580636694127974e-09  6.0593749844418596e-09  6.0598008744335078e-09  6.0593316585919909e-09  6.0579749483771939e-09  6.0557637470088906e-09  6.0527407609925013e-09  6.0489710596375301e-09  6.0445408270940749e-09  6.0395471669199457e-09  6.0341049064526771e-09  6.0283446490474388e-09  6.0224061637073949e-09  6.0164391837231726e-09  6.0105990037534482e-09  6.0050409953414202e-09  5.9999151022706598e-09  5.9953633193702614e-09  5.9915125923980440e-09  5.9884546473447318e-09  5.9859559996553335e-09  5.9785448715615634e-09  2.1910846845876010e-08  2.1926737479683765e-08  5.9913007514259465e-09  5.9998569275090202e-09  6.0023708467499260e-09  6.0054112418997605e-09  6.0092348453938115e-09  6.0137448481846105e-09  6.0188113857298997e-09  6.0242911322485097e-09  6.0300321132630325e-09  6.0358795310154926e-09  6.0416813192037909e-09  6.0472893062075115e-09  6.0525721775546681e-09  6.0574059255830689e-09  6.0616773218791932e-09  6.0652979608077499e-09  6.0681882633242879e-09  6.0702897794384064e-09  6.0715570919116046e-09  6.0719657261260235e-09  6.0715100082776004e-09  6.0701934607331461e-09  6.0680482107983778e-09  6.0651120881020750e-09  6.0614470222267102e-09  6.0571339570275666e-09  6.0522636918320893e-09  6.0469460125341434e-09  6.0413061836096884e-09  6.0354792695303353e-09  6.0296108997021415e-09  6.0238547408569435e-09  6.0183652184105418e-09  6.0132928151823042e-09  6.0087808425641416e-09  6.0049578162036084e-09  6.0019124269755310e-09  5.9993202798229762e-09  5.9900914146882316e-09  2.1920592975898721e-08  2.1939727438536488e-08  6.0054831329523436e-09  6.0160978817622984e-09  6.0187018843879471e-09  6.0217143977927339e-09  6.0254900997123836e-09  6.0299314520171756e-09  6.0349098947541167e-09  6.0402762230055457e-09  6.0458805721508818e-09  6.0515732665817385e-09  6.0572044712850809e-09  6.0626338356318465e-09  6.0677299806652803e-09  6.0723834075135623e-09  6.0764892187619524e-09  6.0799595251686717e-09  6.0827261161405529e-09  6.0847361628063257e-09  6.0859463684714486e-09  6.0863336979988288e-09  6.0858942611395909e-09  6.0846335696100454e-09  6.0825761418303039e-09  6.0797578945932045e-09  6.0762348692241321e-09  6.0720826843270313e-09  6.0673819689728953e-09  6.0622383292598423e-09  6.0567681386088840e-09  6.0510981987954527e-09  6.0453713365355566e-09  6.0397366669328183e-09  6.0343457152890032e-09  6.0293497620393586e-09  6.0248937108724804e-09  6.0211090867134096e-09  6.0180819365058753e-09  6.0153792804923396e-09  6.0039649820078042e-09  2.1932304001405229e-08  2.1955278812213398e-08  6.0224893579546814e-09  6.0355804561672275e-09  6.0382907769236421e-09  6.0412666618451916e-09  6.0449752144610900e-09  6.0493216287011523e-09  6.0541698450914113e-09  6.0593771692432421e-09  6.0647868753907414e-09  6.0702575818296884e-09  6.0756456567600505e-09  6.0808233071742772e-09  6.0856657760518797e-09  6.0900691415056442e-09  6.0939466828691824e-09  6.0972190830051188e-09  6.0998184275868722e-09  6.1017047829974886e-09  6.1028397891343949e-09  6.1032007525990300e-09  6.1027842279595683e-09  6.1015970754385472e-09  6.0996585408623413e-09  6.0970001734105480e-09  6.0936707334615228e-09  6.0897376421739418e-09  6.0852734972892943e-09  6.0803722999668492e-09  6.0751401599629444e-09  6.0696942721718725e-09  6.0641704072634914e-09  6.0587093475748932e-09  6.0534590939673598e-09  6.0485717121875791e-09  6.0441937857548356e-09  6.0404602199287613e-09  6.0374567887882771e-09  6.0346218791769120e-09  6.0205838983815263e-09  2.1946324290465039e-08  2.1973864881165895e-08  6.0428525218663185e-09  6.0589216385872316e-09  6.0617619846111577e-09  6.0646915337386186e-09  6.0683105105463144e-09  6.0725254355387663e-09  6.0771919597477680e-09  6.0821666942208998e-09  6.0872989023032699e-09  6.0924538232089277e-09  6.0974978447780252e-09  6.1023171960961145e-09  6.1068068816202744e-09  6.1108714692043409e-09  6.1144354807560261e-09  6.1174364962660178e-09  6.1198168752182379e-09  6.1215372085146844e-09  6.1225717125112519e-09  6.1228985930507312e-09  6.1225163090375298e-09  6.1214275452661037e-09  6.1196470954148299e-09  6.1172048769812322e-09  6.1141410587849481e-09  6.1105083476453110e-09  6.1063719921394396e-09  6.1018106894075997e-09  6.0969142492364725e-09  6.0917892057000394e-09  6.0865558838367304e-09  6.0813442896728756e-09  6.0762961609057901e-09  6.0715609559366583e-09  6.0672872500347064e-09  6.0636177331255994e-09  6.0606396876605181e-09  6.0576402449333441e-09  6.0404522925919500e-09  2.1963069327959340e-08  2.1996050167828901e-08  6.0672121192081773e-09  6.0868696500647285e-09  6.0898819022196183e-09  6.0927660528405591e-09  6.0962765607913876e-09  6.1003105224216310e-09  6.1047183864868924e-09  6.1093603956006898e-09  6.1140926524702433e-09  6.1187898977244726e-09  6.1233476426281346e-09  6.1276617300350977e-09  6.1316547978895809e-09  6.1352519282094902e-09  6.1383937951820517e-09  6.1410262498232210e-09  6.1431099405979139e-09  6.1446125932638600e-09  6.1455142585624765e-09  6.1457972031128766e-09  6.1454602228009698e-09  6.1445036090255607e-09  6.1429372524024045e-09  6.1407872804177921e-09  6.1380841484277898e-09  6.1348661973451915e-09  6.1311840767407627e-09  6.1271012810775446e-09  6.1226829501932876e-09  6.1180177147566222e-09  6.1132036219261289e-09  6.1083525149404071e-09  6.1035943569345787e-09  6.0990708396506346e-09  6.0949324915993408e-09  6.0913328004406316e-09  6.0883673178526033e-09  6.0851519675770413e-09  6.0641775357748651e-09  2.1983033828519162e-08  2.2022505651575468e-08  6.0963399587239832e-09  6.1203383750679333e-09  6.1235976496626161e-09  6.1264606585830818e-09  6.1298509940721679e-09  6.1336515829922794e-09  6.1376984521381907e-09  6.1418520364293854e-09  6.1459967915692121e-09  6.1500342828796963e-09  6.1538872904281303e-09  6.1574910872995577e-09  6.1607907650641592e-09  6.1637424602268173e-09  6.1663027359941615e-09  6.1684436069396270e-09  6.1701312489515631e-09  6.1713446209893235e-09  6.1720717925756250e-09  6.1722980246025729e-09  6.1720213351201639e-09  6.1712414665655114e-09  6.1699637897328068e-09  6.1682059939484820e-09  6.1659919841746679e-09  6.1633459204942324e-09  6.1602965769029547e-09  6.1568838298001497e-09  6.1531490572711228e-09  6.1491482003144282e-09  6.1449474968972906e-09  6.1406253319992362e-09  6.1362863189804481e-09  6.1320549215477307e-09  6.1280828075788623e-09  6.1245411647143317e-09  6.1215453475111442e-09  6.1180219334500517e-09  6.0924818592650232e-09  2.2006806474889622e-08  2.2053995800473408e-08  6.1311421828460900e-09  6.1604312406340568e-09  6.1640871828481390e-09  6.1670150736622382e-09  6.1703061541782638e-09  6.1738018886346642e-09  6.1773316401229295e-09  6.1807749677090852e-09  6.1840499612276818e-09  6.1871148816982754e-09  6.1899487104260447e-09  6.1925383554054207e-09  6.1948692607850256e-09  6.1969304118230912e-09  6.1987053574152972e-09  6.2001808003769543e-09  6.2013441908574077e-09  6.2021768442413870e-09  6.2026750368486770e-09  6.2028294751593861e-09  6.2026322574873432e-09  6.2020868877977322e-09  6.2011935547620573e-09  6.1999630780727058e-09  6.1984114496414626e-09  6.1965479861206669e-09  6.1943770551501168e-09  6.1919091409908411e-09  6.1891558426310848e-09  6.1861249887285599e-09  6.1828310899038352e-09  6.1792971345836950e-09  6.1755751831280057e-09  6.1717522599490920e-09  6.1679699094041400e-09  6.1644246794576854e-09  6.1612829798470883e-09  6.1572821549629744e-09  6.1262047277389266e-09  2.2035061620241353e-08  2.2091338170012421e-08  6.1726429889393714e-09  6.2084613599580799e-09  6.2128295667247576e-09  6.2160382848266892e-09  6.2193210954356860e-09  6.2224402131721299e-09  6.2252127266614749e-09  6.2275720294640391e-09  6.2295388393718355e-09  6.2311597555607549e-09  6.2325122400929466e-09  6.2336479787806228e-09  6.2346244846308704e-09  6.2354592854663350e-09  6.2361722771326787e-09  6.2367636223086109e-09  6.2372328140540605e-09  6.2375696889944830e-09  6.2377716451020355e-09  6.2378323042477665e-09  6.2377417238382084e-09  6.2375018299867516e-09  6.2371185991223966e-09  6.2365933277643736e-09  6.2359305729089455e-09  6.2351299615390125e-09  6.2341745232604189e-09  6.2330452102420079e-09  6.2317067787062154e-09  6.2301045614852386e-09  6.2281716883990472e-09  6.2258360685354661e-09  6.2230480516101370e-09  6.2198102181675865e-09  6.2162235660719300e-09  6.2125168987226104e-09  6.2089555083191451e-09  6.2041286682167862e-09  6.1662720833824877e-09  2.2068538836928240e-08  2.2135262070556991e-08  6.2218897110843855e-09  6.2659393993044389e-09  6.2717073057878762e-09  6.2757162337776539e-09  6.2792220560080369e-09  6.2818593893382022e-09  6.2834759009234672e-09  6.2841492704818876e-09  6.2840902796652528e-09  6.2835366143302893e-09  6.2827094961373841e-09  6.2817761912258606e-09  6.2808564291196939e-09  6.2800197345992746e-09  6.2793052187592933e-09  6.2787274385540780e-09  6.2782896049120042e-09  6.2779848052880062e-09  6.2778078155327231e-09  6.2777465331841389e-09  6.2777953995972898e-09  6.2779557561707111e-09  6.2782384026174550e-09  6.2786399475345937e-09  6.2791587183444337e-09  6.2797943316312241e-09  6.2805169590914652e-09  6.2812738405038960e-09  6.2819787137618976e-09  6.2824962510804995e-09  6.2826393294465320e-09  6.2821743326645573e-09  6.2808607550958466e-09  6.2785134367097163e-09  6.2751047269071193e-09  6.2708714955993867e-09  6.2662711618250689e-09  6.2598886087733542e-09  6.2135984894223540e-09  2.2107951035807520e-08  2.2186027872745850e-08  6.2797021130391375e-09  6.3345249594768272e-09  6.3432210692657125e-09  6.3491942819122229e-09  6.3534281881174966e-09  6.3553765781614249e-09  6.3550826171930809e-09  6.3530044509125519e-09  6.3497452189314871e-09  6.3458763945589686e-09  6.3418392814243324e-09  6.3379509904512184e-09  6.3344037486440147e-09  6.3313038999978244e-09  6.3286974223966350e-09  6.3265944046558456e-09  6.3249917290473863e-09  6.3238695384289954e-09  6.3232079076543115e-09  6.3229960330188425e-09  6.3232241193451721e-09  6.3238986753929187e-09  6.3250338853175322e-09  6.3266348570889474e-09  6.3287096827452722e-09  6.3312661309207469e-09  6.3342795142591243e-09  6.3376754886409914e-09  6.3413262006548409e-09  6.3450053735581617e-09  6.3483595677247836e-09  6.3509033148668872e-09  6.3520450575828928e-09  6.3511848064617028e-09  6.3479354692490563e-09  6.3424319523987578e-09  6.3354390421777776e-09  6.3258889486389554e-09  6.2687963410061564e-09  2.2153756995216206e-08  2.2242555908297689e-08  6.3459782270495901e-09  6.4158649167001902e-09  6.4310215924465631e-09  6.4414676807317878e-09  6.4473345071631621e-09  6.4480150984695470e-09  6.4442677306972902e-09  6.437476537