<?xml version="1.0"?>
<VTKFile type="UnstructuredGrid"  version="0.1"  >
<UnstructuredGrid>
<Piece  NumberOfPoints="1681" NumberOfCells="3200">
<Points>
<DataArray  type="Float64"  NumberOfComponents="3"  format="ascii">0 0 0  0.025 0 0  0.05 0 0  0.075 0 0  0.1 0 0  0.125 0 0  0.15 0 0  0.175 0 0  0.2 0 0  0.225 0 0  0.25 0 0  0.275 0 0  0.3 0 0  0.325 0 0  0.35 0 0  0.375 0 0  0.4 0 0  0.425 0 0  0.45 0 0  0.475 0 0  0.5 0 0  0.525 0 0  0.55 0 0  0.575 0 0  0.6 0 0  0.625 0 0  0.65 0 0  0.675 0 0  0.7 0 0  0.725 0 0  0.75 0 0  0.775 0 0  0.8 0 0  0.825 0 0  0.85 0 0  0.875 0 0  0.9 0 0  0.925 0 0  0.95 0 0  0.975 0 0  1 0 0  0 0.025 0  0.025 0.025 0  0.05 0.025 0  0.075 0.025 0  0.1 0.025 0  0.125 0.025 0  0.15 0.025 0  0.175 0.025 0  0.2 0.025 0  0.225 0.025 0  0.25 0.025 0  0.275 0.025 0  0.3 0.025 0  0.325 0.025 0  0.35 0.025 0  0.375 0.025 0  0.4 0.025 0  0.425 0.025 0  0.45 0.025 0  0.475 0.025 0  0.5 0.025 0  0.525 0.025 0  0.55 0.025 0  0.575 0.025 0  0.6 0.025 0  0.625 0.025 0  0.65 0.025 0  0.675 0.025 0  0.7 0.025 0  0.725 0.025 0  0.75 0.025 0  0.775 0.025 0  0.8 0.025 0  0.825 0.025 0  0.85 0.025 0  0.875 0.025 0  0.9 0.025 0  0.925 0.025 0  0.95 0.025 0  0.975 0.025 0  1 0.025 0  0 0.05 0  0.025 0.05 0  0.05 0.05 0  0.075 0.05 0  0.1 0.05 0  0.125 0.05 0  0.15 0.05 0  0.175 0.05 0  0.2 0.05 0  0.225 0.05 0  0.25 0.05 0  0.275 0.05 0  0.3 0.05 0  0.325 0.05 0  0.35 0.05 0  0.375 0.05 0  0.4 0.05 0  0.425 0.05 0  0.45 0.05 0  0.475 0.05 0  0.5 0.05 0  0.525 0.05 0  0.55 0.05 0  0.575 0.05 0  0.6 0.05 0  0.625 0.05 0  0.65 0.05 0  0.675 0.05 0  0.7 0.05 0  0.725 0.05 0  0.75 0.05 0  0.775 0.05 0  0.8 0.05 0  0.825 0.05 0  0.85 0.05 0  0.875 0.05 0  0.9 0.05 0  0.925 0.05 0  0.95 0.05 0  0.975 0.05 0  1 0.05 0  0 0.075 0  0.025 0.075 0  0.05 0.075 0  0.075 0.075 0  0.1 0.075 0  0.125 0.075 0  0.15 0.075 0  0.175 0.075 0  0.2 0.075 0  0.225 0.075 0  0.25 0.075 0  0.275 0.075 0  0.3 0.075 0  0.325 0.075 0  0.35 0.075 0  0.375 0.075 0  0.4 0.075 0  0.425 0.075 0  0.45 0.075 0  0.475 0.075 0  0.5 0.075 0  0.525 0.075 0  0.55 0.075 0  0.575 0.075 0  0.6 0.075 0  0.625 0.075 0  0.65 0.075 0  0.675 0.075 0  0.7 0.075 0  0.725 0.075 0  0.75 0.075 0  0.775 0.075 0  0.8 0.075 0  0.825 0.075 0  0.85 0.075 0  0.875 0.075 0  0.9 0.075 0  0.925 0.075 0  0.95 0.075 0  0.975 0.075 0  1 0.075 0  0 0.1 0  0.025 0.1 0  0.05 0.1 0  0.075 0.1 0  0.1 0.1 0  0.125 0.1 0  0.15 0.1 0  0.175 0.1 0  0.2 0.1 0  0.225 0.1 0  0.25 0.1 0  0.275 0.1 0  0.3 0.1 0  0.325 0.1 0  0.35 0.1 0  0.375 0.1 0  0.4 0.1 0  0.425 0.1 0  0.45 0.1 0  0.475 0.1 0  0.5 0.1 0  0.525 0.1 0  0.55 0.1 0  0.575 0.1 0  0.6 0.1 0  0.625 0.1 0  0.65 0.1 0  0.675 0.1 0  0.7 0.1 0  0.725 0.1 0  0.75 0.1 0  0.775 0.1 0  0.8 0.1 0  0.825 0.1 0  0.85 0.1 0  0.875 0.1 0  0.9 0.1 0  0.925 0.1 0  0.95 0.1 0  0.975 0.1 0  1 0.1 0  0 0.125 0  0.025 0.125 0  0.05 0.125 0  0.075 0.125 0  0.1 0.125 0  0.125 0.125 0  0.15 0.125 0  0.175 0.125 0  0.2 0.125 0  0.225 0.125 0  0.25 0.125 0  0.275 0.125 0  0.3 0.125 0  0.325 0.125 0  0.35 0.125 0  0.375 0.125 0  0.4 0.125 0  0.425 0.125 0  0.45 0.125 0  0.475 0.125 0  0.5 0.125 0  0.525 0.125 0  0.55 0.125 0  0.575 0.125 0  0.6 0.125 0  0.625 0.125 0  0.65 0.125 0  0.675 0.125 0  0.7 0.125 0  0.725 0.125 0  0.75 0.125 0  0.775 0.125 0  0.8 0.125 0  0.825 0.125 0  0.85 0.125 0  0.875 0.125 0  0.9 0.125 0  0.925 0.125 0  0.95 0.125 0  0.975 0.125 0  1 0.125 0  0 0.15 0  0.025 0.15 0  0.05 0.15 0  0.075 0.15 0  0.1 0.15 0  0.125 0.15 0  0.15 0.15 0  0.175 0.15 0  0.2 0.15 0  0.225 0.15 0  0.25 0.15 0  0.275 0.15 0  0.3 0.15 0  0.325 0.15 0  0.35 0.15 0  0.375 0.15 0  0.4 0.15 0  0.425 0.15 0  0.45 0.15 0  0.475 0.15 0  0.5 0.15 0  0.525 0.15 0  0.55 0.15 0  0.575 0.15 0  0.6 0.15 0  0.625 0.15 0  0.65 0.15 0  0.675 0.15 0  0.7 0.15 0  0.725 0.15 0  0.75 0.15 0  0.775 0.15 0  0.8 0.15 0  0.825 0.15 0  0.85 0.15 0  0.875 0.15 0  0.9 0.15 0  0.925 0.15 0  0.95 0.15 0  0.975 0.15 0  1 0.15 0  0 0.175 0  0.025 0.175 0  0.05 0.175 0  0.075 0.175 0  0.1 0.175 0  0.125 0.175 0  0.15 0.175 0  0.175 0.175 0  0.2 0.175 0  0.225 0.175 0  0.25 0.175 0  0.275 0.175 0  0.3 0.175 0  0.325 0.175 0  0.35 0.175 0  0.375 0.175 0  0.4 0.175 0  0.425 0.175 0  0.45 0.175 0  0.475 0.175 0  0.5 0.175 0  0.525 0.175 0  0.55 0.175 0  0.575 0.175 0  0.6 0.175 0  0.625 0.175 0  0.65 0.175 0  0.675 0.175 0  0.7 0.175 0  0.725 0.175 0  0.75 0.175 0  0.775 0.175 0  0.8 0.175 0  0.825 0.175 0  0.85 0.175 0  0.875 0.175 0  0.9 0.175 0  0.925 0.175 0  0.95 0.175 0  0.975 0.175 0  1 0.175 0  0 0.2 0  0.025 0.2 0  0.05 0.2 0  0.075 0.2 0  0.1 0.2 0  0.125 0.2 0  0.15 0.2 0  0.175 0.2 0  0.2 0.2 0  0.225 0.2 0  0.25 0.2 0  0.275 0.2 0  0.3 0.2 0  0.325 0.2 0  0.35 0.2 0  0.375 0.2 0  0.4 0.2 0  0.425 0.2 0  0.45 0.2 0  0.475 0.2 0  0.5 0.2 0  0.525 0.2 0  0.55 0.2 0  0.575 0.2 0  0.6 0.2 0  0.625 0.2 0  0.65 0.2 0  0.675 0.2 0  0.7 0.2 0  0.725 0.2 0  0.75 0.2 0  0.775 0.2 0  0.8 0.2 0  0.825 0.2 0  0.85 0.2 0  0.875 0.2 0  0.9 0.2 0  0.925 0.2 0  0.95 0.2 0  0.975 0.2 0  1 0.2 0  0 0.225 0  0.025 0.225 0  0.05 0.225 0  0.075 0.225 0  0.1 0.225 0  0.125 0.225 0  0.15 0.225 0  0.175 0.225 0  0.2 0.225 0  0.225 0.225 0  0.25 0.225 0  0.275 0.225 0  0.3 0.225 0  0.325 0.225 0  0.35 0.225 0  0.375 0.225 0  0.4 0.225 0  0.425 0.225 0  0.45 0.225 0  0.475 0.225 0  0.5 0.225 0  0.525 0.225 0  0.55 0.225 0  0.575 0.225 0  0.6 0.225 0  0.625 0.225 0  0.65 0.225 0  0.675 0.225 0  0.7 0.225 0  0.725 0.225 0  0.75 0.225 0  0.775 0.225 0  0.8 0.225 0  0.825 0.225 0  0.85 0.225 0  0.875 0.225 0  0.9 0.225 0  0.925 0.225 0  0.95 0.225 0  0.975 0.225 0  1 0.225 0  0 0.25 0  0.025 0.25 0  0.05 0.25 0  0.075 0.25 0  0.1 0.25 0  0.125 0.25 0  0.15 0.25 0  0.175 0.25 0  0.2 0.25 0  0.225 0.25 0  0.25 0.25 0  0.275 0.25 0  0.3 0.25 0  0.325 0.25 0  0.35 0.25 0  0.375 0.25 0  0.4 0.25 0  0.425 0.25 0  0.45 0.25 0  0.475 0.25 0  0.5 0.25 0  0.525 0.25 0  0.55 0.25 0  0.575 0.25 0  0.6 0.25 0  0.625 0.25 0  0.65 0.25 0  0.675 0.25 0  0.7 0.25 0  0.725 0.25 0  0.75 0.25 0  0.775 0.25 0  0.8 0.25 0  0.825 0.25 0  0.85 0.25 0  0.875 0.25 0  0.9 0.25 0  0.925 0.25 0  0.95 0.25 0  0.975 0.25 0  1 0.25 0  0 0.275 0  0.025 0.275 0  0.05 0.275 0  0.075 0.275 0  0.1 0.275 0  0.125 0.275 0  0.15 0.275 0  0.175 0.275 0  0.2 0.275 0  0.225 0.275 0  0.25 0.275 0  0.275 0.275 0  0.3 0.275 0  0.325 0.275 0  0.35 0.275 0  0.375 0.275 0  0.4 0.275 0  0.425 0.275 0  0.45 0.275 0  0.475 0.275 0  0.5 0.275 0  0.525 0.275 0  0.55 0.275 0  0.575 0.275 0  0.6 0.275 0  0.625 0.275 0  0.65 0.275 0  0.675 0.275 0  0.7 0.275 0  0.725 0.275 0  0.75 0.275 0  0.775 0.275 0  0.8 0.275 0  0.825 0.275 0  0.85 0.275 0  0.875 0.275 0  0.9 0.275 0  0.925 0.275 0  0.95 0.275 0  0.975 0.275 0  1 0.275 0  0 0.3 0  0.025 0.3 0  0.05 0.3 0  0.075 0.3 0  0.1 0.3 0  0.125 0.3 0  0.15 0.3 0  0.175 0.3 0  0.2 0.3 0  0.225 0.3 0  0.25 0.3 0  0.275 0.3 0  0.3 0.3 0  0.325 0.3 0  0.35 0.3 0  0.375 0.3 0  0.4 0.3 0  0.425 0.3 0  0.45 0.3 0  0.475 0.3 0  0.5 0.3 0  0.525 0.3 0  0.55 0.3 0  0.575 0.3 0  0.6 0.3 0  0.625 0.3 0  0.65 0.3 0  0.675 0.3 0  0.7 0.3 0  0.725 0.3 0  0.75 0.3 0  0.775 0.3 0  0.8 0.3 0  0.825 0.3 0  0.85 0.3 0  0.875 0.3 0  0.9 0.3 0  0.925 0.3 0  0.95 0.3 0  0.975 0.3 0  1 0.3 0  0 0.325 0  0.025 0.325 0  0.05 0.325 0  0.075 0.325 0  0.1 0.325 0  0.125 0.325 0  0.15 0.325 0  0.175 0.325 0  0.2 0.325 0  0.225 0.325 0  0.25 0.325 0  0.275 0.325 0  0.3 0.325 0  0.325 0.325 0  0.35 0.325 0  0.375 0.325 0  0.4 0.325 0  0.425 0.325 0  0.45 0.325 0  0.475 0.325 0  0.5 0.325 0  0.525 0.325 0  0.55 0.325 0  0.575 0.325 0  0.6 0.325 0  0.625 0.325 0  0.65 0.325 0  0.675 0.325 0  0.7 0.325 0  0.725 0.325 0  0.75 0.325 0  0.775 0.325 0  0.8 0.325 0  0.825 0.325 0  0.85 0.325 0  0.875 0.325 0  0.9 0.325 0  0.925 0.325 0  0.95 0.325 0  0.975 0.325 0  1 0.325 0  0 0.35 0  0.025 0.35 0  0.05 0.35 0  0.075 0.35 0  0.1 0.35 0  0.125 0.35 0  0.15 0.35 0  0.175 0.35 0  0.2 0.35 0  0.225 0.35 0  0.25 0.35 0  0.275 0.35 0  0.3 0.35 0  0.325 0.35 0  0.35 0.35 0  0.375 0.35 0  0.4 0.35 0  0.425 0.35 0  0.45 0.35 0  0.475 0.35 0  0.5 0.35 0  0.525 0.35 0  0.55 0.35 0  0.575 0.35 0  0.6 0.35 0  0.625 0.35 0  0.65 0.35 0  0.675 0.35 0  0.7 0.35 0  0.725 0.35 0  0.75 0.35 0  0.775 0.35 0  0.8 0.35 0  0.825 0.35 0  0.85 0.35 0  0.875 0.35 0  0.9 0.35 0  0.925 0.35 0  0.95 0.35 0  0.975 0.35 0  1 0.35 0  0 0.375 0  0.025 0.375 0  0.05 0.375 0  0.075 0.375 0  0.1 0.375 0  0.125 0.375 0  0.15 0.375 0  0.175 0.375 0  0.2 0.375 0  0.225 0.375 0  0.25 0.375 0  0.275 0.375 0  0.3 0.375 0  0.325 0.375 0  0.35 0.375 0  0.375 0.375 0  0.4 0.375 0  0.425 0.375 0  0.45 0.375 0  0.475 0.375 0  0.5 0.375 0  0.525 0.375 0  0.55 0.375 0  0.575 0.375 0  0.6 0.375 0  0.625 0.375 0  0.65 0.375 0  0.675 0.375 0  0.7 0.375 0  0.725 0.375 0  0.75 0.375 0  0.775 0.375 0  0.8 0.375 0  0.825 0.375 0  0.85 0.375 0  0.875 0.375 0  0.9 0.375 0  0.925 0.375 0  0.95 0.375 0  0.975 0.375 0  1 0.375 0  0 0.4 0  0.025 0.4 0  0.05 0.4 0  0.075 0.4 0  0.1 0.4 0  0.125 0.4 0  0.15 0.4 0  0.175 0.4 0  0.2 0.4 0  0.225 0.4 0  0.25 0.4 0  0.275 0.4 0  0.3 0.4 0  0.325 0.4 0  0.35 0.4 0  0.375 0.4 0  0.4 0.4 0  0.425 0.4 0  0.45 0.4 0  0.475 0.4 0  0.5 0.4 0  0.525 0.4 0  0.55 0.4 0  0.575 0.4 0  0.6 0.4 0  0.625 0.4 0  0.65 0.4 0  0.675 0.4 0  0.7 0.4 0  0.725 0.4 0  0.75 0.4 0  0.775 0.4 0  0.8 0.4 0  0.825 0.4 0  0.85 0.4 0  0.875 0.4 0  0.9 0.4 0  0.925 0.4 0  0.95 0.4 0  0.975 0.4 0  1 0.4 0  0 0.425 0  0.025 0.425 0  0.05 0.425 0  0.075 0.425 0  0.1 0.425 0  0.125 0.425 0  0.15 0.425 0  0.175 0.425 0  0.2 0.425 0  0.225 0.425 0  0.25 0.425 0  0.275 0.425 0  0.3 0.425 0  0.325 0.425 0  0.35 0.425 0  0.375 0.425 0  0.4 0.425 0  0.425 0.425 0  0.45 0.425 0  0.475 0.425 0  0.5 0.425 0  0.525 0.425 0  0.55 0.425 0  0.575 0.425 0  0.6 0.425 0  0.625 0.425 0  0.65 0.425 0  0.675 0.425 0  0.7 0.425 0  0.725 0.425 0  0.75 0.425 0  0.775 0.425 0  0.8 0.425 0  0.825 0.425 0  0.85 0.425 0  0.875 0.425 0  0.9 0.425 0  0.925 0.425 0  0.95 0.425 0  0.975 0.425 0  1 0.425 0  0 0.45 0  0.02
[...]
<PointData  Scalars="ControlVisualisation"> 
<DataArray  type="Float64"  Name="ControlVisualisation"  format="ascii">3.7819853446300039e-08  2.1880274186988035e-08  2.1881371909236739e-08  2.1883207604140345e-08  2.1885725478172366e-08  2.1888859104735018e-08  2.1892524386314032e-08  2.1896623696988895e-08  2.1901048791463931e-08  2.1905683906636207e-08  2.1910408971005444e-08  2.1915103011581479e-08  2.1919647200374488e-08  2.1923927808690302e-08  2.1927839028072331e-08  2.1931285220041251e-08  2.1934183025384080e-08  2.1936462978971829e-08  2.1938070939739757e-08  2.1938968932338067e-08  2.1939135929313697e-08  2.1938568163714852e-08  2.1937279258154334e-08  2.1935299845767063e-08  2.1932677066411630e-08  2.1929473764738693e-08  2.1925767254147884e-08  2.1921647766180287e-08  2.1917216585787277e-08  2.1912583786524095e-08  2.1907865740807885e-08  2.1903182223237501e-08  2.1898653410793402e-08  2.1894396631811283e-08  2.1890523183562612e-08  2.1887135134977214e-08  2.1884322370704915e-08  2.1882159415082714e-08  2.1880709699670197e-08  2.1879987925142117e-08  8.5639545493515364e-08  2.1880276738329460e-08  5.9405271879245650e-09  5.9416030590698067e-09  5.9434964815110725e-09  5.9461769730798711e-09  5.9495729504405430e-09  5.9535932195363957e-09  5.9581310697197632e-09  5.9630668366465264e-09  5.9682714601945219e-09  5.9736100719237389e-09  5.9789457168782384e-09  5.9841430081862154e-09  5.9890714230755874e-09  5.9936085461097736e-09  5.9976429050725053e-09  6.0010763231312362e-09  6.0038260015178056e-09  6.0058261619720292e-09  6.0070293006139829e-09  6.0074070078072138e-09  6.0069505260661514e-09  6.0056708891593393e-09  6.0035986999998377e-09  6.0007835401271262e-09  5.9972930605086901e-09  5.9932117072388469e-09  5.9886389584754851e-09  5.9836872758495716e-09  5.9784796092344273e-09  5.9731465438114726e-09  5.9678231471510228e-09  5.9626455419536863e-09  5.9577473411146964e-09  5.9532560045538296e-09  5.9492892681191576e-09  5.9459518255626581e-09  5.9433322267621216e-09  5.9414983068176500e-09  5.9404424967667514e-09  2.1879988310453504e-08  2.1881401854413527e-08  5.9416250034943715e-09  5.9429713026630987e-09  5.9451291026938926e-09  5.9481894774902638e-09  5.9520750329188933e-09  5.9566818650981401e-09  5.9618875824916987e-09  5.9675547963151044e-09  5.9735352226512659e-09  5.9796738665473435e-09  5.9858131866025632e-09  5.9917973508734960e-09  5.9974761154052358e-09  6.0027084570429910e-09  6.0073658357689966e-09  6.0113350027584514e-09  6.0145203289437913e-09  6.0168456612549766e-09  6.0182558146759031e-09  6.0187175392349087e-09  6.0182201273678814e-09  6.0167755777213641e-09  6.0144183707980316e-09  6.0112048321731179e-09  6.0072120966438431e-09  6.0025366170705681e-09  5.9972922357081442e-09  5.9916078104295745e-09  5.9856243954486050e-09  5.9794919245891570e-09  5.9733656562470639e-09  5.9674022157422212e-09  5.9617554616703683e-09  5.9565723438159491e-09  5.9519887546448092e-09  5.9481257995860723e-09  5.9450848121121950e-09  5.9429349607316003e-09  5.9415169187468047e-09  2.1880719348347920e-08  2.1883350859866738e-08  5.9436194772068402e-09  5.9452410744586690e-09  5.9474248717064170e-09  5.9505059327825353e-09  5.9544170539591045e-09  5.9590542878920343e-09  5.9642940256662943e-09  5.9699976580266289e-09  5.9760156453976904e-09  5.9821917867352723e-09  5.9883675014490857e-09  5.9943860144868752e-09  6.0000963475853168e-09  6.0053569875369163e-09  6.0100389845931495e-09  6.0140288600258577e-09  6.0172308885824138e-09  6.0195688703684931e-09  6.0209875633264744e-09  6.0214536983115983e-09  6.0209565153037396e-09  6.0195078955522322e-09  6.0171422409666782e-09  6.0139157663635190e-09  6.0099055432464998e-09  6.0052080561833355e-09  5.9999372936135443e-09  5.9942224263369182e-09  5.9882050209372826e-09  5.9820357254514955e-09  5.9758707208699598e-09  5.9698677233169367e-09  5.9641818289060032e-09  5.9589612914906754e-09  5.9543433023835343e-09  5.9504500765215585e-09  5.9473829270731325e-09  5.9451947422555741e-09  5.9434428338653984e-09  2.1882226858107585e-08  2.1886171741595768e-08  5.9465868848237621e-09  5.9486231191646447e-09  5.9508289274113832e-09  5.9539116641465726e-09  5.9578228755965524e-09  5.9624591407747084e-09  5.9676963443363639e-09  5.9733954397670970e-09  5.9794065526209299e-09  5.9855733210190980e-09  5.9917372553859076e-09  5.9977419081272867e-09  6.0034368435301485e-09  6.0086813102948901e-09  6.0133473279084374e-09  6.0173223287807712e-09  6.0205115396189259e-09  6.0228395833334899e-09  6.0242519021331896e-09  6.0247156209345621e-09  6.0242200852704483e-09  6.0227770576041908e-09  6.0204204331577387e-09  6.0172057888168999e-09  6.0132093368311121e-09  6.0085266215515340e-09  6.0032706969285091e-09  5.9975698358063925e-09  5.9915648816732215e-09  5.9854059668884488e-09  5.9792489934271237e-09  5.9732516422503077e-09  5.9675691853398144e-09  5.9623502319619973e-09  5.9577323903873972e-09  5.9538382734151700e-09  5.9507682964303314e-09  5.9485512668280235e-09  5.9463292213547055e-09  2.1884576412890751e-08  2.1889944797497622e-08  5.9506110554662824e-09  5.9532173048109778e-09  5.9554520791474157e-09  5.9585349405995411e-09  5.9624436768129651e-09  5.9670754307514871e-09  5.9723054900717592e-09  5.9779942882069229e-09  5.9839915878500169e-09  5.9901409289561733e-09  5.9962840367222547e-09  6.0022650605838751e-09  6.0079344643285009e-09  6.0131526423637156e-09  6.0177929709520249e-09  6.0217443301211464e-09  6.0249133008251448e-09  6.0272257045000618e-09  6.0286279235251600e-09  6.0290877145590211e-09  6.0285945402938664e-09  6.0271599628258412e-09  6.0248172776324000e-09  6.0216210563255412e-09  6.0176463220356145e-09  6.0129872393338128e-09  6.0077554747235010e-09  6.0020780039339401e-09  5.9960945218202386e-09  5.9899543729977143e-09  5.9838129348551261e-09  5.9778277253166703e-09  5.9721541516193946e-09  5.9669411845108553e-09  5.9623269534945377e-09  5.9584345941576389e-09  5.9553633716767926e-09  5.9531100577352992e-09  5.9502586103832021e-09  2.1887827575486700e-08  2.1894776098194531e-08  5.9558055210832627e-09  5.9591537783101779e-09  5.9614257902852291e-09  5.9645075260300712e-09  5.9684113014896469e-09  5.9730350859136059e-09  5.9782534434238062e-09  5.9839261370811962e-09  5.9899025280175393e-09  5.9960260991309248e-09  6.0021389401431498e-09  6.0080860553990551e-09  6.0137191859447654e-09  6.0189003344833106e-09  6.0235047133511533e-09  6.0274231445215969e-09  6.0305640491363659e-09  6.0328548537593128e-09  6.0342431824332433e-09  6.0346975638093753e-09  6.0342077507725161e-09  6.0327849321211531e-09  6.0304616298922038e-09  6.0272910991546050e-09  6.0233467402484332e-09  6.0187208812900062e-09  6.0135232826765925e-09  6.0078791529015646e-09  6.0019266292092177e-09  5.9958138866640724e-09  5.9896955647197228e-09  5.9837288591074649e-09  5.9780693015508607e-09  5.9728662985804079e-09  5.9682586513166927e-09  5.9643701806222993e-09  5.9612986985072472e-09  5.9590000143517844e-09  5.9553410100473507e-09  2.1892070999040339e-08  2.1900802722940842e-08  5.9623188621878601e-09  5.9666023816782509e-09  5.9689203041658451e-09  5.9719986904658510e-09  5.9758936736942926e-09  5.9805043286324788e-09  5.9857043148979611e-09  5.9913526035293377e-09  5.9972981137622023e-09  6.0033843901848355e-09  6.0094541407345244e-09  6.0153535524225513e-09  6.0209361953335269e-09  6.0260662224717015e-09  6.0306213164426131e-09  6.0344948655772422e-09  6.0375976895032691e-09  6.0398593271656085e-09  6.0412289963581011e-09  6.0416762190738045e-09  6.0411910748516115e-09  6.0397843614418862e-09  6.0374874938878628e-09  6.0343520913521247e-09  6.0304494013861581e-09  6.0258693414681376e-09  6.0207191631959118e-09  6.0151216526803244e-09  6.0092128739520199e-09  6.0031393354545705e-09  5.9970545781169691e-09  5.9911153019954641e-09  5.9854770855559585e-09  5.9802898446132884e-09  5.9756931977874853e-09  5.9718118170084200e-09  5.9687417183658861e-09  5.9663876569878214e-09  5.9617199980339397e-09  2.1897425270904589e-08  2.1908197490458427e-08  5.9703394195560193e-09  5.9757786234154092e-09  5.9781517188256276e-09  5.9812232946850684e-09  5.9851037928243566e-09  5.9896936796453361e-09  5.9948655558922162e-09  6.0004774733896212e-09  6.0063779318743369e-09  6.0124106914925141e-09  6.0184195078224918e-09  6.0242523077201073e-09  6.0297650994212561e-09  6.0348250784703180e-09  6.0393131303768531e-09  6.0431259993885270e-09  6.0461776114568878e-09  6.0484002017674765e-09  6.0497450551831760e-09  6.0501829037596608e-09  6.0497042468867209e-09  6.0483193843514723e-09  6.0460583259074494e-09  6.0429705801430046e-09  6.0391246439978190e-09  6.0346072756970478e-09  6.0295224548782646e-09  6.0239897438100875e-09  6.0181423389826652e-09  6.0121244493747791e-09  6.0060880070607153e-09  6.0001888817842709e-09  5.9945825740849155e-09  5.9894195358604141e-09  5.9848403609787082e-09  5.9809707907077571e-09  5.9779046841023828e-09  5.9754842284204264e-09  5.9695776503347981e-09  2.1904041253911538e-08  2.1917174934544834e-08  5.9801021979984214e-09  5.9869517831530363e-09  5.9893900644532964e-09  5.9924497482895148e-09  5.9963076301214544e-09  6.0008658108025103e-09  6.0059955751723323e-09  6.0115539708918877e-09  6.0173891829858454e-09  6.0233455658481342e-09  6.0292684636143044e-09  6.0350084235216179e-09  6.0404248310821159e-09  6.0453889705525667e-09  6.0497860525472969e-09  6.0535171161461974e-09  6.0565001192396201e-09  6.0586706600846261e-09  6.0599826045175886e-09  6.0604082744377612e-09  6.0599386016090338e-09  6.0585832906055909e-09  6.0563705938322862e-09  6.0533473295865552e-09  6.0495784877041877e-09  6.0451467909535593e-09  6.0401518755028984e-09  6.0347090564071845e-09  6.0289475969112807e-09  6.0230084611766475e-09  6.0170412192049874e-09  6.0112003762571762e-09  6.0056410653824276e-09  6.0005142653690837e-09  5.9959617464131172e-09  5.9921106351073878e-09  5.9890523085867113e-09  5.9865531088817384e-09  5.9791408387546495e-09  2.1912107179299444e-08  2.1927998855466006e-08  5.9918975147067249e-09  6.0004550118070646e-09  6.0029696468015940e-09  6.0060104661050694e-09  6.0098345076111534e-09  6.0143456585762403e-09  6.0194134960744923e-09  6.0248939582073939e-09  6.0306351766294071e-09  6.0364827447271987e-09  6.0422845966143226e-09  6.0478951088647849e-09  6.0531784836138386e-09  6.0580114704981302e-09  6.0622850766866612e-09  6.0659059016349656e-09  6.0687970058846442e-09  6.0708982498214051e-09  6.0721666467179573e-09  6.0725764970209974e-09  6.0721192836499932e-09  6.0708038897650029e-09  6.0686564563499472e-09  6.0657203967724212e-09  6.0620563097017397e-09  6.0577417076290619e-09  6.0528705725545871e-09  6.0475525368967505e-09  6.0419114980884149e-09  6.0360837755344373e-09  6.0302153987205733e-09  6.0244586264937832e-09  6.0189677115002181e-09  6.0138940608524461e-09  6.0093808651985612e-09  6.0055571303219080e-09  6.0025115702939837e-09  5.9999193688225022e-09  5.9906892985381542e-09  2.1921854966291099e-08  2.1940991602239434e-08  6.0060818501375492e-09  6.0166981422863364e-09  6.0193022801170269e-09  6.0223154157213514e-09  6.0260907855078913e-09  6.0305338733616069e-09  6.0355119980492883e-09  6.0408798973375685e-09  6.0464861601117167e-09  6.0521787639774681e-09  6.0578098232825949e-09  6.0632394942087080e-09  6.0683388691497331e-09  6.0729921390903579e-09  6.0770979406576900e-09  6.0805701011718430e-09  6.0833380655162101e-09  6.0853469933126014e-09  6.0865578060545152e-09  6.0869471208764073e-09  6.0865071301269198e-09  6.0852456700059563e-09  6.0831863194197660e-09  6.0803682787480315e-09  6.0768466448963671e-09  6.0726923180589554e-09  6.0679919520840477e-09  6.0628475382429391e-09  6.0573755709800324e-09  6.0517056885076355e-09  6.0459785109262144e-09  6.0403425662989560e-09  6.0349502978152024e-09  6.0299532164464301e-09  6.0254962685350789e-09  6.0217111594407089e-09  6.0186841611681205e-09  6.0159816753103502e-09  6.0045654920449919e-09  2.1933568039271923e-08  2.1956544948713025e-08  6.0230910246013139e-09  6.0361837870180580e-09  6.0388942992880181e-09  6.0418699234526262e-09  6.0455780752277269e-09  6.0499249811694985e-09  6.0547746730493683e-09  6.0599807353242549e-09  6.0653933914091649e-09  6.0708649810791089e-09  6.0762544964407570e-09  6.0814308110753322e-09  6.0862749264147223e-09  6.0906813637849011e-09  6.0945587744680035e-09  6.0978301980174481e-09  6.1004331155455013e-09  6.1023190815820509e-09  6.1034537085663478e-09  6.1038163784391839e-09  6.1034001040130604e-09  6.1022115174855834e-09  6.1002710210472107e-09  6.0976127762305921e-09  6.0942850820921450e-09  6.0903505562757981e-09  6.0858863398838210e-09  6.0809842334507347e-09  6.0757504156897641e-09  6.0703047989913553e-09  6.0647796435335909e-09  6.0593172075261062e-09  6.0540663421022752e-09  6.0491778993431025e-09  6.0447989982114380e-09  6.0410654822116434e-09  6.0380622407363613e-09  6.0352269721203311e-09  6.0211864639816681e-09  2.1947590478321749e-08  2.1975132339994494e-08  6.0434556810893347e-09  6.0595269623431278e-09  6.0623683767238745e-09  6.0652983241869778e-09  6.0689180376241240e-09  6.0731320776037010e-09  6.0777996132758730e-09  6.0827734266811453e-09  6.0879076629484198e-09  6.0930628570916681e-09  6.0981093774519676e-09  6.1029295047716443e-09  6.1074185864501115e-09  6.1114852439322366e-09  6.1150513588857407e-09  6.1180516054508486e-09  6.1204332311835141e-09  6.1221555061069703e-09  6.1231894115446898e-09  6.1235175427045267e-09  6.1231338165159705e-09  6.1220435019572441e-09  6.1202632578534379e-09  6.1178213491488219e-09  6.1147578650894381e-09  6.1111251849639065e-09  6.1069883124239510e-09  6.1024254879379595e-09  6.0975285154339442e-09  6.0924029936333797e-09  6.0871680844914876e-09  6.0819553669145987e-09  6.0769066647889484e-09  6.0721704354479726e-09  6.0678963275387519e-09  6.0642268204866227e-09  6.0612483018912081e-09  6.0582480384096743e-09  6.0410575238268807e-09  2.1964337470548946e-08  2.1997321099113136e-08  6.0678185458051473e-09  6.0874786083478411e-09  6.0904916323386689e-09  6.0933761754614443e-09  6.0968871148642912e-09  6.1009220263689598e-09  6.1053324962908659e-09  6.1099721520999155e-09  6.1147039512928928e-09  6.1194035144068092e-09  6.1239603851759223e-09  6.1282776725100680e-09  6.1322714548965986e-09  6.1358697111912567e-09  6.1390112984635417e-09  6.1416453786823206e-09  6.1437306672415918e-09  6.1452352938874847e-09  6.1461362795931578e-09  6.1464197118691342e-09  6.1460804441449948e-09  6.1451222283355118e-09  6.1435576207472365e-09  6.1414081377124773e-09  6.1387044321682315e-09  6.1354865206905511e-09  6.1318042592141571e-09  6.1277180617306228e-09  6.1232997859696636e-09  6.1186339194500503e-09  6.1138188398583061e-09  6.1089677030866343e-09  6.1042087162469042e-09  6.0996838782912952e-09  6.0955451066042433e-09  6.0919456861819083e-09  6.0889801105697513e-09  6.0857635543816284e-09  6.0647864913966920e-09  2.1984305853085899e-08  2.2023780078652398e-08  6.0969502226193347e-09  6.1209521850436980e-09  6.1242120402216851e-09  6.1270758447949364e-09  6.1304676215890619e-09  6.1342670587415186e-09  6.1383146924776380e-09  6.1424695964668681e-09  6.1466141051378949e-09  6.1506521267405356e-09  6.1545054875968634e-09  6.1581098047577517e-09  6.1614110123195434e-09  6.1643630328018692e-09  6.1669261877161706e-09  6.1690667113507645e-09  6.1707563136653756e-09  6.1719724863206827e-09  6.1726986529606399e-09  6.1729243452314129e-09  6.1726454041543942e-09  6.1718638953233791e-09  6.1705882703962255e-09  6.1688329046334408e-09  6.1666180874337895e-09  6.1639697139633068e-09  6.1609194003049324e-09  6.1575047148522617e-09  6.1537702033960525e-09  6.1497693129796679e-09  6.1455673504818620e-09  6.1412454670017254e-09  6.1369053477352724e-09  6.1326731816822577e-09  6.1287005763272145e-09  6.1251581410104114e-09  6.1221622847898531e-09  6.1186392087083491e-09  6.0930956161022273e-09  2.2008082149125418e-08  2.2055274162834685e-08  6.1317569363290994e-09  6.1610503863097176e-09  6.1647074018967048e-09  6.1676345049713384e-09  6.1709266235956529e-09  6.1744244763489195e-09  6.1779547548053648e-09  6.1813955083327979e-09  6.1846708723462129e-09  6.1877379363081994e-09  6.1905732862127830e-09  6.1931625735045837e-09  6.1954940303879626e-09  6.1975552946312876e-09  6.1993323084465727e-09  6.2008101127836473e-09  6.2019738158324534e-09  6.2028098290864165e-09  6.2033073087164179e-09  6.2034587656937934e-09  6.2032608423582753e-09  6.2027142002284243e-09  6.2018234257207955e-09  6.2005964127134781e-09  6.1990432289955933e-09  6.1971749973297571e-09  6.1950026551689237e-09  6.1925358677589553e-09  6.1897828686552155e-09  6.1867521908917371e-09  6.1834568550152017e-09  6.1799223642778353e-09  6.1761986927329741e-09  6.1723749027654453e-09  6.1685924353537412e-09  6.1650476487104507e-09  6.1619063080369662e-09  6.1579050014112131e-09  6.1268231553476597e-09  2.2036341590930933e-08  2.2092620582817923e-08  6.1732617222096662e-09  6.2090846160150091e-09  6.2134544809645790e-09  6.2166644264734457e-09  6.2199464976770410e-09  6.2230652414378144e-09  6.2258391316937906e-09  6.2282012714349356e-09  6.2301659677482182e-09  6.2317897644253789e-09  6.2331409886378452e-09  6.2342808698509376e-09  6.2352549539083625e-09  6.2360919692823509e-09  6.2368058241554201e-09  6.2373995078274693e-09  6.2378692885143448e-09  6.2382081675621482e-09  6.2384088495812586e-09  6.2384655633540515e-09  6.2383751916507158e-09  6.2381376344515185e-09  6.2377550200770721e-09  6.2372307601766234e-09  6.2365671505081917e-09  6.2357623154592950e-09  6.2348065015638971e-09  6.2336780311605708e-09  6.2323396249022367e-09  6.2307370816216385e-09  6.2288025100076957e-09  6.2264655470564523e-09  6.2236757786942842e-09  6.2204375775675055e-09  6.2168517174169961e-09  6.2131450876706437e-09  6.2095839355511875e-09  6.2047575168980372e-09  6.1668957553914215e-09  2.2069822713778116e-08  2.2136550155158817e-08  6.2225149951069775e-09  6.2665707480186109e-09  6.2723388986349381e-09  6.2763497529862065e-09  6.2798566299452828e-09  6.2824917776375361e-09  6.2841063765022715e-09  6.2847816387728525e-09  6.2847238237243169e-09  6.2841730186303374e-09  6.2833466909748081e-09  6.2824145817956922e-09  6.2814943866271006e-09  6.2806587420495226e-09  6.2799460456989040e-09  6.2793711623778607e-09  6.2789347349867176e-09  6.2786305154595350e-09  6.2784502308992445e-09  6.2783871265564667e-09  6.2784375760334382e-09  6.2786016098994113e-09  6.2788820957369088e-09  6.2792825973856389e-09  6.2798035947592393e-09  6.2804367046717094e-09  6.2811571366305608e-09  6.2819138383395776e-09  6.2826184109489454e-09  6.2831350567234687e-09  6.2832757848940055e-09  6.2828092668396340e-09  6.2814943930883755e-09  6.2791471621444028e-09  6.2757396390679231e-09  6.2715072615937154e-09  6.2669065680496128e-09  6.2605236549230822e-09  6.2142277069262703e-09  2.2109241163258249e-08  2.2187324133789734e-08  6.2803350538746843e-09  6.3351659034732918e-09  6.3438645134298276e-09  6.3498385423071653e-09  6.3540723839235083e-09  6.3560193534140816e-09  6.3557225862745045e-09  6.3536431068900925e-09  6.3503857571073429e-09  6.3465172386522496e-09  6.3424839168569642e-09  6.3385969960731440e-09  6.3350508327219430e-09  6.3319519880375593e-09  6.3293475173395973e-09  6.3272481052767612e-09  6.3256445038583160e-09  6.3245199525635795e-09  6.3238575247227065e-09  6.3236447391981654e-09  6.3238761911346946e-09  6.3245539783773512e-09  6.3256867174434889e-09  6.3272866396859351e-09  6.3293640722119511e-09  6.3319187045354327e-09  6.3349267962149332e-09  6.3383225012410377e-09  6.3419733498206346e-09  6.3456513026696625e-09  6.3490046231813273e-09  6.3515478747402502e-09  6.3526881927042932e-09  6.3518280669759905e-09  6.3485801175723135e-09  6.3430777538614049e-09  6.3360853398595626e-09  6.3265355827707297e-09  6.2694336372884970e-09  2.2155052175673769e-08  2.2243860391700515e-08  6.3466209778840852e-09  6.4165160937708437e-09  6.4316765113062450e-09  6.4421248658723485e-09  6.4479906451198317e-09  6.4486696042649376e-09  6.4449177034224095e-09  6.438125081