<?xml version="1.0"?>
<VTKFile type="UnstructuredGrid"  version="0.1"  >
<UnstructuredGrid>
<Piece  NumberOfPoints="1681" NumberOfCells="3200">
<Points>
<DataArray  type="Float64"  NumberOfComponents="3"  format="ascii">0 0 0  0.025 0 0  0.05 0 0  0.075 0 0  0.1 0 0  0.125 0 0  0.15 0 0  0.175 0 0  0.2 0 0  0.225 0 0  0.25 0 0  0.275 0 0  0.3 0 0  0.325 0 0  0.35 0 0  0.375 0 0  0.4 0 0  0.425 0 0  0.45 0 0  0.475 0 0  0.5 0 0  0.525 0 0  0.55 0 0  0.575 0 0  0.6 0 0  0.625 0 0  0.65 0 0  0.675 0 0  0.7 0 0  0.725 0 0  0.75 0 0  0.775 0 0  0.8 0 0  0.825 0 0  0.85 0 0  0.875 0 0  0.9 0 0  0.925 0 0  0.95 0 0  0.975 0 0  1 0 0  0 0.025 0  0.025 0.025 0  0.05 0.025 0  0.075 0.025 0  0.1 0.025 0  0.125 0.025 0  0.15 0.025 0  0.175 0.025 0  0.2 0.025 0  0.225 0.025 0  0.25 0.025 0  0.275 0.025 0  0.3 0.025 0  0.325 0.025 0  0.35 0.025 0  0.375 0.025 0  0.4 0.025 0  0.425 0.025 0  0.45 0.025 0  0.475 0.025 0  0.5 0.025 0  0.525 0.025 0  0.55 0.025 0  0.575 0.025 0  0.6 0.025 0  0.625 0.025 0  0.65 0.025 0  0.675 0.025 0  0.7 0.025 0  0.725 0.025 0  0.75 0.025 0  0.775 0.025 0  0.8 0.025 0  0.825 0.025 0  0.85 0.025 0  0.875 0.025 0  0.9 0.025 0  0.925 0.025 0  0.95 0.025 0  0.975 0.025 0  1 0.025 0  0 0.05 0  0.025 0.05 0  0.05 0.05 0  0.075 0.05 0  0.1 0.05 0  0.125 0.05 0  0.15 0.05 0  0.175 0.05 0  0.2 0.05 0  0.225 0.05 0  0.25 0.05 0  0.275 0.05 0  0.3 0.05 0  0.325 0.05 0  0.35 0.05 0  0.375 0.05 0  0.4 0.05 0  0.425 0.05 0  0.45 0.05 0  0.475 0.05 0  0.5 0.05 0  0.525 0.05 0  0.55 0.05 0  0.575 0.05 0  0.6 0.05 0  0.625 0.05 0  0.65 0.05 0  0.675 0.05 0  0.7 0.05 0  0.725 0.05 0  0.75 0.05 0  0.775 0.05 0  0.8 0.05 0  0.825 0.05 0  0.85 0.05 0  0.875 0.05 0  0.9 0.05 0  0.925 0.05 0  0.95 0.05 0  0.975 0.05 0  1 0.05 0  0 0.075 0  0.025 0.075 0  0.05 0.075 0  0.075 0.075 0  0.1 0.075 0  0.125 0.075 0  0.15 0.075 0  0.175 0.075 0  0.2 0.075 0  0.225 0.075 0  0.25 0.075 0  0.275 0.075 0  0.3 0.075 0  0.325 0.075 0  0.35 0.075 0  0.375 0.075 0  0.4 0.075 0  0.425 0.075 0  0.45 0.075 0  0.475 0.075 0  0.5 0.075 0  0.525 0.075 0  0.55 0.075 0  0.575 0.075 0  0.6 0.075 0  0.625 0.075 0  0.65 0.075 0  0.675 0.075 0  0.7 0.075 0  0.725 0.075 0  0.75 0.075 0  0.775 0.075 0  0.8 0.075 0  0.825 0.075 0  0.85 0.075 0  0.875 0.075 0  0.9 0.075 0  0.925 0.075 0  0.95 0.075 0  0.975 0.075 0  1 0.075 0  0 0.1 0  0.025 0.1 0  0.05 0.1 0  0.075 0.1 0  0.1 0.1 0  0.125 0.1 0  0.15 0.1 0  0.175 0.1 0  0.2 0.1 0  0.225 0.1 0  0.25 0.1 0  0.275 0.1 0  0.3 0.1 0  0.325 0.1 0  0.35 0.1 0  0.375 0.1 0  0.4 0.1 0  0.425 0.1 0  0.45 0.1 0  0.475 0.1 0  0.5 0.1 0  0.525 0.1 0  0.55 0.1 0  0.575 0.1 0  0.6 0.1 0  0.625 0.1 0  0.65 0.1 0  0.675 0.1 0  0.7 0.1 0  0.725 0.1 0  0.75 0.1 0  0.775 0.1 0  0.8 0.1 0  0.825 0.1 0  0.85 0.1 0  0.875 0.1 0  0.9 0.1 0  0.925 0.1 0  0.95 0.1 0  0.975 0.1 0  1 0.1 0  0 0.125 0  0.025 0.125 0  0.05 0.125 0  0.075 0.125 0  0.1 0.125 0  0.125 0.125 0  0.15 0.125 0  0.175 0.125 0  0.2 0.125 0  0.225 0.125 0  0.25 0.125 0  0.275 0.125 0  0.3 0.125 0  0.325 0.125 0  0.35 0.125 0  0.375 0.125 0  0.4 0.125 0  0.425 0.125 0  0.45 0.125 0  0.475 0.125 0  0.5 0.125 0  0.525 0.125 0  0.55 0.125 0  0.575 0.125 0  0.6 0.125 0  0.625 0.125 0  0.65 0.125 0  0.675 0.125 0  0.7 0.125 0  0.725 0.125 0  0.75 0.125 0  0.775 0.125 0  0.8 0.125 0  0.825 0.125 0  0.85 0.125 0  0.875 0.125 0  0.9 0.125 0  0.925 0.125 0  0.95 0.125 0  0.975 0.125 0  1 0.125 0  0 0.15 0  0.025 0.15 0  0.05 0.15 0  0.075 0.15 0  0.1 0.15 0  0.125 0.15 0  0.15 0.15 0  0.175 0.15 0  0.2 0.15 0  0.225 0.15 0  0.25 0.15 0  0.275 0.15 0  0.3 0.15 0  0.325 0.15 0  0.35 0.15 0  0.375 0.15 0  0.4 0.15 0  0.425 0.15 0  0.45 0.15 0  0.475 0.15 0  0.5 0.15 0  0.525 0.15 0  0.55 0.15 0  0.575 0.15 0  0.6 0.15 0  0.625 0.15 0  0.65 0.15 0  0.675 0.15 0  0.7 0.15 0  0.725 0.15 0  0.75 0.15 0  0.775 0.15 0  0.8 0.15 0  0.825 0.15 0  0.85 0.15 0  0.875 0.15 0  0.9 0.15 0  0.925 0.15 0  0.95 0.15 0  0.975 0.15 0  1 0.15 0  0 0.175 0  0.025 0.175 0  0.05 0.175 0  0.075 0.175 0  0.1 0.175 0  0.125 0.175 0  0.15 0.175 0  0.175 0.175 0  0.2 0.175 0  0.225 0.175 0  0.25 0.175 0  0.275 0.175 0  0.3 0.175 0  0.325 0.175 0  0.35 0.175 0  0.375 0.175 0  0.4 0.175 0  0.425 0.175 0  0.45 0.175 0  0.475 0.175 0  0.5 0.175 0  0.525 0.175 0  0.55 0.175 0  0.575 0.175 0  0.6 0.175 0  0.625 0.175 0  0.65 0.175 0  0.675 0.175 0  0.7 0.175 0  0.725 0.175 0  0.75 0.175 0  0.775 0.175 0  0.8 0.175 0  0.825 0.175 0  0.85 0.175 0  0.875 0.175 0  0.9 0.175 0  0.925 0.175 0  0.95 0.175 0  0.975 0.175 0  1 0.175 0  0 0.2 0  0.025 0.2 0  0.05 0.2 0  0.075 0.2 0  0.1 0.2 0  0.125 0.2 0  0.15 0.2 0  0.175 0.2 0  0.2 0.2 0  0.225 0.2 0  0.25 0.2 0  0.275 0.2 0  0.3 0.2 0  0.325 0.2 0  0.35 0.2 0  0.375 0.2 0  0.4 0.2 0  0.425 0.2 0  0.45 0.2 0  0.475 0.2 0  0.5 0.2 0  0.525 0.2 0  0.55 0.2 0  0.575 0.2 0  0.6 0.2 0  0.625 0.2 0  0.65 0.2 0  0.675 0.2 0  0.7 0.2 0  0.725 0.2 0  0.75 0.2 0  0.775 0.2 0  0.8 0.2 0  0.825 0.2 0  0.85 0.2 0  0.875 0.2 0  0.9 0.2 0  0.925 0.2 0  0.95 0.2 0  0.975 0.2 0  1 0.2 0  0 0.225 0  0.025 0.225 0  0.05 0.225 0  0.075 0.225 0  0.1 0.225 0  0.125 0.225 0  0.15 0.225 0  0.175 0.225 0  0.2 0.225 0  0.225 0.225 0  0.25 0.225 0  0.275 0.225 0  0.3 0.225 0  0.325 0.225 0  0.35 0.225 0  0.375 0.225 0  0.4 0.225 0  0.425 0.225 0  0.45 0.225 0  0.475 0.225 0  0.5 0.225 0  0.525 0.225 0  0.55 0.225 0  0.575 0.225 0  0.6 0.225 0  0.625 0.225 0  0.65 0.225 0  0.675 0.225 0  0.7 0.225 0  0.725 0.225 0  0.75 0.225 0  0.775 0.225 0  0.8 0.225 0  0.825 0.225 0  0.85 0.225 0  0.875 0.225 0  0.9 0.225 0  0.925 0.225 0  0.95 0.225 0  0.975 0.225 0  1 0.225 0  0 0.25 0  0.025 0.25 0  0.05 0.25 0  0.075 0.25 0  0.1 0.25 0  0.125 0.25 0  0.15 0.25 0  0.175 0.25 0  0.2 0.25 0  0.225 0.25 0  0.25 0.25 0  0.275 0.25 0  0.3 0.25 0  0.325 0.25 0  0.35 0.25 0  0.375 0.25 0  0.4 0.25 0  0.425 0.25 0  0.45 0.25 0  0.475 0.25 0  0.5 0.25 0  0.525 0.25 0  0.55 0.25 0  0.575 0.25 0  0.6 0.25 0  0.625 0.25 0  0.65 0.25 0  0.675 0.25 0  0.7 0.25 0  0.725 0.25 0  0.75 0.25 0  0.775 0.25 0  0.8 0.25 0  0.825 0.25 0  0.85 0.25 0  0.875 0.25 0  0.9 0.25 0  0.925 0.25 0  0.95 0.25 0  0.975 0.25 0  1 0.25 0  0 0.275 0  0.025 0.275 0  0.05 0.275 0  0.075 0.275 0  0.1 0.275 0  0.125 0.275 0  0.15 0.275 0  0.175 0.275 0  0.2 0.275 0  0.225 0.275 0  0.25 0.275 0  0.275 0.275 0  0.3 0.275 0  0.325 0.275 0  0.35 0.275 0  0.375 0.275 0  0.4 0.275 0  0.425 0.275 0  0.45 0.275 0  0.475 0.275 0  0.5 0.275 0  0.525 0.275 0  0.55 0.275 0  0.575 0.275 0  0.6 0.275 0  0.625 0.275 0  0.65 0.275 0  0.675 0.275 0  0.7 0.275 0  0.725 0.275 0  0.75 0.275 0  0.775 0.275 0  0.8 0.275 0  0.825 0.275 0  0.85 0.275 0  0.875 0.275 0  0.9 0.275 0  0.925 0.275 0  0.95 0.275 0  0.975 0.275 0  1 0.275 0  0 0.3 0  0.025 0.3 0  0.05 0.3 0  0.075 0.3 0  0.1 0.3 0  0.125 0.3 0  0.15 0.3 0  0.175 0.3 0  0.2 0.3 0  0.225 0.3 0  0.25 0.3 0  0.275 0.3 0  0.3 0.3 0  0.325 0.3 0  0.35 0.3 0  0.375 0.3 0  0.4 0.3 0  0.425 0.3 0  0.45 0.3 0  0.475 0.3 0  0.5 0.3 0  0.525 0.3 0  0.55 0.3 0  0.575 0.3 0  0.6 0.3 0  0.625 0.3 0  0.65 0.3 0  0.675 0.3 0  0.7 0.3 0  0.725 0.3 0  0.75 0.3 0  0.775 0.3 0  0.8 0.3 0  0.825 0.3 0  0.85 0.3 0  0.875 0.3 0  0.9 0.3 0  0.925 0.3 0  0.95 0.3 0  0.975 0.3 0  1 0.3 0  0 0.325 0  0.025 0.325 0  0.05 0.325 0  0.075 0.325 0  0.1 0.325 0  0.125 0.325 0  0.15 0.325 0  0.175 0.325 0  0.2 0.325 0  0.225 0.325 0  0.25 0.325 0  0.275 0.325 0  0.3 0.325 0  0.325 0.325 0  0.35 0.325 0  0.375 0.325 0  0.4 0.325 0  0.425 0.325 0  0.45 0.325 0  0.475 0.325 0  0.5 0.325 0  0.525 0.325 0  0.55 0.325 0  0.575 0.325 0  0.6 0.325 0  0.625 0.325 0  0.65 0.325 0  0.675 0.325 0  0.7 0.325 0  0.725 0.325 0  0.75 0.325 0  0.775 0.325 0  0.8 0.325 0  0.825 0.325 0  0.85 0.325 0  0.875 0.325 0  0.9 0.325 0  0.925 0.325 0  0.95 0.325 0  0.975 0.325 0  1 0.325 0  0 0.35 0  0.025 0.35 0  0.05 0.35 0  0.075 0.35 0  0.1 0.35 0  0.125 0.35 0  0.15 0.35 0  0.175 0.35 0  0.2 0.35 0  0.225 0.35 0  0.25 0.35 0  0.275 0.35 0  0.3 0.35 0  0.325 0.35 0  0.35 0.35 0  0.375 0.35 0  0.4 0.35 0  0.425 0.35 0  0.45 0.35 0  0.475 0.35 0  0.5 0.35 0  0.525 0.35 0  0.55 0.35 0  0.575 0.35 0  0.6 0.35 0  0.625 0.35 0  0.65 0.35 0  0.675 0.35 0  0.7 0.35 0  0.725 0.35 0  0.75 0.35 0  0.775 0.35 0  0.8 0.35 0  0.825 0.35 0  0.85 0.35 0  0.875 0.35 0  0.9 0.35 0  0.925 0.35 0  0.95 0.35 0  0.975 0.35 0  1 0.35 0  0 0.375 0  0.025 0.375 0  0.05 0.375 0  0.075 0.375 0  0.1 0.375 0  0.125 0.375 0  0.15 0.375 0  0.175 0.375 0  0.2 0.375 0  0.225 0.375 0  0.25 0.375 0  0.275 0.375 0  0.3 0.375 0  0.325 0.375 0  0.35 0.375 0  0.375 0.375 0  0.4 0.375 0  0.425 0.375 0  0.45 0.375 0  0.475 0.375 0  0.5 0.375 0  0.525 0.375 0  0.55 0.375 0  0.575 0.375 0  0.6 0.375 0  0.625 0.375 0  0.65 0.375 0  0.675 0.375 0  0.7 0.375 0  0.725 0.375 0  0.75 0.375 0  0.775 0.375 0  0.8 0.375 0  0.825 0.375 0  0.85 0.375 0  0.875 0.375 0  0.9 0.375 0  0.925 0.375 0  0.95 0.375 0  0.975 0.375 0  1 0.375 0  0 0.4 0  0.025 0.4 0  0.05 0.4 0  0.075 0.4 0  0.1 0.4 0  0.125 0.4 0  0.15 0.4 0  0.175 0.4 0  0.2 0.4 0  0.225 0.4 0  0.25 0.4 0  0.275 0.4 0  0.3 0.4 0  0.325 0.4 0  0.35 0.4 0  0.375 0.4 0  0.4 0.4 0  0.425 0.4 0  0.45 0.4 0  0.475 0.4 0  0.5 0.4 0  0.525 0.4 0  0.55 0.4 0  0.575 0.4 0  0.6 0.4 0  0.625 0.4 0  0.65 0.4 0  0.675 0.4 0  0.7 0.4 0  0.725 0.4 0  0.75 0.4 0  0.775 0.4 0  0.8 0.4 0  0.825 0.4 0  0.85 0.4 0  0.875 0.4 0  0.9 0.4 0  0.925 0.4 0  0.95 0.4 0  0.975 0.4 0  1 0.4 0  0 0.425 0  0.025 0.425 0  0.05 0.425 0  0.075 0.425 0  0.1 0.425 0  0.125 0.425 0  0.15 0.425 0  0.175 0.425 0  0.2 0.425 0  0.225 0.425 0  0.25 0.425 0  0.275 0.425 0  0.3 0.425 0  0.325 0.425 0  0.35 0.425 0  0.375 0.425 0  0.4 0.425 0  0.425 0.425 0  0.45 0.425 0  0.475 0.425 0  0.5 0.425 0  0.525 0.425 0  0.55 0.425 0  0.575 0.425 0  0.6 0.425 0  0.625 0.425 0  0.65 0.425 0  0.675 0.425 0  0.7 0.425 0  0.725 0.425 0  0.75 0.425 0  0.775 0.425 0  0.8 0.425 0  0.825 0.425 0  0.85 0.425 0  0.875 0.425 0  0.9 0.425 0  0.925 0.425 0  0.95 0.425 0  0.975 0.425 0  1 0.425 0  0 0.45 0  0.02
[...]
<PointData  Scalars="ControlVisualisation"> 
<DataArray  type="Float64"  Name="ControlVisualisation"  format="ascii">8.8941160294384619e-02  6.3128770352661526e-02  6.3129503107019466e-02  6.3130789948536631e-02  6.3132612073036692e-02  6.3134941403675121e-02  6.3137737528345367e-02  6.3140948165808466e-02  6.3144507960545368e-02  6.3148338237728960e-02  6.3152347768532818e-02  6.3156434432359715e-02  6.3160487817083347e-02  6.3164392672293901e-02  6.3168033044043101e-02  6.3171296850610362e-02  6.3174080606626812e-02  6.3176293984854540e-02  6.3177863919966062e-02  6.3178737990873840e-02  6.3178886873058060e-02  6.3178305714139252e-02  6.3177014352636118e-02  6.3175056368979618e-02  6.3172497024390234e-02  6.3169420209953545e-02  6.3165924594204059e-02  6.3162119208556064e-02  6.3158118757301429e-02  6.3154038956310360e-02  6.3149992201329636e-02  6.3146083828473795e-02  6.3142409171128441e-02  6.3139051516891878e-02  6.3136081042614853e-02  6.3133554553550672e-02  6.3131516594688422e-02  6.3129998968237927e-02  6.3129028580300728e-02  6.3128578216420206e-02  1.5671198531249636e-01  6.3128770839542422e-02  3.5670125722707911e-02  3.5671246538223372e-02  3.5673245640646806e-02  3.5676147851065078e-02  3.5679907249027587e-02  3.5684455032378215e-02  3.5689703243405722e-02  3.5695542788727240e-02  3.5701843716858417e-02  3.5708456562978219e-02  3.5715214998566058e-02  3.5721939838317888e-02  3.5728444295186783e-02  3.5734540268709286e-02  3.5740045335381221e-02  3.5744790025793366e-02  3.5748624930499469e-02  3.5751427184650013e-02  3.5753105922885213e-02  3.5753606369605458e-02  3.5752912319422639e-02  3.5751046863277201e-02  3.5748071320404286e-02  3.5744082438257774e-02  3.5739208024906308e-02  3.5733601279197683e-02  3.5727434165628187e-02  3.5720890250517660e-02  3.5714157452240304e-02  3.5707421152851956e-02  3.5700858072629210e-02  3.5694631221118052e-02  3.5688886111219828e-02  3.5683748360290361e-02  3.5679322484955880e-02  3.5675692212697674e-02  3.5672920084609178e-02  3.5671045775465045e-02  3.5669979240815081e-02  6.3128578260811266e-02  6.3129509709682466e-02  3.5671255415931302e-02  3.5672994231782287e-02  3.5675657844588343e-02  3.5679514332836858e-02  3.5684518747162122e-02  3.5690575704159809e-02  3.5697559521433719e-02  3.5705317122314520e-02  3.5713670132910859e-02  3.5722417302766978e-02  3.5731338297215719e-02  3.5740198821626858e-02  3.5748757044630160e-02  3.5756771153786185e-02  3.5764007724561585e-02  3.5770250460144287e-02  3.5775308779827653e-02  3.5779025713447370e-02  3.5781284595680272e-02  3.5782014132852938e-02  3.5781191525716530e-02  3.5778843455569781e-02  3.5775044875528524e-02  3.5769915681126793e-02  3.5763615465864831e-02  3.5756336691727675e-02  3.5748296711298616e-02  3.5739729150978485e-02  3.5730875199561765e-02  3.5721975315735600e-02  3.5713261786680363e-02  3.5704952441804397e-02  3.5697245666881774e-02  3.5690316792347743e-02  3.5684315476251560e-02  3.5679364455879492e-02  3.5675552458337437e-02  3.5672910301371326e-02  3.5671051832174706e-02  6.3129030259687163e-02  6.3130824524549822e-02  3.5673298279584230e-02  3.5675716051288150e-02  3.5678551567876672e-02  3.5682561161635165e-02  3.5687747000492258e-02  3.5694019769217294e-02  3.5701248970149681e-02  3.5709274455705320e-02  3.5717909931652157e-02  3.5726946109549858e-02  3.5736154846358996e-02  3.5745294458527303e-02  3.5754116280164810e-02  3.5762372316489696e-02  3.5769823688603333e-02  3.5776249431355468e-02  3.5781455118833849e-02  3.5785280773403691e-02  3.5787607556402472e-02  3.5788362821820331e-02  3.5787523228375924e-02  3.5785115726708928e-02  3.5781216366199901e-02  3.5775946989559632e-02  3.5769470011661239e-02  3.5761981596804944e-02  3.5753703661460967e-02  3.5744875209660389e-02  3.5735743548221025e-02  3.5726555903288770e-02  3.5717551870195888e-02  3.5708956992112524e-02  3.5700977581313222e-02  3.5693796786802491e-02  3.5687571311037801e-02  3.5682428046948558e-02  3.5678448964082760e-02  3.5675606780064213e-02  3.5672960842014059e-02  6.3130012825682619e-02  6.3132725899131076e-02  3.5676329304735313e-02  3.5679748542639195e-02  3.5682745516081867e-02  3.5686829366168932e-02  3.5692085356199291e-02  3.5698441410580734e-02  3.5705770381901147e-02  3.5713911772332595e-02  3.5722676912046128e-02  3.5731852891725473e-02  3.5741207064435385e-02  3.5750492743984397e-02  3.5759456150616313e-02  3.5767844419039671e-02  3.5775414326783932e-02  3.5781941276783101e-02  3.5787228000784106e-02  3.5791112452979820e-02  3.5793474424452146e-02  3.5794240501324161e-02  3.5793387099472010e-02  3.5790941424214677e-02  3.5786980307657125e-02  3.5781626983267492e-02  3.5775045963282223e-02  3.5767436293987348e-02  3.5759023571452386e-02  3.5750051192905717e-02  3.5740771377328291e-02  3.5731436487021831e-02  3.5722291111247299e-02  3.5713565250494274e-02  3.5705468751420645e-02  3.5698186978589050e-02  3.5691876844521853e-02  3.5686661199596834e-02  3.5682603469189160e-02  3.5679584383384984e-02  3.5675840734306977e-02  6.3131574145735170e-02  6.3135227516771072e-02  3.5680375710299334e-02  3.5685150128535049e-02  3.5688351771854733e-02  3.5692515669890602e-02  3.5697841035730593e-02  3.5704279346730053e-02  3.5711709454847716e-02  3.5719971627290438e-02  3.5728875180034342e-02  3.5738203276070767e-02  3.5747717950937501e-02  3.5757166396995256e-02  3.5766288496067729e-02  3.5774825356804485e-02  3.5782528449136534e-02  3.5789168831156438e-02  3.5794545931489632e-02  3.5798495386523438e-02  3.5800895515037207e-02  3.5801672116986004e-02  3.5800801384974823e-02  3.5798310818656739e-02  3.5794278109325575e-02  3.5788828040632936e-02  3.5782127530592997e-02  3.5774379028546056e-02  3.5765812585096347e-02  3.5756677015203554e-02  3.5747230659970444e-02  3.5737732286161207e-02  3.5728432626277333e-02  3.5719566964081871e-02  3.5711348985821713e-02  3.5703965890161039e-02  3.5697573572451069e-02  3.5692288256552476e-02  3.5688147941727047e-02  3.5684910840699857e-02  3.5679718993350172e-02  6.3133720810857913e-02  6.3138340801433532e-02  3.5685461178083411e-02  3.5691956799680791e-02  3.5695423951493180e-02  3.5699700941144323e-02  3.5705129070952302e-02  3.5711688829730505e-02  3.5719265903132062e-02  3.5727700486192379e-02  3.5736798295290507e-02  3.5746336502056525e-02  3.5756069565868159e-02  3.5765736351184851e-02  3.5775068464481599e-02  3.5783799474296191e-02  3.5791674519517327e-02  3.5798459761393710e-02  3.5803951156153493e-02  3.5807982103907940e-02  3.5810429641715470e-02  3.5811218956530479e-02  3.5810326090351480e-02  3.5807778778116479e-02  3.5803655409596000e-02  3.5798082143314661e-02  3.5791228243837347e-02  3.5783299769593900e-02  3.5774531829933336e-02  3.5765179745063574e-02  3.5755509558109050e-02  3.5745788435206913e-02  3.5736275502820769e-02  3.5727213613124725e-02  3.5718822355233312e-02  3.5711292333350075e-02  3.5704779167052801e-02  3.5699391580312302e-02  3.5695136753513171e-02  3.5691622631894439e-02  3.5684619162697738e-02  6.3136465493094207e-02  6.3142071094234337e-02  3.5691603036813353e-02  3.5700192933041046e-02  3.5703998115453432e-02  3.5708442702354015e-02  3.5714034625073325e-02  3.5720787019860881e-02  3.5728591666165196e-02  3.5737286245221475e-02  3.5746669621000975e-02  3.5756509407757278e-02  3.5766549016030963e-02  3.5776515934837841e-02  3.5786131127889476e-02  3.5795119074655518e-02  3.5803217859622143e-02  3.5810188732762684e-02  3.5815824664356961e-02  3.5819957554407630e-02  3.5822463896750742e-02  3.5823268802624458e-02  3.5822348362386666e-02  3.5819730356442404e-02  3.5815493336833593e-02  3.5809764091303001e-02  3.5802713490565734e-02  3.5794550730301938e-02  3.5785516036441957e-02  3.5775872025365307e-02  3.5765894069886506e-02  3.5755860178708701e-02  3.5746040986382469e-02  3.5736690445472293e-02  3.5728037660857324e-02  3.5720279924423427e-02  3.5713574996747273e-02  3.5708024707331518e-02  3.5703601745827894e-02  3.5699739849202217e-02  3.5690556556856344e-02  6.3139816154405393e-02  6.3146408954143834e-02  3.5698799107734762e-02  3.5709860016925069e-02  3.5714091971630724e-02  3.5718787745085273e-02  3.5724641366268760e-02  3.5731699363461204e-02  3.5739856461965369e-02  3.5748943039066158e-02  3.5758745685594617e-02  3.5769017101998021e-02  3.5779484875978970e-02  3.5789861327206934e-02  3.5799854223717655e-02  3.5809177732892272e-02  3.5817562889212895e-02  3.5824766995196496e-02  3.5830581581465119e-02  3.5834838771661888e-02  3.5837416049000953e-02  3.5838239502303353e-02  3.5837285654898098e-02  3.5834581972867867e-02  3.5830206114657447e-02  3.5824283928185784e-02  3.5816986120632770e-02  3.5808523460633720e-02  3.5799140364906633e-02  3.5789106830966061e-02  3.5778708896082263e-02  3.5768238067732612e-02  3.5757980370990657e-02  3.5748205723548691e-02  3.5739158206905465e-02  3.5731047318763760e-02  3.5724037809134482e-02  3.5718227693074457e-02  3.5713554393761913e-02  3.5709258791682838e-02  3.5697527990892673e-02  6.3143770953573833e-02  6.3151317645634572e-02  3.5707009999223133e-02  3.5720917529180295e-02  3.5725691202047237e-02  3.5730766206209970e-02  3.5737034915158242e-02  3.5744573159381753e-02  3.5753271271045280e-02  3.5762943819960299e-02  3.5773356633553195e-02  3.5784239848437691e-02  3.5795299005504516e-02  3.5806226866175614e-02  3.5816715671196375e-02  3.5826468982314730e-02  3.5835212235753491e-02  3.5842701458448152e-02  3.5848730000325270e-02  3.5853133438442132e-02  3.5855792941022306e-02  3.5856637369147820e-02  3.5855644339856392e-02  3.5852840422483795e-02  3.5848300590603427e-02  3.5842146962651526e-02  3.5834546711636453e-02  3.5825708828261610e-02  3.5815879277279278e-02  3.5805334135108162e-02  3.5794370587177229e-02  3.5783296118942459e-02  3.5772416625787541e-02  3.5762024310672852e-02  3.5752386052631979e-02  3.5743732281093898e-02  3.5736243459306045e-02  3.5730021169244092e-02  3.5724971631105357e-02  3.5720131801924744e-02  3.5705494341299333e-02  6.3148307784713698e-02  6.3156714723561672e-02  3.5716132620203775e-02  3.5733254397184701e-02  3.5738729337782105e-02  3.5744382488934100e-02  3.5751305841458927e-02  3.5759592362762188e-02  3.5769113657917198e-02  3.5779654277246040e-02  3.5790946545248579e-02  3.5802687583763496e-02  3.5814553204572969e-02  3.5826212017798467e-02  3.5837339382355497e-02  3.5847629951425979e-02  3.5856807686455591e-02  3.5864632919392035e-02  3.5870906800321727e-02  3.5875473844005884e-02  3.5878223261614106e-02  3.5879089525309292e-02  3.5878052422456355e-02  3.5875136787768783e-02  3.5870412117576751e-02  3.5863992226750241e-02  3.5856034901192914e-02  3.5846741087472274e-02  3.5836352721531961e-02  3.5825148138133520e-02  3.5813434369269467e-02  3.5801536469069598e-02  3.5789784809989338e-02  3.5778501547715169e-02  3.5767987024495074e-02  3.5758505842070250e-02  3.5750268999924111e-02  3.5743396332474156e-02  3.5737775074959573e-02  3.5732238540190142e-02  3.5714355155737461e-02  6.3153369571708279e-02  6.3162444702075798e-02  3.5725961053947354e-02  3.5746648660715023e-02  3.5753061660558215e-02  3.5759606963189562e-02  3.5767560122480800e-02  3.5777005422540850e-02  3.5787769941176890e-02  3.5799585558634238e-02  3.5812132942157127e-02  3.5825062797051457e-02  3.5838012458068495e-02  3.5850622398404988e-02  3.5862552050609550e-02  3.5873492707961994e-02  3.5883175769637926e-02  3.5891376323596243e-02  3.5897913523489151e-02  3.5902649528598875e-02  3.5905488173399364e-02  3.5906373756502755e-02  3.5905289938069865e-02  3.5902258792238101e-02  3.5897340325749649e-02  3.5890632994715246e-02  3.5882275561500601e-02  3.5872449913608863e-02  3.5861383404023041e-02  3.5849348427946397e-02  3.5836657309753529e-02  3.5823652207210552e-02  3.5810691657845235e-02  3.5798135981624603e-02  3.5786332473550522e-02  3.5775599090884819e-02  3.5766201551403899e-02  3.5758304864991181e-02  3.5751803453250700e-02  3.5745344969413104e-02  3.5723911200071727e-02  6.3158842402357931e-02  6.3168239254247666e-02  3.5736129737075933e-02  3.5760711510906942e-02  3.5768433909525797e-02  3.5776374741978999e-02  3.5785948293142467e-02  3.5797180873144166e-02  3.5809810718687204e-02  3.5823482725705000e-02  3.5837802124112493e-02  3.5852357867704444e-02  3.5866740048293974e-02  3.5880558832202709e-02  3.5893463130796339e-02  3.5905153588323219e-02  3.5915386555406985e-02  3.5923970473395586e-02  3.5930759038880322e-02  3.5935644989879195e-02  3.5938555955682829e-02  3.5939451864751878e-02  3.5938322898248734e-02  3.5935187542017535e-02  3.5930091216016952e-02  3.5923106849575025e-02  3.5914338868532049e-02  3.5903931267106004e-02  3.5892077708512667e-02  3.5879028960539371e-02  3.5865092753424241e-02  3.5850624332454478e-02  3.5836011316075542e-02  3.5821658543161869e-02  3.5807974845765776e-02  3.5795357472178033e-02  3.5784164953380382e-02  3.5774654783316380e-02  3.5766778992034266e-02  3.5759046613479679e-02  3.5733810394608830e-02  6.3164523629451685e-02  6.3173661385856048e-02  3.5746033610702804e-02  3.5774813139669466e-02  3.5784450703453485e-02  3.5794605202122923e-02  3.5806734510662429e-02  3.5820716121628932e-02  3.5836125556174277e-02  3.5852472776246223e-02  3.5869261886847553e-02  3.5886006736053501e-02  3.5902242763008262e-02  3.5917550024477933e-02  3.5931579761910644e-02  3.5944068171211471e-02  3.5954830103195765e-02  3.5963739738798906e-02  3.5970710806935882e-02  3.5975684071778272e-02  3.5978622152926722e-02  3.5979507736389305e-02  3.5978341642930289e-02  3.5975139324991488e-02  3.5969926665246482e-02  3.5962737813737947e-02  3.5953619502529344e-02  3.5942646071403919e-02  3.5929942890129220e-02  3.5915710072126301e-02  3.5900232880807001e-02  3.5883871642118870e-02  3.5867039177993373e-02  3.5850183570979008e-02  3.5833784186644985e-02  3.5818348128220288e-02  3.5804384654552691e-02  3.5792325086697385e-02  3.5782272277128130e-02  3.5772693774172998e-02  3.5743472396252293e-02  6.3170076551838927e-02  6.3178032771096362e-02  3.5754724119086236e-02  3.5787996456052733e-02  3.5800563779231923e-02  3.5814276848131127e-02  3.5830449605080604e-02  3.5848645624846305e-02  3.5868158942761803e-02  3.5888307207246534e-02  3.5908481155815478e-02  3.5928118978152498e-02  3.5946693740053992e-02  3.5963752438704519e-02  3.5978972355979640e-02  3.5992179092795694e-02  3.6003311914565517e-02  3.6012366881070824e-02  3.6019353945718778e-02  3.6024280930382076e-02  3.6027155334780500e-02  3.6027989614453283e-02  3.6026801660238236e-02  3.6023608771274002e-02  3.6018416913110383e-02  3.6011208411978794e-02  3.6001939671270383e-02  3.5990560230422873e-02  3.5977060992214961e-02  3.5961536565677306e-02  3.5944221946873897e-02  3.5925477666222914e-02  3.5905734919612617e-02  3.5885462859828555e-02  3.5865194189246705e-02  3.5845569562723584e-02  3.5827333524000776e-02  3.5811230143100004e-02  3.5797682750004389e-02  3.5785304159082675e-02  3.5751991102843453e-02  6.3174969806740727e-02  6.3180361253093453e-02  3.5760799292336574e-02  3.5798909202000982e-02  3.5816127484788816e-02  3.5835623134377992e-02  3.5858213880851940e-02  3.5882848788127135e-02  3.5908338333332075e-02  3.5933762261284509e-02  3.5958463643586729e-02  3.5981848236698873e-02  3.6003292245422175e-02  3.6022269459738701e-02  3.6038522912557720e-02  3.6052088946094019e-02  3.6063169581848506e-02  3.6071979045897755e-02  3.6078664460537563e-02  3.6083307722504752e-02  3.6085960056929496e-02  3.6086667431222290e-02  3.6085475377470519e-02  3.6082419006546407e-02  3.6077499595584067e-02  3.6070646160564726e-02  3.6061684627765905e-02  3.6050340898678944e-02  3.6036346241511009e-02  3.6019577607461599e-02  3.6000175480387059e-02  3.5978526410725090e-02  3.5955096075236004e-02  3.5930309108495054e-02  3.5904648592527719e-02  3.5878863168922054e-02  3.5854050339751961e-02  3.5831507871150275e-02  3.5812286828160338e-02  3.5795494742488755e-02  3.5758030927258343e-02  6.3178407137614773e-02  6.3179317108056410e-02  3.5762353393630153e-02  3.5805868005627906e-02  3.5830698480845816e-02  3.5859695237922394e-02  3.5892512228941305e-02  3.5926883583520378e-02  3.5960778041455678e-02  3.5993184985341591e-02  3.6023762198148061e-02  3.6051986949146173e-02  3.6076924942729835e-02  3.6097770374317363e-02  3.6114411190895979e-02  3.6127410586142529e-02  3.6137548283456687e-02  3.6145410865936964e-02  3.6151288010568258e-02  3.6155286944110528e-02  3.6157469805643813e-02  3.6157914036588246e-02  3.6156710937793449e-02  3.6153948367201878e-02  3.6149674006132254e-02  3.6143818100935546e-02  3.6136065436958020e-02  3.6125771696382494e-02  3.6112132446299391e-02  3.6094480602836029e-02  3.6072761833985778e-02  3.6047583556210121e-02  3.6019684069960443e-02  3.5989298723060628e-02  3.5956438948941655e-02  3.5921738027238498e-02  3.5886829769546998e-02  3.5854008285642898e-02  3.5825499754461594e-02  3.5801544286426505e-02  3.5759785769260068e-02  6.3179278786014689e-02  6.3173504441597847e-02  3.5757306955207700e-02  3.5807449544582419e-02  3.5844920661226569e-02  3.5889459068269881e-02  3.5938439938388897e-02  3.5987379885023173e-02  3.6032737000967770e-02  3.6073917462498786e-02  3.6112023318595178e-02  3.6147070534739888e-02  3.6176924125624059e-02  3.6199540329841046e-02  3.6215135797558223e-02  3.6225773619481073e-02  3.6233583691695846e-02  3.6239689225214727e-02  3.6244309988369361e-02  3.6247346400024465e-02  3.6248779998900874e-02  3.6248731095665038e-02  3.6247372956641419e-02  3.6244899858064457e-02  3.6241540018917724e-02  3.6237456345584521e-02  3.6232285074090646e-02  3.6224791262411377e-02  3.6212823314341988e-02  3.6194557680472847e-02  3.6169616244719704e-02  3.6139597295886054e-02  3.6106550034954846e-02  3.6070147150247547e-02  3.6028394082696348e-02  3.5981064827334562e-02  3.5930729202915380e-02  3.5881514041279282e-02  3.5837748281872528e-02  3.5801922736149218e-02  3.5755227469011892e-02  6.3176245072860696e-02  6.3162650402308826e-02  3.5744744976350377e-02  3.5804354222968543e-02  3.5863175219676316e-02  3.5933460850340146e-02  3.6009004119097958e-02  3.6080931504284576e-02  3.6140781769247919e-02  3.6190164910846041e-02  3.6240583804036587e-02  3.6295151089879983e-02  3.6343942395645479e-02  3.6377756948268898e-02  3.6397398450494944e-02  3.6409543843394163e-02  3.6419545518514430e-02  3.6428867005570048e-02  3.6436502921094183e-02  3.6441348281785350e-02  3.6443204774195340e-02  3.6442431967024035e-02  3.6439357262290507e-02  3.6434221012082713e-02  3.6427632777051216e-02  3.6420652407051370e-02  3.6413608094092532e-02  3.6404938931977056e-02  3.6389237202603161e-02  3.6363257424717639e-02  3.6324089166297743e-02  3.6277097966026302e-02  3.6231425799908505e-02  3.6187822196241351e-02  3.6136170028730479e-02  3.6071205580686598e-02  3.5997001100399245e-02  3.5921694802242977e-02  3.5853001140236783e-02  3.5797281020879597e-02  3.5743343610436983e-02  6.3168293576734633e-02  6.3151683358795785e-02  3.5730215835725693e-02  3.5806972797478943e-02  3.5901876844308532e-02  3.6010128796071919e-02  3.6126788447784171e-02  3.6244224387395683e-02  3.6356225970709949e-02  3.6493148063195029e-02  3.6747213094080099e-02  3.7133902924759328e-02  3.7569619096115461e-02  3.7957770160382154e-02  3.8270600715638370e-02  3.8523347488645311e-02  3.8733527765098384e-02  3.8902356488641487e-02  3.9024188373947825e-02  3.9099583833692705e-02  3.9135978508540691e-02  3.9140150517804548e-02  3.9112445039103806e-02  3.9047600978914514e-02  3.8941055647781095e-02  3.8793575744648888e-02  3.8607517288484952e-02  3.8374245698012149e-02  3.8062617694945851e-02  3.7672133594121908e-02  3.7226559436807534e-02  3.6835246373076308e-02  3.6577410014322354e-02  3.6440602802883033e-02  3.6339911627068261e-02  3.6228184023397267e-02  3.6109050577621676e-02  3.5993490302736034e-02  3.5885858574625784e-02  3.5796864983615846e-02  3.5728432571765098e-02  6.3156788664267313e-02  6.3164928990732838e-02  3.5741577878546177e-02  3.5847025961922033e-02  3.5995934584453118e-02  3.6163178857388636e-02  3.6507266597007766e-02  3.7469221474068670e-02  3.9344360630161022e-02  4.150655340