<?xml version="1.0"?>
<VTKFile type="UnstructuredGrid"  version="0.1"  >
<UnstructuredGrid>
<Piece  NumberOfPoints="1681" NumberOfCells="3200">
<Points>
<DataArray  type="Float64"  NumberOfComponents="3"  format="ascii">0 0 0  0.025 0 0  0.05 0 0  0.075 0 0  0.1 0 0  0.125 0 0  0.15 0 0  0.175 0 0  0.2 0 0  0.225 0 0  0.25 0 0  0.275 0 0  0.3 0 0  0.325 0 0  0.35 0 0  0.375 0 0  0.4 0 0  0.425 0 0  0.45 0 0  0.475 0 0  0.5 0 0  0.525 0 0  0.55 0 0  0.575 0 0  0.6 0 0  0.625 0 0  0.65 0 0  0.675 0 0  0.7 0 0  0.725 0 0  0.75 0 0  0.775 0 0  0.8 0 0  0.825 0 0  0.85 0 0  0.875 0 0  0.9 0 0  0.925 0 0  0.95 0 0  0.975 0 0  1 0 0  0 0.025 0  0.025 0.025 0  0.05 0.025 0  0.075 0.025 0  0.1 0.025 0  0.125 0.025 0  0.15 0.025 0  0.175 0.025 0  0.2 0.025 0  0.225 0.025 0  0.25 0.025 0  0.275 0.025 0  0.3 0.025 0  0.325 0.025 0  0.35 0.025 0  0.375 0.025 0  0.4 0.025 0  0.425 0.025 0  0.45 0.025 0  0.475 0.025 0  0.5 0.025 0  0.525 0.025 0  0.55 0.025 0  0.575 0.025 0  0.6 0.025 0  0.625 0.025 0  0.65 0.025 0  0.675 0.025 0  0.7 0.025 0  0.725 0.025 0  0.75 0.025 0  0.775 0.025 0  0.8 0.025 0  0.825 0.025 0  0.85 0.025 0  0.875 0.025 0  0.9 0.025 0  0.925 0.025 0  0.95 0.025 0  0.975 0.025 0  1 0.025 0  0 0.05 0  0.025 0.05 0  0.05 0.05 0  0.075 0.05 0  0.1 0.05 0  0.125 0.05 0  0.15 0.05 0  0.175 0.05 0  0.2 0.05 0  0.225 0.05 0  0.25 0.05 0  0.275 0.05 0  0.3 0.05 0  0.325 0.05 0  0.35 0.05 0  0.375 0.05 0  0.4 0.05 0  0.425 0.05 0  0.45 0.05 0  0.475 0.05 0  0.5 0.05 0  0.525 0.05 0  0.55 0.05 0  0.575 0.05 0  0.6 0.05 0  0.625 0.05 0  0.65 0.05 0  0.675 0.05 0  0.7 0.05 0  0.725 0.05 0  0.75 0.05 0  0.775 0.05 0  0.8 0.05 0  0.825 0.05 0  0.85 0.05 0  0.875 0.05 0  0.9 0.05 0  0.925 0.05 0  0.95 0.05 0  0.975 0.05 0  1 0.05 0  0 0.075 0  0.025 0.075 0  0.05 0.075 0  0.075 0.075 0  0.1 0.075 0  0.125 0.075 0  0.15 0.075 0  0.175 0.075 0  0.2 0.075 0  0.225 0.075 0  0.25 0.075 0  0.275 0.075 0  0.3 0.075 0  0.325 0.075 0  0.35 0.075 0  0.375 0.075 0  0.4 0.075 0  0.425 0.075 0  0.45 0.075 0  0.475 0.075 0  0.5 0.075 0  0.525 0.075 0  0.55 0.075 0  0.575 0.075 0  0.6 0.075 0  0.625 0.075 0  0.65 0.075 0  0.675 0.075 0  0.7 0.075 0  0.725 0.075 0  0.75 0.075 0  0.775 0.075 0  0.8 0.075 0  0.825 0.075 0  0.85 0.075 0  0.875 0.075 0  0.9 0.075 0  0.925 0.075 0  0.95 0.075 0  0.975 0.075 0  1 0.075 0  0 0.1 0  0.025 0.1 0  0.05 0.1 0  0.075 0.1 0  0.1 0.1 0  0.125 0.1 0  0.15 0.1 0  0.175 0.1 0  0.2 0.1 0  0.225 0.1 0  0.25 0.1 0  0.275 0.1 0  0.3 0.1 0  0.325 0.1 0  0.35 0.1 0  0.375 0.1 0  0.4 0.1 0  0.425 0.1 0  0.45 0.1 0  0.475 0.1 0  0.5 0.1 0  0.525 0.1 0  0.55 0.1 0  0.575 0.1 0  0.6 0.1 0  0.625 0.1 0  0.65 0.1 0  0.675 0.1 0  0.7 0.1 0  0.725 0.1 0  0.75 0.1 0  0.775 0.1 0  0.8 0.1 0  0.825 0.1 0  0.85 0.1 0  0.875 0.1 0  0.9 0.1 0  0.925 0.1 0  0.95 0.1 0  0.975 0.1 0  1 0.1 0  0 0.125 0  0.025 0.125 0  0.05 0.125 0  0.075 0.125 0  0.1 0.125 0  0.125 0.125 0  0.15 0.125 0  0.175 0.125 0  0.2 0.125 0  0.225 0.125 0  0.25 0.125 0  0.275 0.125 0  0.3 0.125 0  0.325 0.125 0  0.35 0.125 0  0.375 0.125 0  0.4 0.125 0  0.425 0.125 0  0.45 0.125 0  0.475 0.125 0  0.5 0.125 0  0.525 0.125 0  0.55 0.125 0  0.575 0.125 0  0.6 0.125 0  0.625 0.125 0  0.65 0.125 0  0.675 0.125 0  0.7 0.125 0  0.725 0.125 0  0.75 0.125 0  0.775 0.125 0  0.8 0.125 0  0.825 0.125 0  0.85 0.125 0  0.875 0.125 0  0.9 0.125 0  0.925 0.125 0  0.95 0.125 0  0.975 0.125 0  1 0.125 0  0 0.15 0  0.025 0.15 0  0.05 0.15 0  0.075 0.15 0  0.1 0.15 0  0.125 0.15 0  0.15 0.15 0  0.175 0.15 0  0.2 0.15 0  0.225 0.15 0  0.25 0.15 0  0.275 0.15 0  0.3 0.15 0  0.325 0.15 0  0.35 0.15 0  0.375 0.15 0  0.4 0.15 0  0.425 0.15 0  0.45 0.15 0  0.475 0.15 0  0.5 0.15 0  0.525 0.15 0  0.55 0.15 0  0.575 0.15 0  0.6 0.15 0  0.625 0.15 0  0.65 0.15 0  0.675 0.15 0  0.7 0.15 0  0.725 0.15 0  0.75 0.15 0  0.775 0.15 0  0.8 0.15 0  0.825 0.15 0  0.85 0.15 0  0.875 0.15 0  0.9 0.15 0  0.925 0.15 0  0.95 0.15 0  0.975 0.15 0  1 0.15 0  0 0.175 0  0.025 0.175 0  0.05 0.175 0  0.075 0.175 0  0.1 0.175 0  0.125 0.175 0  0.15 0.175 0  0.175 0.175 0  0.2 0.175 0  0.225 0.175 0  0.25 0.175 0  0.275 0.175 0  0.3 0.175 0  0.325 0.175 0  0.35 0.175 0  0.375 0.175 0  0.4 0.175 0  0.425 0.175 0  0.45 0.175 0  0.475 0.175 0  0.5 0.175 0  0.525 0.175 0  0.55 0.175 0  0.575 0.175 0  0.6 0.175 0  0.625 0.175 0  0.65 0.175 0  0.675 0.175 0  0.7 0.175 0  0.725 0.175 0  0.75 0.175 0  0.775 0.175 0  0.8 0.175 0  0.825 0.175 0  0.85 0.175 0  0.875 0.175 0  0.9 0.175 0  0.925 0.175 0  0.95 0.175 0  0.975 0.175 0  1 0.175 0  0 0.2 0  0.025 0.2 0  0.05 0.2 0  0.075 0.2 0  0.1 0.2 0  0.125 0.2 0  0.15 0.2 0  0.175 0.2 0  0.2 0.2 0  0.225 0.2 0  0.25 0.2 0  0.275 0.2 0  0.3 0.2 0  0.325 0.2 0  0.35 0.2 0  0.375 0.2 0  0.4 0.2 0  0.425 0.2 0  0.45 0.2 0  0.475 0.2 0  0.5 0.2 0  0.525 0.2 0  0.55 0.2 0  0.575 0.2 0  0.6 0.2 0  0.625 0.2 0  0.65 0.2 0  0.675 0.2 0  0.7 0.2 0  0.725 0.2 0  0.75 0.2 0  0.775 0.2 0  0.8 0.2 0  0.825 0.2 0  0.85 0.2 0  0.875 0.2 0  0.9 0.2 0  0.925 0.2 0  0.95 0.2 0  0.975 0.2 0  1 0.2 0  0 0.225 0  0.025 0.225 0  0.05 0.225 0  0.075 0.225 0  0.1 0.225 0  0.125 0.225 0  0.15 0.225 0  0.175 0.225 0  0.2 0.225 0  0.225 0.225 0  0.25 0.225 0  0.275 0.225 0  0.3 0.225 0  0.325 0.225 0  0.35 0.225 0  0.375 0.225 0  0.4 0.225 0  0.425 0.225 0  0.45 0.225 0  0.475 0.225 0  0.5 0.225 0  0.525 0.225 0  0.55 0.225 0  0.575 0.225 0  0.6 0.225 0  0.625 0.225 0  0.65 0.225 0  0.675 0.225 0  0.7 0.225 0  0.725 0.225 0  0.75 0.225 0  0.775 0.225 0  0.8 0.225 0  0.825 0.225 0  0.85 0.225 0  0.875 0.225 0  0.9 0.225 0  0.925 0.225 0  0.95 0.225 0  0.975 0.225 0  1 0.225 0  0 0.25 0  0.025 0.25 0  0.05 0.25 0  0.075 0.25 0  0.1 0.25 0  0.125 0.25 0  0.15 0.25 0  0.175 0.25 0  0.2 0.25 0  0.225 0.25 0  0.25 0.25 0  0.275 0.25 0  0.3 0.25 0  0.325 0.25 0  0.35 0.25 0  0.375 0.25 0  0.4 0.25 0  0.425 0.25 0  0.45 0.25 0  0.475 0.25 0  0.5 0.25 0  0.525 0.25 0  0.55 0.25 0  0.575 0.25 0  0.6 0.25 0  0.625 0.25 0  0.65 0.25 0  0.675 0.25 0  0.7 0.25 0  0.725 0.25 0  0.75 0.25 0  0.775 0.25 0  0.8 0.25 0  0.825 0.25 0  0.85 0.25 0  0.875 0.25 0  0.9 0.25 0  0.925 0.25 0  0.95 0.25 0  0.975 0.25 0  1 0.25 0  0 0.275 0  0.025 0.275 0  0.05 0.275 0  0.075 0.275 0  0.1 0.275 0  0.125 0.275 0  0.15 0.275 0  0.175 0.275 0  0.2 0.275 0  0.225 0.275 0  0.25 0.275 0  0.275 0.275 0  0.3 0.275 0  0.325 0.275 0  0.35 0.275 0  0.375 0.275 0  0.4 0.275 0  0.425 0.275 0  0.45 0.275 0  0.475 0.275 0  0.5 0.275 0  0.525 0.275 0  0.55 0.275 0  0.575 0.275 0  0.6 0.275 0  0.625 0.275 0  0.65 0.275 0  0.675 0.275 0  0.7 0.275 0  0.725 0.275 0  0.75 0.275 0  0.775 0.275 0  0.8 0.275 0  0.825 0.275 0  0.85 0.275 0  0.875 0.275 0  0.9 0.275 0  0.925 0.275 0  0.95 0.275 0  0.975 0.275 0  1 0.275 0  0 0.3 0  0.025 0.3 0  0.05 0.3 0  0.075 0.3 0  0.1 0.3 0  0.125 0.3 0  0.15 0.3 0  0.175 0.3 0  0.2 0.3 0  0.225 0.3 0  0.25 0.3 0  0.275 0.3 0  0.3 0.3 0  0.325 0.3 0  0.35 0.3 0  0.375 0.3 0  0.4 0.3 0  0.425 0.3 0  0.45 0.3 0  0.475 0.3 0  0.5 0.3 0  0.525 0.3 0  0.55 0.3 0  0.575 0.3 0  0.6 0.3 0  0.625 0.3 0  0.65 0.3 0  0.675 0.3 0  0.7 0.3 0  0.725 0.3 0  0.75 0.3 0  0.775 0.3 0  0.8 0.3 0  0.825 0.3 0  0.85 0.3 0  0.875 0.3 0  0.9 0.3 0  0.925 0.3 0  0.95 0.3 0  0.975 0.3 0  1 0.3 0  0 0.325 0  0.025 0.325 0  0.05 0.325 0  0.075 0.325 0  0.1 0.325 0  0.125 0.325 0  0.15 0.325 0  0.175 0.325 0  0.2 0.325 0  0.225 0.325 0  0.25 0.325 0  0.275 0.325 0  0.3 0.325 0  0.325 0.325 0  0.35 0.325 0  0.375 0.325 0  0.4 0.325 0  0.425 0.325 0  0.45 0.325 0  0.475 0.325 0  0.5 0.325 0  0.525 0.325 0  0.55 0.325 0  0.575 0.325 0  0.6 0.325 0  0.625 0.325 0  0.65 0.325 0  0.675 0.325 0  0.7 0.325 0  0.725 0.325 0  0.75 0.325 0  0.775 0.325 0  0.8 0.325 0  0.825 0.325 0  0.85 0.325 0  0.875 0.325 0  0.9 0.325 0  0.925 0.325 0  0.95 0.325 0  0.975 0.325 0  1 0.325 0  0 0.35 0  0.025 0.35 0  0.05 0.35 0  0.075 0.35 0  0.1 0.35 0  0.125 0.35 0  0.15 0.35 0  0.175 0.35 0  0.2 0.35 0  0.225 0.35 0  0.25 0.35 0  0.275 0.35 0  0.3 0.35 0  0.325 0.35 0  0.35 0.35 0  0.375 0.35 0  0.4 0.35 0  0.425 0.35 0  0.45 0.35 0  0.475 0.35 0  0.5 0.35 0  0.525 0.35 0  0.55 0.35 0  0.575 0.35 0  0.6 0.35 0  0.625 0.35 0  0.65 0.35 0  0.675 0.35 0  0.7 0.35 0  0.725 0.35 0  0.75 0.35 0  0.775 0.35 0  0.8 0.35 0  0.825 0.35 0  0.85 0.35 0  0.875 0.35 0  0.9 0.35 0  0.925 0.35 0  0.95 0.35 0  0.975 0.35 0  1 0.35 0  0 0.375 0  0.025 0.375 0  0.05 0.375 0  0.075 0.375 0  0.1 0.375 0  0.125 0.375 0  0.15 0.375 0  0.175 0.375 0  0.2 0.375 0  0.225 0.375 0  0.25 0.375 0  0.275 0.375 0  0.3 0.375 0  0.325 0.375 0  0.35 0.375 0  0.375 0.375 0  0.4 0.375 0  0.425 0.375 0  0.45 0.375 0  0.475 0.375 0  0.5 0.375 0  0.525 0.375 0  0.55 0.375 0  0.575 0.375 0  0.6 0.375 0  0.625 0.375 0  0.65 0.375 0  0.675 0.375 0  0.7 0.375 0  0.725 0.375 0  0.75 0.375 0  0.775 0.375 0  0.8 0.375 0  0.825 0.375 0  0.85 0.375 0  0.875 0.375 0  0.9 0.375 0  0.925 0.375 0  0.95 0.375 0  0.975 0.375 0  1 0.375 0  0 0.4 0  0.025 0.4 0  0.05 0.4 0  0.075 0.4 0  0.1 0.4 0  0.125 0.4 0  0.15 0.4 0  0.175 0.4 0  0.2 0.4 0  0.225 0.4 0  0.25 0.4 0  0.275 0.4 0  0.3 0.4 0  0.325 0.4 0  0.35 0.4 0  0.375 0.4 0  0.4 0.4 0  0.425 0.4 0  0.45 0.4 0  0.475 0.4 0  0.5 0.4 0  0.525 0.4 0  0.55 0.4 0  0.575 0.4 0  0.6 0.4 0  0.625 0.4 0  0.65 0.4 0  0.675 0.4 0  0.7 0.4 0  0.725 0.4 0  0.75 0.4 0  0.775 0.4 0  0.8 0.4 0  0.825 0.4 0  0.85 0.4 0  0.875 0.4 0  0.9 0.4 0  0.925 0.4 0  0.95 0.4 0  0.975 0.4 0  1 0.4 0  0 0.425 0  0.025 0.425 0  0.05 0.425 0  0.075 0.425 0  0.1 0.425 0  0.125 0.425 0  0.15 0.425 0  0.175 0.425 0  0.2 0.425 0  0.225 0.425 0  0.25 0.425 0  0.275 0.425 0  0.3 0.425 0  0.325 0.425 0  0.35 0.425 0  0.375 0.425 0  0.4 0.425 0  0.425 0.425 0  0.45 0.425 0  0.475 0.425 0  0.5 0.425 0  0.525 0.425 0  0.55 0.425 0  0.575 0.425 0  0.6 0.425 0  0.625 0.425 0  0.65 0.425 0  0.675 0.425 0  0.7 0.425 0  0.725 0.425 0  0.75 0.425 0  0.775 0.425 0  0.8 0.425 0  0.825 0.425 0  0.85 0.425 0  0.875 0.425 0  0.9 0.425 0  0.925 0.425 0  0.95 0.425 0  0.975 0.425 0  1 0.425 0  0 0.45 0  0.02
[...]
<PointData  Scalars="ControlVisualisation"> 
<DataArray  type="Float64"  Name="ControlVisualisation"  format="ascii">3.7817577047482122e-08  2.1878976697544360e-08  2.1880074266519385e-08  2.1881909708107362e-08  2.1884427227445647e-08  2.1887560410437943e-08  2.1891225176304451e-08  2.1895323904196444e-08  2.1899748369460045e-08  2.1904382814515701e-08  2.1909107222172208e-08  2.1913800568908762e-08  2.1918344100071498e-08  2.1922624081187929e-08  2.1926534732251323e-08  2.1929980398810715e-08  2.1932877778561989e-08  2.1935157387655393e-08  2.1936765092152219e-08  2.1937662920457084e-08  2.1937829859400356e-08  2.1937262212033103e-08  2.1935973496636523e-08  2.1933994340653134e-08  2.1931371951884746e-08  2.1928169125624066e-08  2.1924463163829364e-08  2.1920344274587750e-08  2.1915913728587186e-08  2.1911281606516437e-08  2.1906564259238400e-08  2.1901881421533214e-08  2.1897353261721207e-08  2.1893097100373299e-08  2.1889224218391388e-08  2.1885836652727863e-08  2.1883024293722974e-08  2.1880861652498872e-08  2.1879412145771160e-08  2.1878690474304507e-08  8.5632239958842754e-08  2.1878979248974360e-08  5.9399166517000891e-09  5.9409923767291844e-09  5.9428855456824205e-09  5.9455656751024083e-09  5.9489611833097792e-09  5.9529809068495900e-09  5.9575181307470054e-09  5.9624532214030986e-09  5.9676571150959626e-09  5.9729949933811671e-09  5.9783298913501475e-09  5.9835264413358286e-09  5.9884541513798494e-09  5.9929906331520992e-09  5.9970244031045091e-09  6.0004573118175797e-09  6.0032065947582455e-09  6.0052064475705220e-09  6.0064093837214280e-09  6.0067870022141304e-09  6.0063305900644628e-09  6.0050511466651374e-09  6.0029792426282260e-09  6.0001644716643461e-09  5.9966744959079354e-09  5.9925937262437821e-09  5.9880216319586340e-09  5.9830706501159367e-09  5.9778637228983986e-09  5.9725314190330225e-09  5.9672087731333352e-09  5.9620318997582194e-09  5.9571343848272078e-09  5.9526436852265114e-09  5.9486775060007228e-09  5.9453405261174898e-09  5.9427212951878209e-09  5.9408876319001060e-09  5.9398319688174639e-09  2.1878690859599714e-08  2.1880104205309968e-08  5.9410143179949326e-09  5.9423604330509967e-09  5.9445179419822746e-09  5.9475779020726838e-09  5.9514629167324296e-09  5.9560691136661994e-09  5.9612741100183873e-09  5.9669405357378303e-09  5.9729201330802515e-09  5.9790579185697188e-09  5.9851963716691997e-09  5.9911796735663838e-09  5.9968576255124892e-09  6.0020891950906112e-09  6.0067459061102919e-09  6.0107144829455830e-09  6.0138993445180345e-09  6.0162243124552078e-09  6.0176342167666438e-09  6.0180958508482477e-09  6.0175985094205333e-09  6.0161541648359006e-09  6.0137972833332545e-09  6.0105842081210159e-09  6.0065920445143163e-09  6.0019172402175468e-09  5.9966736313039679e-09  5.9909900118315032e-09  5.9850074478704072e-09  5.9788758662022582e-09  5.9727504712313587e-09  5.9667878707498463e-09  5.9611419196886102e-09  5.9559595396425771e-09  5.9513766019764760e-09  5.9475141892036084e-09  5.9444736304667095e-09  5.9423240820318498e-09  5.9409062409855875e-09  2.1879421792298190e-08  2.1882052938476524e-08  5.9430085220505772e-09  5.9446298999705854e-09  5.9468134008195353e-09  5.9498940430420037e-09  5.9538046234943635e-09  5.9584412176066571e-09  5.9636802226849985e-09  5.9693830566620722e-09  5.9754002141230914e-09  5.9815754937241424e-09  5.9877503351816295e-09  5.9937679518939312e-09  5.9994774971339338e-09  6.0047373530275709e-09  6.0094186485209991e-09  6.0134079495231262e-09  6.0166095046475389e-09  6.0189471395328819e-09  6.0203655839964120e-09  6.0208316179110484e-09  6.0203344820563046e-09  6.0188860855693587e-09  6.0165207557001343e-09  6.0132947428596962e-09  6.0092851007429556e-09  6.0045882876834173e-09  5.9993183015078628e-09  5.9936042555590642e-09  5.9875877005623419e-09  5.9814193026073018e-09  5.9752551762210009e-09  5.9692530287443931e-09  5.9635679426602296e-09  5.9583481498723127e-09  5.9537308169875180e-09  5.9498381393064349e-09  5.9467714212657160e-09  5.9445835455050783e-09  5.9428318875800601e-09  2.1880929086016334e-08  2.1884873432366985e-08  5.9459755292416887e-09  5.9480114830692623e-09  5.9502169954898730e-09  5.9532993170706230e-09  5.9572099849538493e-09  5.9618456162674128e-09  5.9670820873851915e-09  5.9727803738009196e-09  5.9787906505387233e-09  5.9849565662950094e-09  5.9911196303523699e-09  5.9971233891419983e-09  6.0028174959256654e-09  6.0080612092164063e-09  6.0127265133008627e-09  6.0167009373998274e-09  6.0198896684090971e-09  6.0222173561025265e-09  6.0236294525891779e-09  6.0240930823544696e-09  6.0235975879948447e-09  6.0221547435114983e-09  6.0197984723962656e-09  6.0165842921808056e-09  6.0125884204627916e-09  6.0079063825364296e-09  6.0026512124167814e-09  5.9969511787275145e-09  5.9909470792906352e-09  5.9847890617810025e-09  5.9786329663831464e-09  5.9726364689329498e-09  5.9669548239075118e-09  5.9617366119544286e-09  5.9571194274150767e-09  5.9532258583326647e-09  5.9501563140326696e-09  5.9479396002718838e-09  5.9457178742794361e-09  2.1883278303168551e-08  2.1888645965705374e-08  5.9499991675932259e-09  5.9526050515802610e-09  5.9548395147488416e-09  5.9579219558845606e-09  5.9618301594581315e-09  5.9664612724518185e-09  5.9716906127141245e-09  5.9773786060531533e-09  5.9833750584858302e-09  5.9895235376254232e-09  5.9956657654010530e-09  6.0016459338319842e-09  6.0073145075128015e-09  6.0125319067232846e-09  6.0171715203437580e-09  6.0211222880599455e-09  6.0242907703615478e-09  6.0266028249894472e-09  6.0280048307787489e-09  6.0284645204546854e-09  6.0279714188837172e-09  6.0265370107654749e-09  6.0241946706258775e-09  6.0209989168091069e-09  6.0170247566078652e-09  6.0123663512243676e-09  6.0071353454353864e-09  6.0014586846327536e-09  5.9954760684437963e-09  5.9893368170227911e-09  5.9831962663632350e-09  5.9772119094879387e-09  5.9715391431470452e-09  5.9663269142757993e-09  5.9617133407770465e-09  5.9578215304917829e-09  5.9547507434636024e-09  5.9524977498255137e-09  5.9496467165294230e-09  2.1886529001381863e-08  2.1893476604110835e-08  5.9551929388801528e-09  5.9585407325814464e-09  5.9608124394413664e-09  5.9638937370973429e-09  5.9677969764022443e-09  5.9724201124163528e-09  5.9776377481441824e-09  5.9833096547005291e-09  5.9892851952901161e-09  5.9954078932665813e-09  6.0015198538562107e-09  6.0074661034287051e-09  6.0130984275609348e-09  6.0182787932273992e-09  6.0228824585185989e-09  6.0268002941624309e-09  6.0299406796559885e-09  6.0322311386621529e-09  6.0336192593637564e-09  6.0340735509332011e-09  6.0335837994143207e-09  6.0321611637461957e-09  6.0298381777494178e-09  6.0266681210846130e-09  6.0227243307371235e-09  6.0180991331566041e-09  6.0129023119548155e-09  6.0072590078875827e-09  6.0013073550048793e-09  5.9951954981148152e-09  5.9890780610013755e-09  5.9831122075342413e-09  5.9774534547649641e-09  5.9722511932119147e-09  5.9676442019716040e-09  5.9637562795399090e-09  5.9606852338216121e-09  5.9583868768322150e-09  5.9547284029005424e-09  2.1890771811948955e-08  2.1899502406159290e-08  5.9617054240839213e-09  5.9659883356616313e-09  5.9683059414280075e-09  5.9713839072003972e-09  5.9752783476008710e-09  5.9798883512188742e-09  5.9850876021931223e-09  5.9907351043162694e-09  5.9966797642188049e-09  6.0027651695202643e-09  6.0088340330321279e-09  6.0147325822033609e-09  6.0203143903570266e-09  6.0254436650156841e-09  6.0299980561586784e-09  6.0338709942673586e-09  6.0369732922308495e-09  6.0392345629636240e-09  6.0406040370495739e-09  6.0410511759935667e-09  6.0405660885902205e-09  6.0391595490033226e-09  6.0368629916815548e-09  6.0337280642656741e-09  6.0298259412861618e-09  6.0252465506183938e-09  6.0200971486032516e-09  6.0145004871720450e-09  6.0085925684030111e-09  6.0025198949022356e-09  5.9964360325890182e-09  5.9904976100986941e-09  5.9848601958032673e-09  5.9796736978286706e-09  5.9750777038069438e-09  5.9711968743127921e-09  5.9681272102747984e-09  5.9657734802504276e-09  5.9611065024913138e-09  2.1896125311705110e-08  2.1906896156282283e-08  5.9697249105252743e-09  5.9751633555530460e-09  5.9775361074726479e-09  5.9806072719283062e-09  5.9844872367628038e-09  5.9890764754158178e-09  5.9942476173960220e-09  5.9998587463467200e-09  6.0057583317155506e-09  6.0117902283655680e-09  6.0177981561523393e-09  6.0236301051884940e-09  6.0291420376988627e-09  6.0342012438122300e-09  6.0386886183014111e-09  6.0425008640129123e-09  6.0455519708322222e-09  6.0477741811158411e-09  6.0491188049079818e-09  6.0495565745668949e-09  6.0490779842535220e-09  6.0476932883639317e-09  6.0454325327958049e-09  6.0423452577913900e-09  6.0384998970772265e-09  6.0339832330629220e-09  6.0288991682767027e-09  6.0233672797192379e-09  6.0175207397665102e-09  6.0115037223243963e-09  6.0054681742851147e-09  5.9995699119471327e-09  5.9939643986364126e-09  5.9888020995605591e-09  5.9842235772727331e-09  5.9803545642275389e-09  5.9772888915378908e-09  5.9748687768518710e-09  5.9689630620313422e-09  2.1902740351869008e-08  2.1915872380355825e-08  5.9794864021006728e-09  5.9863350409927971e-09  5.9887729779886175e-09  5.9918322358018975e-09  5.9956895893010928e-09  6.0002471161144512e-09  6.0053761506127711e-09  6.0109337632197371e-09  6.0167681031287535e-09  6.0227235792236971e-09  6.0286456027211340e-09  6.0343847099855844e-09  6.0398002963286935e-09  6.0447636270917644e-09  6.0491600202284610e-09  6.0528904632704581e-09  6.0558729433471698e-09  6.0580431159916496e-09  6.0593548212871809e-09  6.0597803812931852e-09  6.0593107798987614e-09  6.0579556425586198e-09  6.0557432515730368e-09  6.0527204545643246e-09  6.0489521955767466e-09  6.0445211982339290e-09  6.0395270456306926e-09  6.0340850256326731e-09  6.0283244417608025e-09  6.0223861941606930e-09  6.0164198407290397e-09  6.0105798519825990e-09  6.0050213299604628e-09  5.9998952715076766e-09  5.9953434070214130e-09  5.9914928488162115e-09  5.9884349530834970e-09  5.9859361084118711e-09  5.9785249247340727e-09  2.1910805120394372e-08  2.1926694848431908e-08  5.9912801812281473e-09  5.9998364893113814e-09  6.0023507852179746e-09  6.0053911666213487e-09  6.0092146780710846e-09  6.0137251853658856e-09  6.0187922765900715e-09  6.0242719585116129e-09  6.0300122960263342e-09  6.0358589651838687e-09  6.0416599121839853e-09  6.0472695443115941e-09  6.0525521204239124e-09  6.0573843296684359e-09  6.0616572235592146e-09  6.0652774179169223e-09  6.0681679958033760e-09  6.0702688630713169e-09  6.0715370083809230e-09  6.0719467475124347e-09  6.0714895856014019e-09  6.0701743774984689e-09  6.0680272569017359e-09  6.0650916687495196e-09  6.0614281620911303e-09  6.0571142470304308e-09  6.0522438844900022e-09  6.0469266493993636e-09  6.0412864857454625e-09  6.0354596545272117e-09  6.0295921618281889e-09  6.0238362332952660e-09  6.0183461157848891e-09  6.0132732050101561e-09  6.0087606578898224e-09  6.0049374613547188e-09  6.0018923340057938e-09  5.9993005047502223e-09  5.9900717910913433e-09  2.1920551523948992e-08  2.1939685872343204e-08  6.0054626989533238e-09  6.0160774997646346e-09  6.0186812566698941e-09  6.0216939696584371e-09  6.0254687944623475e-09  6.0299112669033009e-09  6.0348886623630555e-09  6.0402557834625274e-09  6.0458611470536765e-09  6.0515528280328622e-09  6.0571829971527704e-09  6.0626117843717745e-09  6.0677103308002037e-09  6.0723628167008795e-09  6.0764678984377680e-09  6.0799394229640138e-09  6.0827068558506185e-09  6.0847154102440122e-09  6.0859259675993712e-09  6.0863151372816417e-09  6.0858751961747279e-09  6.0846139436623743e-09  6.0825549157680255e-09  6.0797373353540099e-09  6.0762162691159433e-09  6.0720626341941524e-09  6.0673630578216385e-09  6.0622194426979825e-09  6.0567483402918511e-09  6.0510793532241188e-09  6.0453530594057506e-09  6.0397179484836407e-09  6.0343264695573078e-09  6.0293301123704827e-09  6.0248738052593248e-09  6.0210892420979007e-09  6.0180626726702766e-09  6.0153605714060309e-09  6.0039460638126098e-09  2.1932262931423086e-08  2.1955237116651131e-08  6.0224696661670905e-09  6.0355606327405514e-09  6.0382707521026794e-09  6.0412459476840216e-09  6.0449535718612468e-09  6.0492998212093391e-09  6.0541487898236679e-09  6.0593540624436099e-09  6.0647658601443113e-09  6.0702365298628100e-09  6.0756250935669268e-09  6.0808005091953013e-09  6.0856438401832518e-09  6.0900494666325626e-09  6.0939261095916037e-09  6.0971969150886196e-09  6.0997993027188539e-09  6.1016848669210947e-09  6.1028192367831820e-09  6.1031817707924703e-09  6.1027655315550228e-09  6.1015771651492652e-09  6.0996369743069472e-09  6.0969791723470733e-09  6.0936520651663778e-09  6.0897182348021955e-09  6.0852547977536154e-09  6.0803535001229942e-09  6.0751205534589825e-09  6.0696758329462233e-09  6.0641515571864311e-09  6.0586899520035881e-09  6.0534398584165289e-09  6.0485521277734977e-09  6.0441738567251060e-09  6.0404408826602874e-09  6.0374380672559070e-09  6.0346031882760565e-09  6.0205647374649604e-09  2.1946283375062931e-08  2.1973822123644630e-08  6.0428317541115542e-09  6.0589008191996872e-09  6.0617418498865261e-09  6.0646713290663975e-09  6.0682905019478500e-09  6.0725039054211150e-09  6.0771707066929551e-09  6.0821437119322580e-09  6.0872770991393426e-09  6.0924313753829472e-09  6.0974769687973252e-09  6.1022961758127582e-09  6.1067844124951501e-09  6.1108502664019529e-09  6.1144156133987637e-09  6.1174152442997192e-09  6.1197963187473636e-09  6.1215181709970331e-09  6.1225518105984045e-09  6.1228798304374583e-09  6.1224961391670478e-09  6.1214059858020489e-09  6.1196260429370185e-09  6.1171845789022617e-09  6.1141217100190516e-09  6.1104897235193343e-09  6.1063536124612861e-09  6.1017916056622122e-09  6.0968955255973561e-09  6.0917709074346289e-09  6.0865368578242276e-09  6.0813249531347508e-09  6.0762770110674805e-09  6.0715414927662054e-09  6.0672680030802958e-09  6.0635990035754925e-09  6.0606208769626357e-09  6.0576210346821722e-09  6.0404330369506366e-09  2.1963027978196841e-08  2.1996007919258116e-08  6.0671915238475042e-09  6.0868489117633446e-09  6.0898615102575433e-09  6.0927456245012423e-09  6.0962559974687415e-09  6.1002902855507478e-09  6.1047000882521430e-09  6.1093389130102300e-09  6.1140698462481951e-09  6.1187685364871270e-09  6.1233243745871732e-09  6.1276407480115744e-09  6.1316336566953477e-09  6.1352310158114301e-09  6.1383718820417356e-09  6.1410053468934043e-09  6.1430901154925566e-09  6.1445942915993095e-09  6.1454950226895778e-09  6.1457782845913281e-09  6.1454390657032844e-09  6.1444809609429689e-09  6.1429166336669870e-09  6.1407676288104440e-09  6.1380645265302539e-09  6.1348473030864666e-09  6.1311658308471197e-09  6.1270804887789625e-09  6.1226631274675337e-09  6.1179981552046990e-09  6.1131839124596509e-09  6.1083335817210940e-09  6.1035753376006924e-09  6.0990511706785189e-09  6.0949129708087967e-09  6.0913140305817000e-09  6.0883488313726966e-09  6.0851326922120347e-09  6.0641586920995350e-09  2.1982993499929023e-08  2.2022463513262608e-08  6.0963195304117722e-09  6.1203182307833669e-09  6.1235776471419745e-09  6.1264410515645721e-09  6.1298323076803360e-09  6.1336311205506253e-09  6.1376780825705799e-09  6.1418322515306323e-09  6.1459758300859517e-09  6.1500129508641602e-09  6.1538653237710376e-09  6.1574686283892537e-09  6.1607689350757531e-09  6.1637199594476283e-09  6.1662823777420978e-09  6.1684222990575253e-09  6.1701113857036091e-09  6.1713271714043716e-09  6.1720530713801093e-09  6.1722785722940859e-09  6.1719995830699650e-09  6.1712181890998303e-09  6.1699427993230974e-09  6.1681879335155375e-09  6.1659736941809857e-09  6.1633260412971104e-09  6.1602765887702935e-09  6.1568628162826130e-09  6.1531292316987510e-09  6.1491292232576139e-09  6.1449280814846878e-09  6.1406069793241969e-09  6.1362675752615305e-09  6.1320360211380619e-09  6.1280639249750618e-09  6.1245219044512558e-09  6.1215263745221189e-09  6.1180037188646563e-09  6.0924638359442185e-09  2.2006766369906095e-08  2.2053953520285271e-08  6.1311219324743155e-09  6.1604114545737693e-09  6.1640679701497913e-09  6.1669946637598747e-09  6.1702863072801963e-09  6.1737835878042816e-09  6.1773132087761301e-09  6.1807532505482363e-09  6.1840278174704937e-09  6.1870939258576655e-09  6.1899282074128434e-09  6.1925163518055857e-09  6.1948468248656648e-09  6.1969070905922691e-09  6.1986832709985950e-09  6.2001605421447695e-09  6.2013237095999283e-09  6.2021594147524852e-09  6.2026566466582548e-09  6.2028078915134447e-09  6.2026097977858409e-09  6.2020631633137972e-09  6.2011725925632410e-09  6.1999460529674164e-09  6.1983934983968032e-09  6.1965260940757708e-09  6.1943547195351247e-09  6.1918888763079966e-09  6.1891368294449967e-09  6.1861070311748724e-09  6.1828125062571983e-09  6.1792787690680200e-09  6.1755557397028058e-09  6.1717324707262979e-09  6.1679504024588226e-09  6.1644059204226329e-09  6.1612648083295092e-09  6.1572639067390155e-09  6.1261865733657923e-09  2.2035021695444531e-08  2.2091295263418479e-08  6.1726216473468648e-09  6.2084397444906227e-09  6.2128090538068567e-09  6.2160185798353064e-09  6.2193001880067346e-09  6.2224184634551188e-09  6.2251918532508896e-09  6.2275533532621459e-09  6.2295173016335289e-09  6.2311402536620036e-09  6.2324903385269569e-09  6.2336288542732876e-09  6.2346016012699824e-09  6.2354375493914661e-09  6.2361505083511488e-09  6.2367437031905606e-09  6.2372131484880958e-09  6.2375518469130740e-09  6.2377523792829206e-09  6.2378087566237393e-09  6.2377180317777658e-09  6.2374802191084585e-09  6.2370976711400634e-09  6.2365739053741516e-09  6.2359110584416645e-09  6.2351072065492789e-09  6.2341525246828945e-09  6.2330250939212391e-09  6.2316876853778354e-09  6.2300860363364606e-09  6.2281522718583016e-09  6.2258160078492772e-09  6.2230267674172026e-09  6.2197889109137922e-09  6.2162032449899543e-09  6.2124967267123768e-09  6.2089356731996928e-09  6.2041096452120990e-09  6.1662533573046783e-09  2.2068497869744874e-08  2.2135219204137319e-08  6.2218689074781981e-09  6.2659188721590704e-09  6.2716863146242041e-09  6.2756967221864113e-09  6.2792031888614975e-09  6.2818379578857676e-09  6.2834522779341856e-09  6.2841272069705437e-09  6.2840688028093633e-09  6.2835171920741615e-09  6.2826896237301874e-09  6.2817558289696538e-09  6.2808338062216821e-09  6.2799966283122272e-09  6.2792829530620021e-09  6.2787077229717029e-09  6.2782715281498477e-09  6.2779675018233547e-09  6.2777871923823250e-09  6.2777235690477771e-09  6.2777732012235297e-09  6.2779365054475266e-09  6.2782167438477768e-09  6.2786177394069316e-09  6.2791397891620201e-09  6.2797742559363707e-09  6.2804960952375953e-09  6.2812540203065016e-09  6.2819596243596708e-09  6.2824771593543063e-09  6.2826187010782406e-09  6.2821528486879951e-09  6.2808383700461447e-09  6.2784912262474097e-09  6.2750835371084250e-09  6.2708509249231239e-09  6.2662500775299505e-09  6.2598674674374506e-09  6.2135781682798732e-09  2.2107910275480700e-08  2.2185986742478267e-08  6.2796818234130810e-09  6.3345055483341928e-09  6.3432032251889164e-09  6.3491766935156646e-09  6.3534102376277652e-09  6.3553570744386725e-09  6.3550604122773603e-09  6.3529811016966033e-09  6.3497237205150803e-09  6.3458546117735439e-09  6.3418198116369707e-09  6.3379305039968288e-09  6.3343815125523623e-09  6.3312801973219917e-09  6.3286744732498868e-09  6.3265751577956466e-09  6.3249728506620944e-09  6.3238496220191568e-09  6.3231875211242341e-09  6.3229738046048621e-09  6.3232033780135320e-09  6.3238792850596074e-09  6.3250111304948808e-09  6.3266116401392548e-09  6.3286908333000993e-09  6.3312476990007792e-09  6.3342577805287062e-09  6.3376549011210790e-09  6.3413067232319181e-09  6.3449855196347757e-09  6.3483396923996080e-09  6.3508836317594030e-09  6.3520242353719683e-09  6.3511637739581468e-09  6.3479149446125009e-09  6.3424116225449882e-09  6.3354186010872549e-09  6.3258690964576035e-09  6.2687753304506989e-09  2.2153713933725706e-08  2.2242515668068988e-08  6.3459595583473638e-09  6.4158457494289681e-09  6.4310046025423343e-09  6.4414520540944941e-09  6.4473175428082031e-09  6.4479967970882679e-09  6.4442457416966860e-09  6.437454398