<?xml version="1.0"?>
<VTKFile type="UnstructuredGrid"  version="0.1"  >
<UnstructuredGrid>
<Piece  NumberOfPoints="1681" NumberOfCells="3200">
<Points>
<DataArray  type="Float64"  NumberOfComponents="3"  format="ascii">0 0 0  0.025 0 0  0.05 0 0  0.075 0 0  0.1 0 0  0.125 0 0  0.15 0 0  0.175 0 0  0.2 0 0  0.225 0 0  0.25 0 0  0.275 0 0  0.3 0 0  0.325 0 0  0.35 0 0  0.375 0 0  0.4 0 0  0.425 0 0  0.45 0 0  0.475 0 0  0.5 0 0  0.525 0 0  0.55 0 0  0.575 0 0  0.6 0 0  0.625 0 0  0.65 0 0  0.675 0 0  0.7 0 0  0.725 0 0  0.75 0 0  0.775 0 0  0.8 0 0  0.825 0 0  0.85 0 0  0.875 0 0  0.9 0 0  0.925 0 0  0.95 0 0  0.975 0 0  1 0 0  0 0.025 0  0.025 0.025 0  0.05 0.025 0  0.075 0.025 0  0.1 0.025 0  0.125 0.025 0  0.15 0.025 0  0.175 0.025 0  0.2 0.025 0  0.225 0.025 0  0.25 0.025 0  0.275 0.025 0  0.3 0.025 0  0.325 0.025 0  0.35 0.025 0  0.375 0.025 0  0.4 0.025 0  0.425 0.025 0  0.45 0.025 0  0.475 0.025 0  0.5 0.025 0  0.525 0.025 0  0.55 0.025 0  0.575 0.025 0  0.6 0.025 0  0.625 0.025 0  0.65 0.025 0  0.675 0.025 0  0.7 0.025 0  0.725 0.025 0  0.75 0.025 0  0.775 0.025 0  0.8 0.025 0  0.825 0.025 0  0.85 0.025 0  0.875 0.025 0  0.9 0.025 0  0.925 0.025 0  0.95 0.025 0  0.975 0.025 0  1 0.025 0  0 0.05 0  0.025 0.05 0  0.05 0.05 0  0.075 0.05 0  0.1 0.05 0  0.125 0.05 0  0.15 0.05 0  0.175 0.05 0  0.2 0.05 0  0.225 0.05 0  0.25 0.05 0  0.275 0.05 0  0.3 0.05 0  0.325 0.05 0  0.35 0.05 0  0.375 0.05 0  0.4 0.05 0  0.425 0.05 0  0.45 0.05 0  0.475 0.05 0  0.5 0.05 0  0.525 0.05 0  0.55 0.05 0  0.575 0.05 0  0.6 0.05 0  0.625 0.05 0  0.65 0.05 0  0.675 0.05 0  0.7 0.05 0  0.725 0.05 0  0.75 0.05 0  0.775 0.05 0  0.8 0.05 0  0.825 0.05 0  0.85 0.05 0  0.875 0.05 0  0.9 0.05 0  0.925 0.05 0  0.95 0.05 0  0.975 0.05 0  1 0.05 0  0 0.075 0  0.025 0.075 0  0.05 0.075 0  0.075 0.075 0  0.1 0.075 0  0.125 0.075 0  0.15 0.075 0  0.175 0.075 0  0.2 0.075 0  0.225 0.075 0  0.25 0.075 0  0.275 0.075 0  0.3 0.075 0  0.325 0.075 0  0.35 0.075 0  0.375 0.075 0  0.4 0.075 0  0.425 0.075 0  0.45 0.075 0  0.475 0.075 0  0.5 0.075 0  0.525 0.075 0  0.55 0.075 0  0.575 0.075 0  0.6 0.075 0  0.625 0.075 0  0.65 0.075 0  0.675 0.075 0  0.7 0.075 0  0.725 0.075 0  0.75 0.075 0  0.775 0.075 0  0.8 0.075 0  0.825 0.075 0  0.85 0.075 0  0.875 0.075 0  0.9 0.075 0  0.925 0.075 0  0.95 0.075 0  0.975 0.075 0  1 0.075 0  0 0.1 0  0.025 0.1 0  0.05 0.1 0  0.075 0.1 0  0.1 0.1 0  0.125 0.1 0  0.15 0.1 0  0.175 0.1 0  0.2 0.1 0  0.225 0.1 0  0.25 0.1 0  0.275 0.1 0  0.3 0.1 0  0.325 0.1 0  0.35 0.1 0  0.375 0.1 0  0.4 0.1 0  0.425 0.1 0  0.45 0.1 0  0.475 0.1 0  0.5 0.1 0  0.525 0.1 0  0.55 0.1 0  0.575 0.1 0  0.6 0.1 0  0.625 0.1 0  0.65 0.1 0  0.675 0.1 0  0.7 0.1 0  0.725 0.1 0  0.75 0.1 0  0.775 0.1 0  0.8 0.1 0  0.825 0.1 0  0.85 0.1 0  0.875 0.1 0  0.9 0.1 0  0.925 0.1 0  0.95 0.1 0  0.975 0.1 0  1 0.1 0  0 0.125 0  0.025 0.125 0  0.05 0.125 0  0.075 0.125 0  0.1 0.125 0  0.125 0.125 0  0.15 0.125 0  0.175 0.125 0  0.2 0.125 0  0.225 0.125 0  0.25 0.125 0  0.275 0.125 0  0.3 0.125 0  0.325 0.125 0  0.35 0.125 0  0.375 0.125 0  0.4 0.125 0  0.425 0.125 0  0.45 0.125 0  0.475 0.125 0  0.5 0.125 0  0.525 0.125 0  0.55 0.125 0  0.575 0.125 0  0.6 0.125 0  0.625 0.125 0  0.65 0.125 0  0.675 0.125 0  0.7 0.125 0  0.725 0.125 0  0.75 0.125 0  0.775 0.125 0  0.8 0.125 0  0.825 0.125 0  0.85 0.125 0  0.875 0.125 0  0.9 0.125 0  0.925 0.125 0  0.95 0.125 0  0.975 0.125 0  1 0.125 0  0 0.15 0  0.025 0.15 0  0.05 0.15 0  0.075 0.15 0  0.1 0.15 0  0.125 0.15 0  0.15 0.15 0  0.175 0.15 0  0.2 0.15 0  0.225 0.15 0  0.25 0.15 0  0.275 0.15 0  0.3 0.15 0  0.325 0.15 0  0.35 0.15 0  0.375 0.15 0  0.4 0.15 0  0.425 0.15 0  0.45 0.15 0  0.475 0.15 0  0.5 0.15 0  0.525 0.15 0  0.55 0.15 0  0.575 0.15 0  0.6 0.15 0  0.625 0.15 0  0.65 0.15 0  0.675 0.15 0  0.7 0.15 0  0.725 0.15 0  0.75 0.15 0  0.775 0.15 0  0.8 0.15 0  0.825 0.15 0  0.85 0.15 0  0.875 0.15 0  0.9 0.15 0  0.925 0.15 0  0.95 0.15 0  0.975 0.15 0  1 0.15 0  0 0.175 0  0.025 0.175 0  0.05 0.175 0  0.075 0.175 0  0.1 0.175 0  0.125 0.175 0  0.15 0.175 0  0.175 0.175 0  0.2 0.175 0  0.225 0.175 0  0.25 0.175 0  0.275 0.175 0  0.3 0.175 0  0.325 0.175 0  0.35 0.175 0  0.375 0.175 0  0.4 0.175 0  0.425 0.175 0  0.45 0.175 0  0.475 0.175 0  0.5 0.175 0  0.525 0.175 0  0.55 0.175 0  0.575 0.175 0  0.6 0.175 0  0.625 0.175 0  0.65 0.175 0  0.675 0.175 0  0.7 0.175 0  0.725 0.175 0  0.75 0.175 0  0.775 0.175 0  0.8 0.175 0  0.825 0.175 0  0.85 0.175 0  0.875 0.175 0  0.9 0.175 0  0.925 0.175 0  0.95 0.175 0  0.975 0.175 0  1 0.175 0  0 0.2 0  0.025 0.2 0  0.05 0.2 0  0.075 0.2 0  0.1 0.2 0  0.125 0.2 0  0.15 0.2 0  0.175 0.2 0  0.2 0.2 0  0.225 0.2 0  0.25 0.2 0  0.275 0.2 0  0.3 0.2 0  0.325 0.2 0  0.35 0.2 0  0.375 0.2 0  0.4 0.2 0  0.425 0.2 0  0.45 0.2 0  0.475 0.2 0  0.5 0.2 0  0.525 0.2 0  0.55 0.2 0  0.575 0.2 0  0.6 0.2 0  0.625 0.2 0  0.65 0.2 0  0.675 0.2 0  0.7 0.2 0  0.725 0.2 0  0.75 0.2 0  0.775 0.2 0  0.8 0.2 0  0.825 0.2 0  0.85 0.2 0  0.875 0.2 0  0.9 0.2 0  0.925 0.2 0  0.95 0.2 0  0.975 0.2 0  1 0.2 0  0 0.225 0  0.025 0.225 0  0.05 0.225 0  0.075 0.225 0  0.1 0.225 0  0.125 0.225 0  0.15 0.225 0  0.175 0.225 0  0.2 0.225 0  0.225 0.225 0  0.25 0.225 0  0.275 0.225 0  0.3 0.225 0  0.325 0.225 0  0.35 0.225 0  0.375 0.225 0  0.4 0.225 0  0.425 0.225 0  0.45 0.225 0  0.475 0.225 0  0.5 0.225 0  0.525 0.225 0  0.55 0.225 0  0.575 0.225 0  0.6 0.225 0  0.625 0.225 0  0.65 0.225 0  0.675 0.225 0  0.7 0.225 0  0.725 0.225 0  0.75 0.225 0  0.775 0.225 0  0.8 0.225 0  0.825 0.225 0  0.85 0.225 0  0.875 0.225 0  0.9 0.225 0  0.925 0.225 0  0.95 0.225 0  0.975 0.225 0  1 0.225 0  0 0.25 0  0.025 0.25 0  0.05 0.25 0  0.075 0.25 0  0.1 0.25 0  0.125 0.25 0  0.15 0.25 0  0.175 0.25 0  0.2 0.25 0  0.225 0.25 0  0.25 0.25 0  0.275 0.25 0  0.3 0.25 0  0.325 0.25 0  0.35 0.25 0  0.375 0.25 0  0.4 0.25 0  0.425 0.25 0  0.45 0.25 0  0.475 0.25 0  0.5 0.25 0  0.525 0.25 0  0.55 0.25 0  0.575 0.25 0  0.6 0.25 0  0.625 0.25 0  0.65 0.25 0  0.675 0.25 0  0.7 0.25 0  0.725 0.25 0  0.75 0.25 0  0.775 0.25 0  0.8 0.25 0  0.825 0.25 0  0.85 0.25 0  0.875 0.25 0  0.9 0.25 0  0.925 0.25 0  0.95 0.25 0  0.975 0.25 0  1 0.25 0  0 0.275 0  0.025 0.275 0  0.05 0.275 0  0.075 0.275 0  0.1 0.275 0  0.125 0.275 0  0.15 0.275 0  0.175 0.275 0  0.2 0.275 0  0.225 0.275 0  0.25 0.275 0  0.275 0.275 0  0.3 0.275 0  0.325 0.275 0  0.35 0.275 0  0.375 0.275 0  0.4 0.275 0  0.425 0.275 0  0.45 0.275 0  0.475 0.275 0  0.5 0.275 0  0.525 0.275 0  0.55 0.275 0  0.575 0.275 0  0.6 0.275 0  0.625 0.275 0  0.65 0.275 0  0.675 0.275 0  0.7 0.275 0  0.725 0.275 0  0.75 0.275 0  0.775 0.275 0  0.8 0.275 0  0.825 0.275 0  0.85 0.275 0  0.875 0.275 0  0.9 0.275 0  0.925 0.275 0  0.95 0.275 0  0.975 0.275 0  1 0.275 0  0 0.3 0  0.025 0.3 0  0.05 0.3 0  0.075 0.3 0  0.1 0.3 0  0.125 0.3 0  0.15 0.3 0  0.175 0.3 0  0.2 0.3 0  0.225 0.3 0  0.25 0.3 0  0.275 0.3 0  0.3 0.3 0  0.325 0.3 0  0.35 0.3 0  0.375 0.3 0  0.4 0.3 0  0.425 0.3 0  0.45 0.3 0  0.475 0.3 0  0.5 0.3 0  0.525 0.3 0  0.55 0.3 0  0.575 0.3 0  0.6 0.3 0  0.625 0.3 0  0.65 0.3 0  0.675 0.3 0  0.7 0.3 0  0.725 0.3 0  0.75 0.3 0  0.775 0.3 0  0.8 0.3 0  0.825 0.3 0  0.85 0.3 0  0.875 0.3 0  0.9 0.3 0  0.925 0.3 0  0.95 0.3 0  0.975 0.3 0  1 0.3 0  0 0.325 0  0.025 0.325 0  0.05 0.325 0  0.075 0.325 0  0.1 0.325 0  0.125 0.325 0  0.15 0.325 0  0.175 0.325 0  0.2 0.325 0  0.225 0.325 0  0.25 0.325 0  0.275 0.325 0  0.3 0.325 0  0.325 0.325 0  0.35 0.325 0  0.375 0.325 0  0.4 0.325 0  0.425 0.325 0  0.45 0.325 0  0.475 0.325 0  0.5 0.325 0  0.525 0.325 0  0.55 0.325 0  0.575 0.325 0  0.6 0.325 0  0.625 0.325 0  0.65 0.325 0  0.675 0.325 0  0.7 0.325 0  0.725 0.325 0  0.75 0.325 0  0.775 0.325 0  0.8 0.325 0  0.825 0.325 0  0.85 0.325 0  0.875 0.325 0  0.9 0.325 0  0.925 0.325 0  0.95 0.325 0  0.975 0.325 0  1 0.325 0  0 0.35 0  0.025 0.35 0  0.05 0.35 0  0.075 0.35 0  0.1 0.35 0  0.125 0.35 0  0.15 0.35 0  0.175 0.35 0  0.2 0.35 0  0.225 0.35 0  0.25 0.35 0  0.275 0.35 0  0.3 0.35 0  0.325 0.35 0  0.35 0.35 0  0.375 0.35 0  0.4 0.35 0  0.425 0.35 0  0.45 0.35 0  0.475 0.35 0  0.5 0.35 0  0.525 0.35 0  0.55 0.35 0  0.575 0.35 0  0.6 0.35 0  0.625 0.35 0  0.65 0.35 0  0.675 0.35 0  0.7 0.35 0  0.725 0.35 0  0.75 0.35 0  0.775 0.35 0  0.8 0.35 0  0.825 0.35 0  0.85 0.35 0  0.875 0.35 0  0.9 0.35 0  0.925 0.35 0  0.95 0.35 0  0.975 0.35 0  1 0.35 0  0 0.375 0  0.025 0.375 0  0.05 0.375 0  0.075 0.375 0  0.1 0.375 0  0.125 0.375 0  0.15 0.375 0  0.175 0.375 0  0.2 0.375 0  0.225 0.375 0  0.25 0.375 0  0.275 0.375 0  0.3 0.375 0  0.325 0.375 0  0.35 0.375 0  0.375 0.375 0  0.4 0.375 0  0.425 0.375 0  0.45 0.375 0  0.475 0.375 0  0.5 0.375 0  0.525 0.375 0  0.55 0.375 0  0.575 0.375 0  0.6 0.375 0  0.625 0.375 0  0.65 0.375 0  0.675 0.375 0  0.7 0.375 0  0.725 0.375 0  0.75 0.375 0  0.775 0.375 0  0.8 0.375 0  0.825 0.375 0  0.85 0.375 0  0.875 0.375 0  0.9 0.375 0  0.925 0.375 0  0.95 0.375 0  0.975 0.375 0  1 0.375 0  0 0.4 0  0.025 0.4 0  0.05 0.4 0  0.075 0.4 0  0.1 0.4 0  0.125 0.4 0  0.15 0.4 0  0.175 0.4 0  0.2 0.4 0  0.225 0.4 0  0.25 0.4 0  0.275 0.4 0  0.3 0.4 0  0.325 0.4 0  0.35 0.4 0  0.375 0.4 0  0.4 0.4 0  0.425 0.4 0  0.45 0.4 0  0.475 0.4 0  0.5 0.4 0  0.525 0.4 0  0.55 0.4 0  0.575 0.4 0  0.6 0.4 0  0.625 0.4 0  0.65 0.4 0  0.675 0.4 0  0.7 0.4 0  0.725 0.4 0  0.75 0.4 0  0.775 0.4 0  0.8 0.4 0  0.825 0.4 0  0.85 0.4 0  0.875 0.4 0  0.9 0.4 0  0.925 0.4 0  0.95 0.4 0  0.975 0.4 0  1 0.4 0  0 0.425 0  0.025 0.425 0  0.05 0.425 0  0.075 0.425 0  0.1 0.425 0  0.125 0.425 0  0.15 0.425 0  0.175 0.425 0  0.2 0.425 0  0.225 0.425 0  0.25 0.425 0  0.275 0.425 0  0.3 0.425 0  0.325 0.425 0  0.35 0.425 0  0.375 0.425 0  0.4 0.425 0  0.425 0.425 0  0.45 0.425 0  0.475 0.425 0  0.5 0.425 0  0.525 0.425 0  0.55 0.425 0  0.575 0.425 0  0.6 0.425 0  0.625 0.425 0  0.65 0.425 0  0.675 0.425 0  0.7 0.425 0  0.725 0.425 0  0.75 0.425 0  0.775 0.425 0  0.8 0.425 0  0.825 0.425 0  0.85 0.425 0  0.875 0.425 0  0.9 0.425 0  0.925 0.425 0  0.95 0.425 0  0.975 0.425 0  1 0.425 0  0 0.45 0  0.02
[...]
<PointData  Scalars="ControlVisualisation"> 
<DataArray  type="Float64"  Name="ControlVisualisation"  format="ascii">3.7819857599834754e-08  2.1880276956226701e-08  2.1881374676984032e-08  2.1883210375058439e-08  2.1885728244081141e-08  2.1888861876117839e-08  2.1892527155364085e-08  2.1896626468006354e-08  2.1901051571965395e-08  2.1905686671981228e-08  2.1910411760961563e-08  2.1915105801839506e-08  2.1919649963565392e-08  2.1923930585758659e-08  2.1927841804748661e-08  2.1931288007516007e-08  2.1934185807594768e-08  2.1936465777544678e-08  2.1938073707270646e-08  2.1938971685955917e-08  2.1939138690187883e-08  2.1938570972794173e-08  2.1937282066390926e-08  2.1935302628369216e-08  2.1932679848173251e-08  2.1929476557841817e-08  2.1925770051664536e-08  2.1921650563259622e-08  2.1917219367106558e-08  2.1912586567610906e-08  2.1907868513835932e-08  2.1903184999623067e-08  2.1898656179103872e-08  2.1894399400543572e-08  2.1890525955063789e-08  2.1887137903351930e-08  2.1884325139207943e-08  2.1882162184932156e-08  2.1880712468643848e-08  2.1879990693988673e-08  8.5639553800137244e-08  2.1880279507513602e-08  5.9405285726552316e-09  5.9416044426122258e-09  5.9434978662926015e-09  5.9461783588983985e-09  5.9495743332418877e-09  5.9535946039621998e-09  5.9581324534329124e-09  5.9630682341304800e-09  5.9682728521445718e-09  5.9736114637469176e-09  5.9789471303177227e-09  5.9841444003990995e-09  5.9890728043410670e-09  5.9936099466896409e-09  5.9976443081893769e-09  6.0010777248880012e-09  6.0038274047398334e-09  6.0058275681069023e-09  6.0070306903667831e-09  6.0074083966341987e-09  6.0069519326476988e-09  6.0056723105077447e-09  6.0036001146362217e-09  6.0007849437570921e-09  5.9972944726864931e-09  5.9932131157924913e-09  5.9886403691479121e-09  5.9836886887342509e-09  5.9784810188923967e-09  5.9731479483016840e-09  5.9678245425257949e-09  5.9626469316055746e-09  5.9577487243908154e-09  5.9532573926709711e-09  5.9492906576714219e-09  5.9459532108458482e-09  5.9433336118966500e-09  5.9414996915839763e-09  5.9404438812649619e-09  2.1879991079375370e-08  2.1881404622844289e-08  5.9416263870934550e-09  5.9429726851393556e-09  5.9451304844683165e-09  5.9481908646688845e-09  5.9520764167736260e-09  5.9566832484957091e-09  5.9618889645881367e-09  5.9675561844112561e-09  5.9735366279496857e-09  5.9796752613418906e-09  5.9858145894164956e-09  5.9917987513185511e-09  5.9974775049357361e-09  6.0027098482918276e-09  6.0073672443282741e-09  6.0113364242048314e-09  6.0145217371256395e-09  6.0168470621707520e-09  6.0182572097428598e-09  6.0187189399836515e-09  6.0182215363470730e-09  6.0167769922836070e-09  6.0144197845722386e-09  6.0112062443776050e-09  6.0072135066103310e-09  6.0025380257452372e-09  5.9972936508984703e-09  5.9916092369993218e-09  5.9856258087571705e-09  5.9794933347369372e-09  5.9733670607708283e-09  5.9674036041675959e-09  5.9617568470495842e-09  5.9565737331366508e-09  5.9519901466496119e-09  5.9481271878073583e-09  5.9450861981594328e-09  5.9429363464684229e-09  5.9415183041296147e-09  2.1880722117758623e-08  2.1883353629185822e-08  5.9436208626760458e-09  5.9452424592365609e-09  5.9474262545761514e-09  5.9505073179661205e-09  5.9544184402092538e-09  5.9590556745773502e-09  5.9642954120263619e-09  5.9699990450982406e-09  5.9760170462471913e-09  5.9821931934574313e-09  5.9883688979395094e-09  5.9943874074273697e-09  6.0000977552354971e-09  6.0053583718278082e-09  6.0100403789579333e-09  6.0140302854723665e-09  6.0172323112129641e-09  6.0195702725345818e-09  6.0209889659711706e-09  6.0214551054881449e-09  6.0209579111401629e-09  6.0195093073192276e-09  6.0171436476491946e-09  6.0139171705038902e-09  6.0099069522759112e-09  6.0052094656173094e-09  5.9999387091757841e-09  5.9942238557182475e-09  5.9882064340262780e-09  5.9820371342435060e-09  5.9758721205651483e-09  5.9698691127418450e-09  5.9641832176146202e-09  5.9589626826616917e-09  5.9543446944934526e-09  5.9504514658651979e-09  5.9473843143075391e-09  5.9451961297796701e-09  5.9434442206473843e-09  2.1882229629049968e-08  2.1886174507846400e-08  5.9465882674529812e-09  5.9486245046924445e-09  5.9508303141376808e-09  5.9539130523225034e-09  5.9578242629571074e-09  5.9624605318834636e-09  5.9676977336057175e-09  5.9733968301031157e-09  5.9794079528389561e-09  5.9855747366091220e-09  5.9917386594476734e-09  5.9977432936699460e-09  6.0034382511587766e-09  6.0086827304053428e-09  6.0133487226742921e-09  6.0173237395818736e-09  6.0205129432633468e-09  6.0228409921353737e-09  6.0242533103508869e-09  6.0247170264912467e-09  6.0242214951821115e-09  6.0227784471196091e-09  6.0204218336536430e-09  6.0172071918123952e-09  6.0132107550373281e-09  6.0085280512516636e-09  6.0032721163914407e-09  5.9975712613310922e-09  5.9915662884102342e-09  5.9854073700635134e-09  5.9792503919055014e-09  5.9732530344427969e-09  5.9675705834807562e-09  5.9623516238280157e-09  5.9577337815629935e-09  5.9538396622845793e-09  5.9507696843061504e-09  5.9485526557277556e-09  5.9463306094340291e-09  2.1884579185189942e-08  2.1889947569450204e-08  5.9506124414181479e-09  5.9532186917987009e-09  5.9554534669872110e-09  5.9585363279061093e-09  5.9624450669241198e-09  5.9670768204654776e-09  5.9723068825973630e-09  5.9779956804716464e-09  5.9839929844669240e-09  5.9901423386792840e-09  5.9962854562532641e-09  6.0022664638681928e-09  6.0079358722108013e-09  6.0131540630881944e-09  6.0177943779837719e-09  6.0217457380240122e-09  6.0249146904925501e-09  6.0272271101312316e-09  6.0286293511218148e-09  6.0290891040278055e-09  6.0285959499408433e-09  6.0271613689228278e-09  6.0248186751593835e-09  6.0216224683536527e-09  6.0176477443849391e-09  6.0129886742761557e-09  6.0077568968101188e-09  6.0020794107921074e-09  5.9960959331582491e-09  5.9899557796508302e-09  5.9838143429503917e-09  5.9778291281012510e-09  5.9721555519478966e-09  5.9669425758684802e-09  5.9623283445095617e-09  5.9584359854994555e-09  5.9553647629993359e-09  5.9531114473892248e-09  5.9502599992130300e-09  2.1887830348834690e-08  2.1894778871220311e-08  5.9558069102419727e-09  5.9591551688101149e-09  5.9614271841517638e-09  5.9645089142977000e-09  5.9684126879172215e-09  5.9730364728986920e-09  5.9782548328612313e-09  5.9839275331726789e-09  5.9899039236450945e-09  5.9960274983437884e-09  6.0021403620147800e-09  6.0080874718576543e-09  6.0137206011178514e-09  6.0189017560605151e-09  6.0235061293848026e-09  6.0274245578596680e-09  6.0305654343389845e-09  6.0328562502696227e-09  6.0342446086677931e-09  6.0346989769313620e-09  6.0342091546661955e-09  6.0327863556586614e-09  6.0304630286421027e-09  6.0272925096973350e-09  6.0233481588207378e-09  6.0187223061815720e-09  6.0135247071185468e-09  6.0078805592404999e-09  6.0019280493053933e-09  5.9958153067978996e-09  5.9896969710683410e-09  5.9837302604241359e-09  5.9780706967943799e-09  5.9728676920911855e-09  5.9682600477325278e-09  5.9643715751235364e-09  5.9613000923412630e-09  5.9590014081421772e-09  5.9553424004595445e-09  2.1892073773010594e-08  2.1900805497999955e-08  5.9623202523536078e-09  5.9666037660902172e-09  5.9689216865955359e-09  5.9720000800834261e-09  5.9758950649463005e-09  5.9805057094551148e-09  5.9857056913762379e-09  5.9913539881556662e-09  5.9972995100394442e-09  6.0033857865683295e-09  6.0094555470211289e-09  6.0153549869310346e-09  6.0209376048634487e-09  6.0260676344678432e-09  6.0306227378839812e-09  6.0344962818442812e-09  6.0375990845662900e-09  6.0398607214384379e-09  6.0412304173821136e-09  6.0416776393079480e-09  6.0411924912527680e-09  6.0397857821294695e-09  6.0374889040538038e-09  6.0343535023663559e-09  6.0304508225115523e-09  6.0258707701292804e-09  6.0207205854466679e-09  6.0151230740053868e-09  6.0092143002040513e-09  6.0031407539416995e-09  5.9970559845699866e-09  5.9911167025137809e-09  5.9854784835678096e-09  5.9802912452269716e-09  5.9756945983797106e-09  5.9718132157736465e-09  5.9687431171283731e-09  5.9663890539842298e-09  5.9617213956444023e-09  2.1897428047908529e-08  2.1908200266317158e-08  5.9703408127800531e-09  5.9757800173883947e-09  5.9781531012556980e-09  5.9812246843682621e-09  5.9851051941463943e-09  5.9896950849129054e-09  5.9948669468408954e-09  6.0004788595126759e-09  6.0063793150054950e-09  6.0124120989508225e-09  6.0184209124752244e-09  6.0242537391063942e-09  6.0297665410929027e-09  6.0348264830733362e-09  6.0393145462148634e-09  6.0431274067962962e-09  6.0461790127666237e-09  6.0484016125463889e-09  6.0497464644655392e-09  6.0501843264543978e-09  6.0497056732334264e-09  6.0483207985589475e-09  6.0460597386660556e-09  6.0429719874046723e-09  6.0391260540023018e-09  6.0346087114342534e-09  6.0295238781240669e-09  6.0239911610173141e-09  6.0181437643290736e-09  6.0121258653399378e-09  6.0060894146010196e-09  6.0001902910304110e-09  5.9945839783081610e-09  5.9894209393659597e-09  5.9848417612440434e-09  5.9809721917180247e-09  5.9779060899296986e-09  5.9754856341016547e-09  5.9695790519632235e-09  2.1904044041073229e-08  2.1917177704397195e-08  5.9801035832070536e-09  5.9869531856403026e-09  5.9893914635401341e-09  5.9924511434073175e-09  5.9963090293235068e-09  6.0008672205280247e-09  6.0059969854022284e-09  6.0115553787042691e-09  6.0173905750772663e-09  6.0233469647097770e-09  6.0292698669166092e-09  6.0350098371142530e-09  6.0404262960977970e-09  6.0453904031898319e-09  6.0497874793511380e-09  6.0535185424437005e-09  6.0565015198836716e-09  6.0586720725121558e-09  6.0599840202832677e-09  6.0604096843442794e-09  6.0599400411909749e-09  6.0585847085820946e-09  6.0563720107947426e-09  6.0533487358885320e-09  6.0495799033517736e-09  6.0451482248917537e-09  6.0401533097706242e-09  6.0347104729473016e-09  6.0289490245224004e-09  6.0230098877814697e-09  6.0170426383935093e-09  6.0112017895864850e-09  6.0056424724045834e-09  6.0005156769998127e-09  5.9959631599829188e-09  5.9921120491687969e-09  5.9890537217622712e-09  5.9865545237737113e-09  5.9791422494965365e-09  2.1912109965327643e-08  2.1928001636213544e-08  5.9918989062829612e-09  6.0004564077726008e-09  6.0029710479777989e-09  6.0060118604181973e-09  6.0098359049294037e-09  6.0143470517542126e-09  6.0194148979449086e-09  6.0248953710058694e-09  6.0306365854398679e-09  6.0364841598072915e-09  6.0422860006768494e-09  6.0478965004209347e-09  6.0531799212627181e-09  6.0580129187330935e-09  6.0622865148292030e-09  6.0659073486260751e-09  6.0687984236777182e-09  6.0708996564656065e-09  6.0721680730897620e-09  6.0725779003399848e-09  6.0721207103518040e-09  6.0708053194747468e-09  6.0686578808886088e-09  6.0657218218568342e-09  6.0620577304951152e-09  6.0577431364727006e-09  6.0528720188992955e-09  6.0475539711144674e-09  6.0419129360075757e-09  6.0360852191788642e-09  6.0302168365655154e-09  6.0244600515389002e-09  6.0189691353437410e-09  6.0138954896462315e-09  6.0093822982088377e-09  6.0055585578902708e-09  6.0025129919067064e-09  5.9999207854063779e-09  5.9906907160046978e-09  2.1921857764508347e-08  2.1940994383082326e-08  6.0060832510701949e-09  6.0166995453972109e-09  6.0193036745457534e-09  6.0223168123097728e-09  6.0260921905795486e-09  6.0305352834191939e-09  6.0355134094367368e-09  6.0408812975480104e-09  6.0464875628958648e-09  6.0521801809457777e-09  6.0578112587448300e-09  6.0632409194916543e-09  6.0683402947679836e-09  6.0729935794214458e-09  6.0770993805368404e-09  6.0805715360729402e-09  6.0833394870030070e-09  6.0853484199269056e-09  6.0865592399188582e-09  6.0869485298894041e-09  6.0865085350809273e-09  6.0852471156425898e-09  6.0831877465253882e-09  6.0803697132487096e-09  6.0768480759262044e-09  6.0726937628227901e-09  6.0679934109532689e-09  6.0628489920356620e-09  6.0573770215163412e-09  6.0517071410744733e-09  6.0459799593358592e-09  6.0403440058032025e-09  6.0349517327797526e-09  6.0299546532920892e-09  6.0254977079529206e-09  6.0217125990153625e-09  6.0186855931324023e-09  6.0159831023499046e-09  6.0045669122805756e-09  2.1933570837594477e-08  2.1956547734480871e-08  6.0230924179087358e-09  6.0361851856511814e-09  6.0388957015201092e-09  6.0418713247805460e-09  6.0455794962447993e-09  6.0499263990804879e-09  6.0547760991846183e-09  6.0599821618104396e-09  6.0653947834758407e-09  6.0708663721853925e-09  6.0762558984644440e-09  6.0814322344541484e-09  6.0862763860853649e-09  6.0906828215034918e-09  6.0945602157779108e-09  6.0978316502846315e-09  6.1004345289832601e-09  6.1023205075449173e-09  6.1034551467381808e-09  6.1038178074220015e-09  6.1034015212446731e-09  6.1022129619206238e-09  6.1002724537895270e-09  6.0976142281725546e-09  6.0942865486639819e-09  6.0903520228353101e-09  6.0858878166511074e-09  6.0809856994557147e-09  6.0757518758252549e-09  6.0703062645242575e-09  6.0647811070926740e-09  6.0593186637537319e-09  6.0540677831066294e-09  6.0491793413721458e-09  6.0448004383555128e-09  6.0410669238899207e-09  6.0380636834880974e-09  6.0352284181288410e-09  6.0211879069198035e-09  2.1947593292087839e-08  2.1975135165094298e-08  6.0434571116797795e-09  6.0595283641896593e-09  6.0623698091301702e-09  6.0652997346820044e-09  6.0689194464761829e-09  6.0731335130639972e-09  6.0778010390249786e-09  6.0827748530974183e-09  6.0879090879376400e-09  6.0930642725009556e-09  6.0981107751798369e-09  6.1029309318751952e-09  6.1074200275075674e-09  6.1114867105522783e-09  6.1150528060164014e-09  6.1180530741723575e-09  6.1204346836325375e-09  6.1221569236262144e-09  6.1231908500532962e-09  6.1235189851331412e-09  6.1231352634713656e-09  6.1220449420932291e-09  6.1202647107069344e-09  6.1178228113858329e-09  6.1147593575946801e-09  6.1111266678889114e-09  6.1069897986660759e-09  6.1024269529893350e-09  6.0975299649504592e-09  6.0924044598096118e-09  6.0871695483638413e-09  6.0819568164805163e-09  6.0769081118096833e-09  6.0721718985761350e-09  6.0678977881218095e-09  6.0642282704046131e-09  6.0612497461596741e-09  6.0582494908364027e-09  6.0410589738072175e-09  2.1964340297839184e-08  2.1997323858069468e-08  6.0678199618079187e-09  6.0874800311061403e-09  6.0904930408769806e-09  6.0933776068099769e-09  6.0968885317004859e-09  6.1009234483793976e-09  6.1053339545272113e-09  6.1099736084605477e-09  6.1147053818765415e-09  6.1194049639388793e-09  6.1239618014775507e-09  6.1282791006787306e-09  6.1322729043356929e-09  6.1358711448449415e-09  6.1390127593122409e-09  6.1416468281006576e-09  6.1437321479356824e-09  6.1452367297956271e-09  6.1461377349496516e-09  6.1464211559288744e-09  6.1460819081505130e-09  6.1451236808308953e-09  6.1435590754076676e-09  6.1414096234254481e-09  6.1387059310247019e-09  6.1354880133227761e-09  6.1318057465364856e-09  6.1277195285387273e-09  6.1233012437726226e-09  6.1186353944462098e-09  6.1138203041007520e-09  6.1089691598981429e-09  6.1042101848322360e-09  6.0996853590989973e-09  6.0955465824704032e-09  6.0919471687563251e-09  6.0889816007472194e-09  6.0857650360795109e-09  6.0647879512232118e-09  2.1984308681499941e-08  2.2023782875775352e-08  6.0969516284739896e-09  6.1209536166855498e-09  6.1242134466074612e-09  6.1270772622256466e-09  6.1304690342413291e-09  6.1342684803773031e-09  6.1383161208140984e-09  6.1424710534291766e-09  6.1466155413164542e-09  6.1506535528045662e-09  6.1545069120350870e-09  6.1581112206626908e-09  6.1614124479097672e-09  6.1643644636364274e-09  6.1669276646380644e-09  6.1690681610553772e-09  6.1707577623384345e-09  6.1719739464264612e-09  6.1727001161452632e-09  6.1729258143101208e-09  6.1726468513918852e-09  6.1718653964209879e-09  6.1705897564862741e-09  6.1688343967642182e-09  6.1666195704804934e-09  6.1639712202806411e-09  6.1609208957325290e-09  6.1575061858552341e-09  6.1537716777477795e-09  6.1497708040320301e-09  6.1455688319613572e-09  6.1412469498401105e-09  6.1369068468016771e-09  6.1326746847990565e-09  6.1287020854660164e-09  6.1251596581569859e-09  6.1221638000948431e-09  6.1186407188630479e-09  6.0930971020207930e-09  2.2008084995490524e-08  2.2055276984955779e-08  6.1317583703789731e-09  6.1610518390769515e-09  6.1647088409069540e-09  6.1676359462812275e-09  6.1709280500218058e-09  6.1744258958716628e-09  6.1779561956021909e-09  6.1813969404719274e-09  6.1846723089513890e-09  6.1877393758748020e-09  6.1905747000961638e-09  6.1931639864658741e-09  6.1954954777221345e-09  6.1975567130903454e-09  6.1993337764804977e-09  6.2008116049681492e-09  6.2019752604411645e-09  6.2028112953313161e-09  6.2033087635393702e-09  6.2034602647083256e-09  6.2032623239733835e-09  6.2027156856906610e-09  6.2018249458105423e-09  6.2005979137067877e-09  6.1990447207916586e-09  6.1971765189543350e-09  6.1950041777062044e-09  6.1925373468238541e-09  6.1897843554126773e-09  6.1867536874265489e-09  6.1834583533391937e-09  6.1799238771913957e-09  6.1762002189926396e-09  6.1723764391102548e-09  6.1685939813627847e-09  6.1650491993294403e-09  6.1619078329293716e-09  6.1579065197341988e-09  6.1268246676556106e-09  2.2036344465978556e-08  2.2092623423842833e-08  6.1732631892513194e-09  6.2090860820915684e-09  6.2134559259146245e-09  6.2166658554643424e-09  6.2199479417423134e-09  6.2230666744299723e-09  6.2258406107794929e-09  6.2282027413724596e-09  6.2301674047193919e-09  6.2317912408746622e-09  6.2331424707388757e-09  6.2342822774476762e-09  6.2352564177204908e-09  6.2360934628946683e-09  6.2368073045095634e-09  6.2374009847618255e-09  6.2378707326925745e-09  6.2382096332871284e-09  6.2384103379505910e-09  6.2384670751311798e-09  6.2383767350667640e-09  6.2381391044614440e-09  6.2377565191618493e-09  6.2372322953310852e-09  6.2365686854545018e-09  6.2357638451348392e-09  6.2348080443904673e-09  6.2336795568575599e-09  6.2323411451905341e-09  6.2307385968843480e-09  6.2288040461235333e-09  6.2264670990393850e-09  6.2236773331828058e-09  6.2204391328499864e-09  6.2168532646792571e-09  6.2131466318590064e-09  6.2095854918986676e-09  6.2047590964523110e-09  6.1668973100571781e-09  2.2069825620355561e-08  2.2136552995958030e-08  6.2225164588618864e-09  6.2665722103946387e-09  6.2723403820356951e-09  6.2763512141479960e-09  6.2798580849610484e-09  6.2824932469619497e-09  6.2841078482445191e-09  6.2847831455691459e-09  6.2847253111225325e-09  6.2841745089679609e-09  6.2833481981949323e-09  6.2824160274398853e-09  6.2814958194511076e-09  6.2806602397841178e-09  6.2799475603361475e-09  6.2793726472243963e-09  6.2789362435313449e-09  6.2786320056689769e-09  6.2784517578056924e-09  6.2783886487924402e-09  6.2784390763551053e-09  6.2786030981295928e-09  6.2788836184238943e-09  6.2792841635499157e-09  6.2798051310323537e-09  6.2804382388229202e-09  6.2811586755666111e-09  6.2819153722360913e-09  6.2826199363088774e-09  6.2831365780077172e-09  6.2832773491012044e-09  6.2828108479456597e-09  6.2814959806855364e-09  6.2791487594207689e-09  6.2757412248368329e-09  6.2715088474889895e-09  6.2669081786289630e-09  6.2605252754803647e-09  6.2142292920369040e-09  2.2109244090376716e-08  2.2187327014819871e-08  6.2803365518440044e-09  6.3351673535960583e-09  6.3438659453121374e-09  6.3498400131147758e-09  6.3540738976696508e-09  6.3560208631893295e-09  6.3557240878007045e-09  6.3536445940659256e-09  6.3503872641219401e-09  6.3465187386422503e-09  6.3424854057539708e-09  6.3385984654079263e-09  6.3350522780834728e-09  6.3319534564143606e-09  6.3293490784904184e-09  6.3272495681245698e-09  6.3256460147810090e-09  6.3245215114886223e-09  6.3238590572380072e-09  6.3236462781345706e-09  6.3238776999410840e-09  6.3245554848536151e-09  6.3256882839557722e-09  6.3272882275735283e-09  6.3293656073051710e-09  6.3319202585662926e-09  6.3349283665702818e-09  6.3383240459940116e-09  6.3419748956805432e-09  6.3456528631456994e-09  6.3490062189524464e-09  6.3515494833223455e-09  6.3526898158389638e-09  6.3518297169173944e-09  6.3485817826369390e-09  6.3430794403997201e-09  6.3360870355269913e-09  6.3265372489546074e-09  6.2694352329406633e-09  2.2155055120773207e-08  2.2243863207595354e-08  6.3466224484643285e-09  6.4165176086625329e-09  6.4316780071833341e-09  6.4421263289876326e-09  6.4479921256009232e-09  6.4486711267795750e-09  6.4449192295710210e-09  6.438126576