<?xml version="1.0"?>
<VTKFile type="UnstructuredGrid"  version="0.1"  >
<UnstructuredGrid>
<Piece  NumberOfPoints="1681" NumberOfCells="3200">
<Points>
<DataArray  type="Float64"  NumberOfComponents="3"  format="ascii">0 0 0  0.025 0 0  0.05 0 0  0.075 0 0  0.1 0 0  0.125 0 0  0.15 0 0  0.175 0 0  0.2 0 0  0.225 0 0  0.25 0 0  0.275 0 0  0.3 0 0  0.325 0 0  0.35 0 0  0.375 0 0  0.4 0 0  0.425 0 0  0.45 0 0  0.475 0 0  0.5 0 0  0.525 0 0  0.55 0 0  0.575 0 0  0.6 0 0  0.625 0 0  0.65 0 0  0.675 0 0  0.7 0 0  0.725 0 0  0.75 0 0  0.775 0 0  0.8 0 0  0.825 0 0  0.85 0 0  0.875 0 0  0.9 0 0  0.925 0 0  0.95 0 0  0.975 0 0  1 0 0  0 0.025 0  0.025 0.025 0  0.05 0.025 0  0.075 0.025 0  0.1 0.025 0  0.125 0.025 0  0.15 0.025 0  0.175 0.025 0  0.2 0.025 0  0.225 0.025 0  0.25 0.025 0  0.275 0.025 0  0.3 0.025 0  0.325 0.025 0  0.35 0.025 0  0.375 0.025 0  0.4 0.025 0  0.425 0.025 0  0.45 0.025 0  0.475 0.025 0  0.5 0.025 0  0.525 0.025 0  0.55 0.025 0  0.575 0.025 0  0.6 0.025 0  0.625 0.025 0  0.65 0.025 0  0.675 0.025 0  0.7 0.025 0  0.725 0.025 0  0.75 0.025 0  0.775 0.025 0  0.8 0.025 0  0.825 0.025 0  0.85 0.025 0  0.875 0.025 0  0.9 0.025 0  0.925 0.025 0  0.95 0.025 0  0.975 0.025 0  1 0.025 0  0 0.05 0  0.025 0.05 0  0.05 0.05 0  0.075 0.05 0  0.1 0.05 0  0.125 0.05 0  0.15 0.05 0  0.175 0.05 0  0.2 0.05 0  0.225 0.05 0  0.25 0.05 0  0.275 0.05 0  0.3 0.05 0  0.325 0.05 0  0.35 0.05 0  0.375 0.05 0  0.4 0.05 0  0.425 0.05 0  0.45 0.05 0  0.475 0.05 0  0.5 0.05 0  0.525 0.05 0  0.55 0.05 0  0.575 0.05 0  0.6 0.05 0  0.625 0.05 0  0.65 0.05 0  0.675 0.05 0  0.7 0.05 0  0.725 0.05 0  0.75 0.05 0  0.775 0.05 0  0.8 0.05 0  0.825 0.05 0  0.85 0.05 0  0.875 0.05 0  0.9 0.05 0  0.925 0.05 0  0.95 0.05 0  0.975 0.05 0  1 0.05 0  0 0.075 0  0.025 0.075 0  0.05 0.075 0  0.075 0.075 0  0.1 0.075 0  0.125 0.075 0  0.15 0.075 0  0.175 0.075 0  0.2 0.075 0  0.225 0.075 0  0.25 0.075 0  0.275 0.075 0  0.3 0.075 0  0.325 0.075 0  0.35 0.075 0  0.375 0.075 0  0.4 0.075 0  0.425 0.075 0  0.45 0.075 0  0.475 0.075 0  0.5 0.075 0  0.525 0.075 0  0.55 0.075 0  0.575 0.075 0  0.6 0.075 0  0.625 0.075 0  0.65 0.075 0  0.675 0.075 0  0.7 0.075 0  0.725 0.075 0  0.75 0.075 0  0.775 0.075 0  0.8 0.075 0  0.825 0.075 0  0.85 0.075 0  0.875 0.075 0  0.9 0.075 0  0.925 0.075 0  0.95 0.075 0  0.975 0.075 0  1 0.075 0  0 0.1 0  0.025 0.1 0  0.05 0.1 0  0.075 0.1 0  0.1 0.1 0  0.125 0.1 0  0.15 0.1 0  0.175 0.1 0  0.2 0.1 0  0.225 0.1 0  0.25 0.1 0  0.275 0.1 0  0.3 0.1 0  0.325 0.1 0  0.35 0.1 0  0.375 0.1 0  0.4 0.1 0  0.425 0.1 0  0.45 0.1 0  0.475 0.1 0  0.5 0.1 0  0.525 0.1 0  0.55 0.1 0  0.575 0.1 0  0.6 0.1 0  0.625 0.1 0  0.65 0.1 0  0.675 0.1 0  0.7 0.1 0  0.725 0.1 0  0.75 0.1 0  0.775 0.1 0  0.8 0.1 0  0.825 0.1 0  0.85 0.1 0  0.875 0.1 0  0.9 0.1 0  0.925 0.1 0  0.95 0.1 0  0.975 0.1 0  1 0.1 0  0 0.125 0  0.025 0.125 0  0.05 0.125 0  0.075 0.125 0  0.1 0.125 0  0.125 0.125 0  0.15 0.125 0  0.175 0.125 0  0.2 0.125 0  0.225 0.125 0  0.25 0.125 0  0.275 0.125 0  0.3 0.125 0  0.325 0.125 0  0.35 0.125 0  0.375 0.125 0  0.4 0.125 0  0.425 0.125 0  0.45 0.125 0  0.475 0.125 0  0.5 0.125 0  0.525 0.125 0  0.55 0.125 0  0.575 0.125 0  0.6 0.125 0  0.625 0.125 0  0.65 0.125 0  0.675 0.125 0  0.7 0.125 0  0.725 0.125 0  0.75 0.125 0  0.775 0.125 0  0.8 0.125 0  0.825 0.125 0  0.85 0.125 0  0.875 0.125 0  0.9 0.125 0  0.925 0.125 0  0.95 0.125 0  0.975 0.125 0  1 0.125 0  0 0.15 0  0.025 0.15 0  0.05 0.15 0  0.075 0.15 0  0.1 0.15 0  0.125 0.15 0  0.15 0.15 0  0.175 0.15 0  0.2 0.15 0  0.225 0.15 0  0.25 0.15 0  0.275 0.15 0  0.3 0.15 0  0.325 0.15 0  0.35 0.15 0  0.375 0.15 0  0.4 0.15 0  0.425 0.15 0  0.45 0.15 0  0.475 0.15 0  0.5 0.15 0  0.525 0.15 0  0.55 0.15 0  0.575 0.15 0  0.6 0.15 0  0.625 0.15 0  0.65 0.15 0  0.675 0.15 0  0.7 0.15 0  0.725 0.15 0  0.75 0.15 0  0.775 0.15 0  0.8 0.15 0  0.825 0.15 0  0.85 0.15 0  0.875 0.15 0  0.9 0.15 0  0.925 0.15 0  0.95 0.15 0  0.975 0.15 0  1 0.15 0  0 0.175 0  0.025 0.175 0  0.05 0.175 0  0.075 0.175 0  0.1 0.175 0  0.125 0.175 0  0.15 0.175 0  0.175 0.175 0  0.2 0.175 0  0.225 0.175 0  0.25 0.175 0  0.275 0.175 0  0.3 0.175 0  0.325 0.175 0  0.35 0.175 0  0.375 0.175 0  0.4 0.175 0  0.425 0.175 0  0.45 0.175 0  0.475 0.175 0  0.5 0.175 0  0.525 0.175 0  0.55 0.175 0  0.575 0.175 0  0.6 0.175 0  0.625 0.175 0  0.65 0.175 0  0.675 0.175 0  0.7 0.175 0  0.725 0.175 0  0.75 0.175 0  0.775 0.175 0  0.8 0.175 0  0.825 0.175 0  0.85 0.175 0  0.875 0.175 0  0.9 0.175 0  0.925 0.175 0  0.95 0.175 0  0.975 0.175 0  1 0.175 0  0 0.2 0  0.025 0.2 0  0.05 0.2 0  0.075 0.2 0  0.1 0.2 0  0.125 0.2 0  0.15 0.2 0  0.175 0.2 0  0.2 0.2 0  0.225 0.2 0  0.25 0.2 0  0.275 0.2 0  0.3 0.2 0  0.325 0.2 0  0.35 0.2 0  0.375 0.2 0  0.4 0.2 0  0.425 0.2 0  0.45 0.2 0  0.475 0.2 0  0.5 0.2 0  0.525 0.2 0  0.55 0.2 0  0.575 0.2 0  0.6 0.2 0  0.625 0.2 0  0.65 0.2 0  0.675 0.2 0  0.7 0.2 0  0.725 0.2 0  0.75 0.2 0  0.775 0.2 0  0.8 0.2 0  0.825 0.2 0  0.85 0.2 0  0.875 0.2 0  0.9 0.2 0  0.925 0.2 0  0.95 0.2 0  0.975 0.2 0  1 0.2 0  0 0.225 0  0.025 0.225 0  0.05 0.225 0  0.075 0.225 0  0.1 0.225 0  0.125 0.225 0  0.15 0.225 0  0.175 0.225 0  0.2 0.225 0  0.225 0.225 0  0.25 0.225 0  0.275 0.225 0  0.3 0.225 0  0.325 0.225 0  0.35 0.225 0  0.375 0.225 0  0.4 0.225 0  0.425 0.225 0  0.45 0.225 0  0.475 0.225 0  0.5 0.225 0  0.525 0.225 0  0.55 0.225 0  0.575 0.225 0  0.6 0.225 0  0.625 0.225 0  0.65 0.225 0  0.675 0.225 0  0.7 0.225 0  0.725 0.225 0  0.75 0.225 0  0.775 0.225 0  0.8 0.225 0  0.825 0.225 0  0.85 0.225 0  0.875 0.225 0  0.9 0.225 0  0.925 0.225 0  0.95 0.225 0  0.975 0.225 0  1 0.225 0  0 0.25 0  0.025 0.25 0  0.05 0.25 0  0.075 0.25 0  0.1 0.25 0  0.125 0.25 0  0.15 0.25 0  0.175 0.25 0  0.2 0.25 0  0.225 0.25 0  0.25 0.25 0  0.275 0.25 0  0.3 0.25 0  0.325 0.25 0  0.35 0.25 0  0.375 0.25 0  0.4 0.25 0  0.425 0.25 0  0.45 0.25 0  0.475 0.25 0  0.5 0.25 0  0.525 0.25 0  0.55 0.25 0  0.575 0.25 0  0.6 0.25 0  0.625 0.25 0  0.65 0.25 0  0.675 0.25 0  0.7 0.25 0  0.725 0.25 0  0.75 0.25 0  0.775 0.25 0  0.8 0.25 0  0.825 0.25 0  0.85 0.25 0  0.875 0.25 0  0.9 0.25 0  0.925 0.25 0  0.95 0.25 0  0.975 0.25 0  1 0.25 0  0 0.275 0  0.025 0.275 0  0.05 0.275 0  0.075 0.275 0  0.1 0.275 0  0.125 0.275 0  0.15 0.275 0  0.175 0.275 0  0.2 0.275 0  0.225 0.275 0  0.25 0.275 0  0.275 0.275 0  0.3 0.275 0  0.325 0.275 0  0.35 0.275 0  0.375 0.275 0  0.4 0.275 0  0.425 0.275 0  0.45 0.275 0  0.475 0.275 0  0.5 0.275 0  0.525 0.275 0  0.55 0.275 0  0.575 0.275 0  0.6 0.275 0  0.625 0.275 0  0.65 0.275 0  0.675 0.275 0  0.7 0.275 0  0.725 0.275 0  0.75 0.275 0  0.775 0.275 0  0.8 0.275 0  0.825 0.275 0  0.85 0.275 0  0.875 0.275 0  0.9 0.275 0  0.925 0.275 0  0.95 0.275 0  0.975 0.275 0  1 0.275 0  0 0.3 0  0.025 0.3 0  0.05 0.3 0  0.075 0.3 0  0.1 0.3 0  0.125 0.3 0  0.15 0.3 0  0.175 0.3 0  0.2 0.3 0  0.225 0.3 0  0.25 0.3 0  0.275 0.3 0  0.3 0.3 0  0.325 0.3 0  0.35 0.3 0  0.375 0.3 0  0.4 0.3 0  0.425 0.3 0  0.45 0.3 0  0.475 0.3 0  0.5 0.3 0  0.525 0.3 0  0.55 0.3 0  0.575 0.3 0  0.6 0.3 0  0.625 0.3 0  0.65 0.3 0  0.675 0.3 0  0.7 0.3 0  0.725 0.3 0  0.75 0.3 0  0.775 0.3 0  0.8 0.3 0  0.825 0.3 0  0.85 0.3 0  0.875 0.3 0  0.9 0.3 0  0.925 0.3 0  0.95 0.3 0  0.975 0.3 0  1 0.3 0  0 0.325 0  0.025 0.325 0  0.05 0.325 0  0.075 0.325 0  0.1 0.325 0  0.125 0.325 0  0.15 0.325 0  0.175 0.325 0  0.2 0.325 0  0.225 0.325 0  0.25 0.325 0  0.275 0.325 0  0.3 0.325 0  0.325 0.325 0  0.35 0.325 0  0.375 0.325 0  0.4 0.325 0  0.425 0.325 0  0.45 0.325 0  0.475 0.325 0  0.5 0.325 0  0.525 0.325 0  0.55 0.325 0  0.575 0.325 0  0.6 0.325 0  0.625 0.325 0  0.65 0.325 0  0.675 0.325 0  0.7 0.325 0  0.725 0.325 0  0.75 0.325 0  0.775 0.325 0  0.8 0.325 0  0.825 0.325 0  0.85 0.325 0  0.875 0.325 0  0.9 0.325 0  0.925 0.325 0  0.95 0.325 0  0.975 0.325 0  1 0.325 0  0 0.35 0  0.025 0.35 0  0.05 0.35 0  0.075 0.35 0  0.1 0.35 0  0.125 0.35 0  0.15 0.35 0  0.175 0.35 0  0.2 0.35 0  0.225 0.35 0  0.25 0.35 0  0.275 0.35 0  0.3 0.35 0  0.325 0.35 0  0.35 0.35 0  0.375 0.35 0  0.4 0.35 0  0.425 0.35 0  0.45 0.35 0  0.475 0.35 0  0.5 0.35 0  0.525 0.35 0  0.55 0.35 0  0.575 0.35 0  0.6 0.35 0  0.625 0.35 0  0.65 0.35 0  0.675 0.35 0  0.7 0.35 0  0.725 0.35 0  0.75 0.35 0  0.775 0.35 0  0.8 0.35 0  0.825 0.35 0  0.85 0.35 0  0.875 0.35 0  0.9 0.35 0  0.925 0.35 0  0.95 0.35 0  0.975 0.35 0  1 0.35 0  0 0.375 0  0.025 0.375 0  0.05 0.375 0  0.075 0.375 0  0.1 0.375 0  0.125 0.375 0  0.15 0.375 0  0.175 0.375 0  0.2 0.375 0  0.225 0.375 0  0.25 0.375 0  0.275 0.375 0  0.3 0.375 0  0.325 0.375 0  0.35 0.375 0  0.375 0.375 0  0.4 0.375 0  0.425 0.375 0  0.45 0.375 0  0.475 0.375 0  0.5 0.375 0  0.525 0.375 0  0.55 0.375 0  0.575 0.375 0  0.6 0.375 0  0.625 0.375 0  0.65 0.375 0  0.675 0.375 0  0.7 0.375 0  0.725 0.375 0  0.75 0.375 0  0.775 0.375 0  0.8 0.375 0  0.825 0.375 0  0.85 0.375 0  0.875 0.375 0  0.9 0.375 0  0.925 0.375 0  0.95 0.375 0  0.975 0.375 0  1 0.375 0  0 0.4 0  0.025 0.4 0  0.05 0.4 0  0.075 0.4 0  0.1 0.4 0  0.125 0.4 0  0.15 0.4 0  0.175 0.4 0  0.2 0.4 0  0.225 0.4 0  0.25 0.4 0  0.275 0.4 0  0.3 0.4 0  0.325 0.4 0  0.35 0.4 0  0.375 0.4 0  0.4 0.4 0  0.425 0.4 0  0.45 0.4 0  0.475 0.4 0  0.5 0.4 0  0.525 0.4 0  0.55 0.4 0  0.575 0.4 0  0.6 0.4 0  0.625 0.4 0  0.65 0.4 0  0.675 0.4 0  0.7 0.4 0  0.725 0.4 0  0.75 0.4 0  0.775 0.4 0  0.8 0.4 0  0.825 0.4 0  0.85 0.4 0  0.875 0.4 0  0.9 0.4 0  0.925 0.4 0  0.95 0.4 0  0.975 0.4 0  1 0.4 0  0 0.425 0  0.025 0.425 0  0.05 0.425 0  0.075 0.425 0  0.1 0.425 0  0.125 0.425 0  0.15 0.425 0  0.175 0.425 0  0.2 0.425 0  0.225 0.425 0  0.25 0.425 0  0.275 0.425 0  0.3 0.425 0  0.325 0.425 0  0.35 0.425 0  0.375 0.425 0  0.4 0.425 0  0.425 0.425 0  0.45 0.425 0  0.475 0.425 0  0.5 0.425 0  0.525 0.425 0  0.55 0.425 0  0.575 0.425 0  0.6 0.425 0  0.625 0.425 0  0.65 0.425 0  0.675 0.425 0  0.7 0.425 0  0.725 0.425 0  0.75 0.425 0  0.775 0.425 0  0.8 0.425 0  0.825 0.425 0  0.85 0.425 0  0.875 0.425 0  0.9 0.425 0  0.925 0.425 0  0.95 0.425 0  0.975 0.425 0  1 0.425 0  0 0.45 0  0.02
[...]
<PointData  Scalars="ControlVisualisation"> 
<DataArray  type="Float64"  Name="ControlVisualisation"  format="ascii">3.7817576165034151e-08  2.1878976198719557e-08  2.1880073767362012e-08  2.1881909206790380e-08  2.1884426725817374e-08  2.1887559908695393e-08  2.1891224674578991e-08  2.1895323405086290e-08  2.1899747873228629e-08  2.1904382311749991e-08  2.1909106720639335e-08  2.1913800063021864e-08  2.1918343595150553e-08  2.1922623588072906e-08  2.1926534230749386e-08  2.1929979901648373e-08  2.1932877277402115e-08  2.1935156897776601e-08  2.1936764592366073e-08  2.1937662432586766e-08  2.1937829365453602e-08  2.1937261729658881e-08  2.1935973003315188e-08  2.1933993844747438e-08  2.1931371447395860e-08  2.1928168614965931e-08  2.1924462657986718e-08  2.1920343772826486e-08  2.1915913222831328e-08  2.1911281105198366e-08  2.1906563763699118e-08  2.1901880929081410e-08  2.1897352771284800e-08  2.1893096602243715e-08  2.1889223720029327e-08  2.1885836155005864e-08  2.1883023796298151e-08  2.1880861153739856e-08  2.1879411646441347e-08  2.1878689974877738e-08  8.5632237080205836e-08  2.1878978749870069e-08  5.9399164177995996e-09  5.9409921432649557e-09  5.9428853100748743e-09  5.9455654388639656e-09  5.9489609460482910e-09  5.9529806721135868e-09  5.9575178931117408e-09  5.9624529892547207e-09  5.9676568816651570e-09  5.9729947528648746e-09  5.9783296532902654e-09  5.9835261999014393e-09  5.9884539209558709e-09  5.9929904027138048e-09  5.9970241680141443e-09  6.0004570723895525e-09  6.0032063635278346e-09  6.0052062103345011e-09  6.0064091582727043e-09  6.0067867777625118e-09  6.0063303672304199e-09  6.0050509249610422e-09  6.0029790183510606e-09  6.0001642390190783e-09  5.9966742563930112e-09  5.9925934845276766e-09  5.9880213938167321e-09  5.9830704118574428e-09  5.9778634832000471e-09  5.9725311870408031e-09  5.9672085435555782e-09  5.9620316717011595e-09  5.9571341537199592e-09  5.9526434515206319e-09  5.9486772731080296e-09  5.9453402928462854e-09  5.9427210609060607e-09  5.9408873972443517e-09  5.9398317344821975e-09  2.1878690360201847e-08  2.1880103705301175e-08  5.9410140836274590e-09  5.9423601995171749e-09  5.9445177067778970e-09  5.9475776648998968e-09  5.9514626787169779e-09  5.9560688806275071e-09  5.9612738727125325e-09  5.9669402938680065e-09  5.9729199027943320e-09  5.9790576806478651e-09  5.9851961350151442e-09  5.9911794399854416e-09  5.9968573909310365e-09  6.0020889623721396e-09  6.0067456741321569e-09  6.0107142493896821e-09  6.0138991180307351e-09  6.0162240818729335e-09  6.0176339836062816e-09  6.0180956370108180e-09  6.0175982849466800e-09  6.0161539430543358e-09  6.0137970597560303e-09  6.0105839724492928e-09  6.0065918024323587e-09  6.0019169956626865e-09  5.9966733837439811e-09  5.9909897749428502e-09  5.9850072097802388e-09  5.9788756343924049e-09  5.9727502405890402e-09  5.9667876420546398e-09  5.9611416886597344e-09  5.9559593067444924e-09  5.9513763686091615e-09  5.9475139546521956e-09  5.9444733950503593e-09  5.9423238469874862e-09  5.9409060068170509e-09  2.1879421293282497e-08  2.1882052440014135e-08  5.9430082877085709e-09  5.9446296655950287e-09  5.9468131667728424e-09  5.9498938065321514e-09  5.9538043818402534e-09  5.9584409807229275e-09  5.9636799876913170e-09  5.9693828104749636e-09  5.9753999696578809e-09  5.9815752547013270e-09  5.9877500956275971e-09  5.9937677278067228e-09  5.9994772635792290e-09  6.0047371161314095e-09  6.0094184200811168e-09  6.0134077264272451e-09  6.0166092769925360e-09  6.0189469104789635e-09  6.0203653520017896e-09  6.0208314051757243e-09  6.0203342606520590e-09  6.0188858555150621e-09  6.0165205189714647e-09  6.0132945033401770e-09  6.0092848570922301e-09  6.0045880422048634e-09  5.9993180490673697e-09  5.9936040225371604e-09  5.9875874687392999e-09  5.9814190707669834e-09  5.9752549477401979e-09  5.9692527967633737e-09  5.9635677127189276e-09  5.9583479160147952e-09  5.9537305818170730e-09  5.9498379042472647e-09  5.9467711861016155e-09  5.9445833101416909e-09  5.9428316522382465e-09  2.1880928586070381e-08  2.1884872932436245e-08  5.9459752952122326e-09  5.9480112483894454e-09  5.9502167588080590e-09  5.9532990823545218e-09  5.9572097447229011e-09  5.9618453707976435e-09  5.9670818495227840e-09  5.9727801295304440e-09  5.9787904060825869e-09  5.9849563233088111e-09  5.9911193832927827e-09  5.9971231463017560e-09  6.0028172683160102e-09  6.0080609786381917e-09  6.0127262899493083e-09  6.0167007142599592e-09  6.0198894435810749e-09  6.0222171233117527e-09  6.0236292135595970e-09  6.0240928636078239e-09  6.0235973645878940e-09  6.0221545132017303e-09  6.0197982368344045e-09  6.0165840507774463e-09  6.0125881765764223e-09  6.0079061369271183e-09  6.0026509699902013e-09  5.9969509471507193e-09  5.9909468517042163e-09  5.9847888226867063e-09  5.9786327366209050e-09  5.9726362372271408e-09  5.9669545932892030e-09  5.9617363752618397e-09  5.9571191888474960e-09  5.9532256226896241e-09  5.9501560791629544e-09  5.9479393652478498e-09  5.9457176396561603e-09  2.1883277802494989e-08  2.1888645466248013e-08  5.9499989319497742e-09  5.9526048178487512e-09  5.9548392797492598e-09  5.9579217166410510e-09  5.9618299231898251e-09  5.9664610329475658e-09  5.9716903732286719e-09  5.9773783641984007e-09  5.9833748181497175e-09  5.9895233052543228e-09  5.9956655314725891e-09  6.0016456846458604e-09  6.0073142732565838e-09  6.0125316803262795e-09  6.0171712921327235e-09  6.0211220648398557e-09  6.0242905457224181e-09  6.0266026044875291e-09  6.0280045951844143e-09  6.0284642919573843e-09  6.0279711877274151e-09  6.0265367822672697e-09  6.0241944353737509e-09  6.0209986801872883e-09  6.0170245161742775e-09  6.0123661012303902e-09  6.0071351095577532e-09  6.0014584606442643e-09  5.9954758388678839e-09  5.9893365816311414e-09  5.9831960351462708e-09  5.9772116765365951e-09  5.9715389089697670e-09  5.9663266769596312e-09  5.9617131023972590e-09  5.9578212959850022e-09  5.9547505075405223e-09  5.9524975131098250e-09  5.9496464814366883e-09  2.1886528502920023e-08  2.1893476105550945e-08  5.9551927049996860e-09  5.9585405007753972e-09  5.9608122072237849e-09  5.9638935009397033e-09  5.9677967394557027e-09  5.9724198792410252e-09  5.9776375071787797e-09  5.9833094141429189e-09  5.9892849542328988e-09  5.9954076575164977e-09  6.0015196263818946e-09  6.0074658605985834e-09  6.0130981820238694e-09  6.0182785676376140e-09  6.0228822232638816e-09  6.0268000575816314e-09  6.0299404546539565e-09  6.0322309256731102e-09  6.0336190444814528e-09  6.0340733236207138e-09  6.0335835615474795e-09  6.0321609275118235e-09  6.0298379443814490e-09  6.0266678782391917e-09  6.0227240976190095e-09  6.0180988985209181e-09  6.0129020729362105e-09  6.0072587792930895e-09  6.0013071235839463e-09  5.9951952638952689e-09  5.9890778261644729e-09  5.9831119703564440e-09  5.9774532153973269e-09  5.9722509565834910e-09  5.9676439681508911e-09  5.9637560480336739e-09  5.9606849986261052e-09  5.9583866389509965e-09  5.9547281649893006e-09  2.1890771309707231e-08  2.1899501913007497e-08  5.9617051941289187e-09  5.9659881042627642e-09  5.9683057109761027e-09  5.9713836726086064e-09  5.9752781102879396e-09  5.9798881201349760e-09  5.9850873637583603e-09  5.9907348641239364e-09  5.9966795341616728e-09  6.0027649237372715e-09  6.0088337966492652e-09  6.0147323455626031e-09  6.0203141392873679e-09  6.0254434207520790e-09  6.0299978239079750e-09  6.0338707596765902e-09  6.0369730610119704e-09  6.0392343447994813e-09  6.0406038126988854e-09  6.0410509506156943e-09  6.0405658566764881e-09  6.0391593066710833e-09  6.0368627594060368e-09  6.0337278255498933e-09  6.0298257041463528e-09  6.0252463153800736e-09  6.0200969076767413e-09  6.0145002432879678e-09  6.0085923276838915e-09  6.0025196585628934e-09  5.9964357905221177e-09  5.9904973692128396e-09  5.9848599543745252e-09  5.9796734613650064e-09  5.9750774716248037e-09  5.9711966410082390e-09  5.9681269731243568e-09  5.9657732418818708e-09  5.9611062655070337e-09  2.1896124809570509e-08  2.1906895655809746e-08  5.9697246790760898e-09  5.9751631265521540e-09  5.9775358822048998e-09  5.9806070418104929e-09  5.9844869959797886e-09  5.9890762304299781e-09  5.9942473818473056e-09  5.9998584993423165e-09  6.0057581045345454e-09  6.0117900000114866e-09  6.0177979224393725e-09  6.0236298736764314e-09  6.0291417950852215e-09  6.0342009920221871e-09  6.0386883839955386e-09  6.0425006332597276e-09  6.0455517356075133e-09  6.0477739572504636e-09  6.0491185728069426e-09  6.0495563440953908e-09  6.0490777539655941e-09  6.0476930498089258e-09  6.0454322983913225e-09  6.0423450238442136e-09  6.0384996500341506e-09  6.0339829879387554e-09  6.0288989263892203e-09  6.0233670413051240e-09  6.0175205025389406e-09  6.0115034848327287e-09  6.0054679303290074e-09  5.9995696693627200e-09  5.9939641591126955e-09  5.9888018605804991e-09  5.9842233409042757e-09  5.9803543228418325e-09  5.9772886510808105e-09  5.9748685416431184e-09  5.9689628282590690e-09  2.1902739851790199e-08  2.1915871882280709e-08  5.9794861676540563e-09  5.9863348052204351e-09  5.9887727462870487e-09  5.9918320088602568e-09  5.9956893565605090e-09  6.0002468679935971e-09  6.0053759055479373e-09  6.0109335240072815e-09  6.0167678610839851e-09  6.0227233517479210e-09  6.0286453749433113e-09  6.0343844733470278e-09  6.0398000670174964e-09  6.0447633862899540e-09  6.0491597866168808e-09  6.0528902324097903e-09  6.0558726997731636e-09  6.0580428844829677e-09  6.0593545845221674e-09  6.0597801493875790e-09  6.0593105495205789e-09  6.0579553953040951e-09  6.0557430195437200e-09  6.0527202216667362e-09  6.0489519435207651e-09  6.0445209539145942e-09  6.0395268079882002e-09  6.0340847873981352e-09  6.0283242067109852e-09  6.0223859567186445e-09  6.0164195967293416e-09  6.0105796066850396e-09  6.0050210922269490e-09  5.9998950356290508e-09  5.9953431722345341e-09  5.9914926121120049e-09  5.9884347159881944e-09  5.9859358736565260e-09  5.9785246915494401e-09  2.1910804622819019e-08  2.1926694361279312e-08  5.9912799566874951e-09  5.9998362620539214e-09  6.0023505525976778e-09  6.0053909348900055e-09  6.0092144468760870e-09  6.0137249479352316e-09  6.0187920310689004e-09  6.0242717121617301e-09  6.0300120578129531e-09  6.0358587349125862e-09  6.0416596935386312e-09  6.0472693061515529e-09  6.0525518798609206e-09  6.0573841066666962e-09  6.0616569830481375e-09  6.0652771818712341e-09  6.0681677592902638e-09  6.0702686358825105e-09  6.0715367686492014e-09  6.0719464968515868e-09  6.0714893501805287e-09  6.0701741252075103e-09  6.0680270289184216e-09  6.0650914341374670e-09  6.0614279086107702e-09  6.0571140035935828e-09  6.0522436406360443e-09  6.0469264018405480e-09  6.0412862423963453e-09  6.0354594100311225e-09  6.0295919073689201e-09  6.0238359779179806e-09  6.0183458683892647e-09  6.0132729636751633e-09  6.0087604234439115e-09  6.0049372299254677e-09  6.0018921002526244e-09  5.9993002677751612e-09  5.9900715525574123e-09  2.1920551021031878e-08  2.1939685371309756e-08  6.0054624710558718e-09  6.0160772701576236e-09  6.0186810308798741e-09  6.0216937409198689e-09  6.0254685755791102e-09  6.0299110331621594e-09  6.0348884411311986e-09  6.0402555534074351e-09  6.0458609035962408e-09  6.0515525951445324e-09  6.0571827746285736e-09  6.0626115698818234e-09  6.0677100856206044e-09  6.0723625810398817e-09  6.0764676719408668e-09  6.0799391816444008e-09  6.0827066053352411e-09  6.0847151776912902e-09  6.0859257297778794e-09  6.0863148795768645e-09  6.0858749453630585e-09  6.0846136952453498e-09  6.0825546898478743e-09  6.0797371001988007e-09  6.0762160100236211e-09  6.0720623921766339e-09  6.0673628003357027e-09  6.0622191858397312e-09  6.0567480958664164e-09  6.0510790971703676e-09  6.0453527971608031e-09  6.0397176933005832e-09  6.0343262219324262e-09  6.0293298698081532e-09  6.0248735658091201e-09  6.0210890021163640e-09  6.0180624265431362e-09  6.0153603191167597e-09  6.0039458155398845e-09  2.1932262423145164e-08  2.1955236615293414e-08  6.0224694287726901e-09  6.0355603957467116e-09  6.0382705169997993e-09  6.0412457209222265e-09  6.0449533539686965e-09  6.0492996055959311e-09  6.0541485634309773e-09  6.0593538612536369e-09  6.0647656366740250e-09  6.0702363065157190e-09  6.0756248624632763e-09  6.0808003032816629e-09  6.0856436181574975e-09  6.0900492161500780e-09  6.0939258722493430e-09  6.0971966964613211e-09  6.0997990504166878e-09  6.1016846227803624e-09  6.1028189990716787e-09  6.1031815145873236e-09  6.1027652732371161e-09  6.1015769191188337e-09  6.0996367507061608e-09  6.0969789392688087e-09  6.0936518014569079e-09  6.0897179809689834e-09  6.0852545342867179e-09  6.0803532396513086e-09  6.0751203044890936e-09  6.0696755692208203e-09  6.0641512993597796e-09  6.0586897023925945e-09  6.0534396089839863e-09  6.0485518829425733e-09  6.0441736167908269e-09  6.0404406354235213e-09  6.0374378123875933e-09  6.0346029327325128e-09  6.0205644888264665e-09  2.1946282862397262e-08  2.1973821629972276e-08  6.0428315244779626e-09  6.0589005927918311e-09  6.0617416109694815e-09  6.0646710937107922e-09  6.0682902639277107e-09  6.0725036826904249e-09  6.0771704814197617e-09  6.0821435077963019e-09  6.0872768799424533e-09  6.0924311650584204e-09  6.0974767405740806e-09  6.1022959458546214e-09  6.1067841981632177e-09  6.1108500324590373e-09  6.1144153648159556e-09  6.1174150105513879e-09  6.1197960783891702e-09  6.1215179154332194e-09  6.1225515631074177e-09  6.1228795686159926e-09  6.1224958944231643e-09  6.1214057594129946e-09  6.1196258087750481e-09  6.1171843342037275e-09  6.1141214505608872e-09  6.1104894565536547e-09  6.1063533425171128e-09  6.1017913477890284e-09  6.0968952657822426e-09  6.0917706407751153e-09  6.0865366010963895e-09  6.0813247024232298e-09  6.0762767586563705e-09  6.0715412428559511e-09  6.0672677512182228e-09  6.0635987468724608e-09  6.0606206222086235e-09  6.0576207840005016e-09  6.0404327879064214e-09  2.1963027468622518e-08  2.1996007426318488e-08  6.0671912929094487e-09  6.0868486805452421e-09  6.0898612760809310e-09  6.0927453875134599e-09  6.0962557638466785e-09  6.1002900468446904e-09  6.1046998204543131e-09  6.1093386849458000e-09  6.1140696374119432e-09  6.1187683066679127e-09  6.1233241722216641e-09  6.1276405154457375e-09  6.1316334230599621e-09  6.1352307803505975e-09  6.1383716557089469e-09  6.1410051092471143e-09  6.1430898604640975e-09  6.1445940229370502e-09  6.1454947631566148e-09  6.1457780227379324e-09  6.1454388294773147e-09  6.1444807446619509e-09  6.1429163921363560e-09  6.1407673714061791e-09  6.1380642680558919e-09  6.1348470366538627e-09  6.1311655574991138e-09  6.1270802506503889e-09  6.1226628788204454e-09  6.1179979018093028e-09  6.1131836629060546e-09  6.1083333237873763e-09  6.1035750798219255e-09  6.0990509200909162e-09  6.0949127193663698e-09  6.0913137692712127e-09  6.0883485657915702e-09  6.0851324376499209e-09  6.0641584357449357e-09  2.1982992976570357e-08  2.2022463012344287e-08  6.0963192968243408e-09  6.1203179889246687e-09  6.1235774065236559e-09  6.1264408041506323e-09  6.1298320487716471e-09  6.1336308825659720e-09  6.1376778423803340e-09  6.1418320002543960e-09  6.1459755956659373e-09  6.1500127217183950e-09  6.1538651021313583e-09  6.1574684135694502e-09  6.1607687098073069e-09  6.1637197424917070e-09  6.1662821275423005e-09  6.1684220640388836e-09  6.1701111329223226e-09  6.1713268868307994e-09  6.1720528025275877e-09  6.1722783118562750e-09  6.1719993542541936e-09  6.1712179726082642e-09  6.1699425562031448e-09  6.1681876534583723e-09  6.1659734187630050e-09  6.1633257837114389e-09  6.1602763343862486e-09  6.1568625786609490e-09  6.1531289793611724e-09  6.1491289590777695e-09  6.1449278247135129e-09  6.1406067096836419e-09  6.1362673092051855e-09  6.1320357570865793e-09  6.1280636603824211e-09  6.1245216439857658e-09  6.1215261108355983e-09  6.1180034464830597e-09  6.0924635652341007e-09  2.2006765840588722e-08  2.2053953016712792e-08  6.1311216915930528e-09  6.1604112038236273e-09  6.1640677133157243e-09  6.1669944212610661e-09  6.1702860592297857e-09  6.1737833207338180e-09  6.1773129403423580e-09  6.1807530237770924e-09  6.1840275950235853e-09  6.1870936880525857e-09  6.1899279664438407e-09  6.1925161286512303e-09  6.1948466025472044e-09  6.1969068829363088e-09  6.1986830419883816e-09  6.2001602860213755e-09  6.2013234619586702e-09  6.2021591266468791e-09  6.2026563723406940e-09  6.2028076517547422e-09  6.2026095711117840e-09  6.2020629518677086e-09  6.2011723421731177e-09  6.1999457562337292e-09  6.1983932151639816e-09  6.1965258575220457e-09  6.1943544893279858e-09  6.1918886262067289e-09  6.1891365634262023e-09  6.1861067515918835e-09  6.1828122352681271e-09  6.1792784944038565e-09  6.1755554776357344e-09  6.1717322124603564e-09  6.1679501401563183e-09  6.1644056485718132e-09  6.1612645323822264e-09  6.1572636328141960e-09  6.1261863003775372e-09  2.2035021159654115e-08  2.2091294763357249e-08  6.1726214141827546e-09  6.2084395127722762e-09  6.2128088106629191e-09  6.2160183279419511e-09  6.2192999487453314e-09  6.2224182354253584e-09  6.2251916083504654e-09  6.2275530812732888e-09  6.2295170687212191e-09  6.2311399901852792e-09  6.2324901040120451e-09  6.2336285930974860e-09  6.2346013794180552e-09  6.2354373087998556e-09  6.2361502701735309e-09  6.2367434423528798e-09  6.2372128877323026e-09  6.2375515609096532e-09  6.2377521089679677e-09  6.2378085371647232e-09  6.2377178097752304e-09  6.2374799796692694e-09  6.2370974196014751e-09  6.2365736313115527e-09  6.2359107867409401e-09  6.2351069769596495e-09  6.2341522850200986e-09  6.2330248336393418e-09  6.2316874136287721e-09  6.2300857592298974e-09  6.2281520045913620e-09  6.2258157477926956e-09  6.2230265232408593e-09  6.2197886678422975e-09  6.2162029914929423e-09  6.2124964722901790e-09  6.2089354133433882e-09  6.2041093724797711e-09  6.1662530853203814e-09  2.2068497342287426e-08  2.2135218700995861e-08  6.2218686652781117e-09  6.2659186240698120e-09  6.2716860694397832e-09  6.2756964611621781e-09  6.2792029196764766e-09  6.2818377180434520e-09  6.2834520647846707e-09  6.2841269700140396e-09  6.2840685601166047e-09  6.2835169230305654e-09  6.2826893572160459e-09  6.2817555750343634e-09  6.2808335816415676e-09  6.2799964010180595e-09  6.2792827121803854e-09  6.2787074542261813e-09  6.2782712362675491e-09  6.2779672030952465e-09  6.2777869309990004e-09  6.2777233376775387e-09  6.2777729620887413e-09  6.2779362303658437e-09  6.2782164948311175e-09  6.2786174924962774e-09  6.2791395060944882e-09  6.2797739888560050e-09  6.2804958381527304e-09  6.2812537519667633e-09  6.2819593491348376e-09  6.2824768861725232e-09  6.2826184435608306e-09  6.2821526013879688e-09  6.2808381344826532e-09  6.2784909883383980e-09  6.2750832887582019e-09  6.2708506692439606e-09  6.2662498255052985e-09  6.2598672151664559e-09  6.2135779113763528e-09  2.2107909741656671e-08  2.2185986210277563e-08  6.2796815682722560e-09  6.3345052853641967e-09  6.3432029438845606e-09  6.3491764035226978e-09  6.3534099461305342e-09  6.3553568017650554e-09  6.3550601739430603e-09  6.3529808792870372e-09  6.3497234725071437e-09  6.3458543672706710e-09  6.3418195387394226e-09  6.3379302442386030e-09  6.3343812763863872e-09  6.3312799756196791e-09  6.3286742299743688e-09  6.3265748808422657e-09  6.3249725641665085e-09  6.3238493441251251e-09  6.3231872531840952e-09  6.3229735583190229e-09  6.3232031154805156e-09  6.3238790047373357e-09  6.3250108845426038e-09  6.3266113978502217e-09  6.3286905442676588e-09  6.3312474045375795e-09  6.3342575266731329e-09  6.3376546375204065e-09  6.3413064472947062e-09  6.3449852479029054e-09  6.3483394185885060e-09  6.3508833560630074e-09  6.3520239742429976e-09  6.3511635141653341e-09  6.3479146780134923e-09  6.3424113512833577e-09  6.3354183297993630e-09  6.3258688209240765e-09  6.2687750794935458e-09  2.2153713425081025e-08  2.2242515129793694e-08  6.3459592831673068e-09  6.4158454724051585e-09  6.4310042996271867e-09  6.4414517363194390e-09  6.4473172387942123e-09  6.4479965028581404e-09  6.4442454925785903e-09  6.437454155