<?xml version="1.0"?>
<VTKFile type="UnstructuredGrid"  version="0.1"  >
<UnstructuredGrid>
<Piece  NumberOfPoints="1681" NumberOfCells="3200">
<Points>
<DataArray  type="Float64"  NumberOfComponents="3"  format="ascii">0 0 0  0.025 0 0  0.05 0 0  0.075 0 0  0.1 0 0  0.125 0 0  0.15 0 0  0.175 0 0  0.2 0 0  0.225 0 0  0.25 0 0  0.275 0 0  0.3 0 0  0.325 0 0  0.35 0 0  0.375 0 0  0.4 0 0  0.425 0 0  0.45 0 0  0.475 0 0  0.5 0 0  0.525 0 0  0.55 0 0  0.575 0 0  0.6 0 0  0.625 0 0  0.65 0 0  0.675 0 0  0.7 0 0  0.725 0 0  0.75 0 0  0.775 0 0  0.8 0 0  0.825 0 0  0.85 0 0  0.875 0 0  0.9 0 0  0.925 0 0  0.95 0 0  0.975 0 0  1 0 0  0 0.025 0  0.025 0.025 0  0.05 0.025 0  0.075 0.025 0  0.1 0.025 0  0.125 0.025 0  0.15 0.025 0  0.175 0.025 0  0.2 0.025 0  0.225 0.025 0  0.25 0.025 0  0.275 0.025 0  0.3 0.025 0  0.325 0.025 0  0.35 0.025 0  0.375 0.025 0  0.4 0.025 0  0.425 0.025 0  0.45 0.025 0  0.475 0.025 0  0.5 0.025 0  0.525 0.025 0  0.55 0.025 0  0.575 0.025 0  0.6 0.025 0  0.625 0.025 0  0.65 0.025 0  0.675 0.025 0  0.7 0.025 0  0.725 0.025 0  0.75 0.025 0  0.775 0.025 0  0.8 0.025 0  0.825 0.025 0  0.85 0.025 0  0.875 0.025 0  0.9 0.025 0  0.925 0.025 0  0.95 0.025 0  0.975 0.025 0  1 0.025 0  0 0.05 0  0.025 0.05 0  0.05 0.05 0  0.075 0.05 0  0.1 0.05 0  0.125 0.05 0  0.15 0.05 0  0.175 0.05 0  0.2 0.05 0  0.225 0.05 0  0.25 0.05 0  0.275 0.05 0  0.3 0.05 0  0.325 0.05 0  0.35 0.05 0  0.375 0.05 0  0.4 0.05 0  0.425 0.05 0  0.45 0.05 0  0.475 0.05 0  0.5 0.05 0  0.525 0.05 0  0.55 0.05 0  0.575 0.05 0  0.6 0.05 0  0.625 0.05 0  0.65 0.05 0  0.675 0.05 0  0.7 0.05 0  0.725 0.05 0  0.75 0.05 0  0.775 0.05 0  0.8 0.05 0  0.825 0.05 0  0.85 0.05 0  0.875 0.05 0  0.9 0.05 0  0.925 0.05 0  0.95 0.05 0  0.975 0.05 0  1 0.05 0  0 0.075 0  0.025 0.075 0  0.05 0.075 0  0.075 0.075 0  0.1 0.075 0  0.125 0.075 0  0.15 0.075 0  0.175 0.075 0  0.2 0.075 0  0.225 0.075 0  0.25 0.075 0  0.275 0.075 0  0.3 0.075 0  0.325 0.075 0  0.35 0.075 0  0.375 0.075 0  0.4 0.075 0  0.425 0.075 0  0.45 0.075 0  0.475 0.075 0  0.5 0.075 0  0.525 0.075 0  0.55 0.075 0  0.575 0.075 0  0.6 0.075 0  0.625 0.075 0  0.65 0.075 0  0.675 0.075 0  0.7 0.075 0  0.725 0.075 0  0.75 0.075 0  0.775 0.075 0  0.8 0.075 0  0.825 0.075 0  0.85 0.075 0  0.875 0.075 0  0.9 0.075 0  0.925 0.075 0  0.95 0.075 0  0.975 0.075 0  1 0.075 0  0 0.1 0  0.025 0.1 0  0.05 0.1 0  0.075 0.1 0  0.1 0.1 0  0.125 0.1 0  0.15 0.1 0  0.175 0.1 0  0.2 0.1 0  0.225 0.1 0  0.25 0.1 0  0.275 0.1 0  0.3 0.1 0  0.325 0.1 0  0.35 0.1 0  0.375 0.1 0  0.4 0.1 0  0.425 0.1 0  0.45 0.1 0  0.475 0.1 0  0.5 0.1 0  0.525 0.1 0  0.55 0.1 0  0.575 0.1 0  0.6 0.1 0  0.625 0.1 0  0.65 0.1 0  0.675 0.1 0  0.7 0.1 0  0.725 0.1 0  0.75 0.1 0  0.775 0.1 0  0.8 0.1 0  0.825 0.1 0  0.85 0.1 0  0.875 0.1 0  0.9 0.1 0  0.925 0.1 0  0.95 0.1 0  0.975 0.1 0  1 0.1 0  0 0.125 0  0.025 0.125 0  0.05 0.125 0  0.075 0.125 0  0.1 0.125 0  0.125 0.125 0  0.15 0.125 0  0.175 0.125 0  0.2 0.125 0  0.225 0.125 0  0.25 0.125 0  0.275 0.125 0  0.3 0.125 0  0.325 0.125 0  0.35 0.125 0  0.375 0.125 0  0.4 0.125 0  0.425 0.125 0  0.45 0.125 0  0.475 0.125 0  0.5 0.125 0  0.525 0.125 0  0.55 0.125 0  0.575 0.125 0  0.6 0.125 0  0.625 0.125 0  0.65 0.125 0  0.675 0.125 0  0.7 0.125 0  0.725 0.125 0  0.75 0.125 0  0.775 0.125 0  0.8 0.125 0  0.825 0.125 0  0.85 0.125 0  0.875 0.125 0  0.9 0.125 0  0.925 0.125 0  0.95 0.125 0  0.975 0.125 0  1 0.125 0  0 0.15 0  0.025 0.15 0  0.05 0.15 0  0.075 0.15 0  0.1 0.15 0  0.125 0.15 0  0.15 0.15 0  0.175 0.15 0  0.2 0.15 0  0.225 0.15 0  0.25 0.15 0  0.275 0.15 0  0.3 0.15 0  0.325 0.15 0  0.35 0.15 0  0.375 0.15 0  0.4 0.15 0  0.425 0.15 0  0.45 0.15 0  0.475 0.15 0  0.5 0.15 0  0.525 0.15 0  0.55 0.15 0  0.575 0.15 0  0.6 0.15 0  0.625 0.15 0  0.65 0.15 0  0.675 0.15 0  0.7 0.15 0  0.725 0.15 0  0.75 0.15 0  0.775 0.15 0  0.8 0.15 0  0.825 0.15 0  0.85 0.15 0  0.875 0.15 0  0.9 0.15 0  0.925 0.15 0  0.95 0.15 0  0.975 0.15 0  1 0.15 0  0 0.175 0  0.025 0.175 0  0.05 0.175 0  0.075 0.175 0  0.1 0.175 0  0.125 0.175 0  0.15 0.175 0  0.175 0.175 0  0.2 0.175 0  0.225 0.175 0  0.25 0.175 0  0.275 0.175 0  0.3 0.175 0  0.325 0.175 0  0.35 0.175 0  0.375 0.175 0  0.4 0.175 0  0.425 0.175 0  0.45 0.175 0  0.475 0.175 0  0.5 0.175 0  0.525 0.175 0  0.55 0.175 0  0.575 0.175 0  0.6 0.175 0  0.625 0.175 0  0.65 0.175 0  0.675 0.175 0  0.7 0.175 0  0.725 0.175 0  0.75 0.175 0  0.775 0.175 0  0.8 0.175 0  0.825 0.175 0  0.85 0.175 0  0.875 0.175 0  0.9 0.175 0  0.925 0.175 0  0.95 0.175 0  0.975 0.175 0  1 0.175 0  0 0.2 0  0.025 0.2 0  0.05 0.2 0  0.075 0.2 0  0.1 0.2 0  0.125 0.2 0  0.15 0.2 0  0.175 0.2 0  0.2 0.2 0  0.225 0.2 0  0.25 0.2 0  0.275 0.2 0  0.3 0.2 0  0.325 0.2 0  0.35 0.2 0  0.375 0.2 0  0.4 0.2 0  0.425 0.2 0  0.45 0.2 0  0.475 0.2 0  0.5 0.2 0  0.525 0.2 0  0.55 0.2 0  0.575 0.2 0  0.6 0.2 0  0.625 0.2 0  0.65 0.2 0  0.675 0.2 0  0.7 0.2 0  0.725 0.2 0  0.75 0.2 0  0.775 0.2 0  0.8 0.2 0  0.825 0.2 0  0.85 0.2 0  0.875 0.2 0  0.9 0.2 0  0.925 0.2 0  0.95 0.2 0  0.975 0.2 0  1 0.2 0  0 0.225 0  0.025 0.225 0  0.05 0.225 0  0.075 0.225 0  0.1 0.225 0  0.125 0.225 0  0.15 0.225 0  0.175 0.225 0  0.2 0.225 0  0.225 0.225 0  0.25 0.225 0  0.275 0.225 0  0.3 0.225 0  0.325 0.225 0  0.35 0.225 0  0.375 0.225 0  0.4 0.225 0  0.425 0.225 0  0.45 0.225 0  0.475 0.225 0  0.5 0.225 0  0.525 0.225 0  0.55 0.225 0  0.575 0.225 0  0.6 0.225 0  0.625 0.225 0  0.65 0.225 0  0.675 0.225 0  0.7 0.225 0  0.725 0.225 0  0.75 0.225 0  0.775 0.225 0  0.8 0.225 0  0.825 0.225 0  0.85 0.225 0  0.875 0.225 0  0.9 0.225 0  0.925 0.225 0  0.95 0.225 0  0.975 0.225 0  1 0.225 0  0 0.25 0  0.025 0.25 0  0.05 0.25 0  0.075 0.25 0  0.1 0.25 0  0.125 0.25 0  0.15 0.25 0  0.175 0.25 0  0.2 0.25 0  0.225 0.25 0  0.25 0.25 0  0.275 0.25 0  0.3 0.25 0  0.325 0.25 0  0.35 0.25 0  0.375 0.25 0  0.4 0.25 0  0.425 0.25 0  0.45 0.25 0  0.475 0.25 0  0.5 0.25 0  0.525 0.25 0  0.55 0.25 0  0.575 0.25 0  0.6 0.25 0  0.625 0.25 0  0.65 0.25 0  0.675 0.25 0  0.7 0.25 0  0.725 0.25 0  0.75 0.25 0  0.775 0.25 0  0.8 0.25 0  0.825 0.25 0  0.85 0.25 0  0.875 0.25 0  0.9 0.25 0  0.925 0.25 0  0.95 0.25 0  0.975 0.25 0  1 0.25 0  0 0.275 0  0.025 0.275 0  0.05 0.275 0  0.075 0.275 0  0.1 0.275 0  0.125 0.275 0  0.15 0.275 0  0.175 0.275 0  0.2 0.275 0  0.225 0.275 0  0.25 0.275 0  0.275 0.275 0  0.3 0.275 0  0.325 0.275 0  0.35 0.275 0  0.375 0.275 0  0.4 0.275 0  0.425 0.275 0  0.45 0.275 0  0.475 0.275 0  0.5 0.275 0  0.525 0.275 0  0.55 0.275 0  0.575 0.275 0  0.6 0.275 0  0.625 0.275 0  0.65 0.275 0  0.675 0.275 0  0.7 0.275 0  0.725 0.275 0  0.75 0.275 0  0.775 0.275 0  0.8 0.275 0  0.825 0.275 0  0.85 0.275 0  0.875 0.275 0  0.9 0.275 0  0.925 0.275 0  0.95 0.275 0  0.975 0.275 0  1 0.275 0  0 0.3 0  0.025 0.3 0  0.05 0.3 0  0.075 0.3 0  0.1 0.3 0  0.125 0.3 0  0.15 0.3 0  0.175 0.3 0  0.2 0.3 0  0.225 0.3 0  0.25 0.3 0  0.275 0.3 0  0.3 0.3 0  0.325 0.3 0  0.35 0.3 0  0.375 0.3 0  0.4 0.3 0  0.425 0.3 0  0.45 0.3 0  0.475 0.3 0  0.5 0.3 0  0.525 0.3 0  0.55 0.3 0  0.575 0.3 0  0.6 0.3 0  0.625 0.3 0  0.65 0.3 0  0.675 0.3 0  0.7 0.3 0  0.725 0.3 0  0.75 0.3 0  0.775 0.3 0  0.8 0.3 0  0.825 0.3 0  0.85 0.3 0  0.875 0.3 0  0.9 0.3 0  0.925 0.3 0  0.95 0.3 0  0.975 0.3 0  1 0.3 0  0 0.325 0  0.025 0.325 0  0.05 0.325 0  0.075 0.325 0  0.1 0.325 0  0.125 0.325 0  0.15 0.325 0  0.175 0.325 0  0.2 0.325 0  0.225 0.325 0  0.25 0.325 0  0.275 0.325 0  0.3 0.325 0  0.325 0.325 0  0.35 0.325 0  0.375 0.325 0  0.4 0.325 0  0.425 0.325 0  0.45 0.325 0  0.475 0.325 0  0.5 0.325 0  0.525 0.325 0  0.55 0.325 0  0.575 0.325 0  0.6 0.325 0  0.625 0.325 0  0.65 0.325 0  0.675 0.325 0  0.7 0.325 0  0.725 0.325 0  0.75 0.325 0  0.775 0.325 0  0.8 0.325 0  0.825 0.325 0  0.85 0.325 0  0.875 0.325 0  0.9 0.325 0  0.925 0.325 0  0.95 0.325 0  0.975 0.325 0  1 0.325 0  0 0.35 0  0.025 0.35 0  0.05 0.35 0  0.075 0.35 0  0.1 0.35 0  0.125 0.35 0  0.15 0.35 0  0.175 0.35 0  0.2 0.35 0  0.225 0.35 0  0.25 0.35 0  0.275 0.35 0  0.3 0.35 0  0.325 0.35 0  0.35 0.35 0  0.375 0.35 0  0.4 0.35 0  0.425 0.35 0  0.45 0.35 0  0.475 0.35 0  0.5 0.35 0  0.525 0.35 0  0.55 0.35 0  0.575 0.35 0  0.6 0.35 0  0.625 0.35 0  0.65 0.35 0  0.675 0.35 0  0.7 0.35 0  0.725 0.35 0  0.75 0.35 0  0.775 0.35 0  0.8 0.35 0  0.825 0.35 0  0.85 0.35 0  0.875 0.35 0  0.9 0.35 0  0.925 0.35 0  0.95 0.35 0  0.975 0.35 0  1 0.35 0  0 0.375 0  0.025 0.375 0  0.05 0.375 0  0.075 0.375 0  0.1 0.375 0  0.125 0.375 0  0.15 0.375 0  0.175 0.375 0  0.2 0.375 0  0.225 0.375 0  0.25 0.375 0  0.275 0.375 0  0.3 0.375 0  0.325 0.375 0  0.35 0.375 0  0.375 0.375 0  0.4 0.375 0  0.425 0.375 0  0.45 0.375 0  0.475 0.375 0  0.5 0.375 0  0.525 0.375 0  0.55 0.375 0  0.575 0.375 0  0.6 0.375 0  0.625 0.375 0  0.65 0.375 0  0.675 0.375 0  0.7 0.375 0  0.725 0.375 0  0.75 0.375 0  0.775 0.375 0  0.8 0.375 0  0.825 0.375 0  0.85 0.375 0  0.875 0.375 0  0.9 0.375 0  0.925 0.375 0  0.95 0.375 0  0.975 0.375 0  1 0.375 0  0 0.4 0  0.025 0.4 0  0.05 0.4 0  0.075 0.4 0  0.1 0.4 0  0.125 0.4 0  0.15 0.4 0  0.175 0.4 0  0.2 0.4 0  0.225 0.4 0  0.25 0.4 0  0.275 0.4 0  0.3 0.4 0  0.325 0.4 0  0.35 0.4 0  0.375 0.4 0  0.4 0.4 0  0.425 0.4 0  0.45 0.4 0  0.475 0.4 0  0.5 0.4 0  0.525 0.4 0  0.55 0.4 0  0.575 0.4 0  0.6 0.4 0  0.625 0.4 0  0.65 0.4 0  0.675 0.4 0  0.7 0.4 0  0.725 0.4 0  0.75 0.4 0  0.775 0.4 0  0.8 0.4 0  0.825 0.4 0  0.85 0.4 0  0.875 0.4 0  0.9 0.4 0  0.925 0.4 0  0.95 0.4 0  0.975 0.4 0  1 0.4 0  0 0.425 0  0.025 0.425 0  0.05 0.425 0  0.075 0.425 0  0.1 0.425 0  0.125 0.425 0  0.15 0.425 0  0.175 0.425 0  0.2 0.425 0  0.225 0.425 0  0.25 0.425 0  0.275 0.425 0  0.3 0.425 0  0.325 0.425 0  0.35 0.425 0  0.375 0.425 0  0.4 0.425 0  0.425 0.425 0  0.45 0.425 0  0.475 0.425 0  0.5 0.425 0  0.525 0.425 0  0.55 0.425 0  0.575 0.425 0  0.6 0.425 0  0.625 0.425 0  0.65 0.425 0  0.675 0.425 0  0.7 0.425 0  0.725 0.425 0  0.75 0.425 0  0.775 0.425 0  0.8 0.425 0  0.825 0.425 0  0.85 0.425 0  0.875 0.425 0  0.9 0.425 0  0.925 0.425 0  0.95 0.425 0  0.975 0.425 0  1 0.425 0  0 0.45 0  0.02
[...]
<PointData  Scalars="ControlVisualisation"> 
<DataArray  type="Float64"  Name="ControlVisualisation"  format="ascii">2.0712848864792055e-01  1.5157563164290513e-01  1.5157716910763236e-01  1.5158000643995273e-01  1.5158409215685514e-01  1.5158933739843020e-01  1.5159562958034367e-01  1.5160283320508278e-01  1.5161078702012026e-01  1.5161930384680844e-01  1.5162817302540726e-01  1.5163716471674801e-01  1.5164603597194853e-01  1.5165453825234823e-01  1.5166242596448126e-01  1.5166946549022886e-01  1.5167544415838102e-01  1.5168017862622951e-01  1.5168352220402570e-01  1.5168537074328511e-01  1.5168566680793313e-01  1.5168440194379554e-01  1.5168161695491403e-01  1.5167740018006082e-01  1.5167188384892547e-01  1.5166523868323598e-01  1.5165766700039898e-01  1.5164939466861871e-01  1.5164066234967924e-01  1.5163171653320767e-01  1.5162280090009486e-01  1.5161414853540023e-01  1.5160597545420934e-01  1.5159847574161250e-01  1.5159181864789203e-01  1.5158614747079502e-01  1.5158158213977801e-01  1.5157821844473768e-01  1.5157613648308169e-01  1.5157525213467082e-01  3.1336774146266877e-01  1.5157563344626915e-01  8.2997093591607229e-02  8.3001467765185633e-02  8.3010036953442459e-02  8.3023076976524904e-02  8.3040214256890024e-02  8.3060871395229122e-02  8.3084389246300308e-02  8.3110048622384608e-02  8.3137094080261834e-02  8.3164759632045324e-02  8.3192292402419293e-02  8.3218972570920591e-02  8.3244129070958878e-02  8.3267151477092932e-02  8.3287498816329381e-02  8.3304706065900888e-02  8.3318388973476598e-02  8.3328247646197603e-02  8.3334069170612132e-02  8.3335729383658852e-02  8.3333193832609925e-02  8.3326517934497357e-02  8.3315846350029990e-02  8.3301411602173525e-02  8.3283531962375409e-02  8.3262608577022904e-02  8.3239121693659282e-02  8.3213625674010333e-02  8.3186742271901218e-02  8.3159151457690164e-02  8.3131578961742184e-02  8.3104779816606855e-02  8.3079517520844318e-02  8.3056539620340056e-02  8.3036551399002276e-02  8.3020190611803435e-02  8.3007987228888663e-02  8.3000226042367634e-02  8.2996403764119056e-02  1.5157525229015842e-01  1.5157719501087669e-01  8.3001519600661544e-02  8.3011187325753452e-02  8.3026298649584482e-02  8.3048183247276086e-02  8.3076266137740856e-02  8.3109238241829989e-02  8.3145577158386455e-02  8.3183744332817722e-02  8.3222304705664510e-02  8.3260003473907232e-02  8.3295809363657686e-02  8.3328925921443558e-02  8.3358776836468862e-02  8.3384974048429511e-02  8.3407277662214313e-02  8.3425555210097979e-02  8.3439745388362629e-02  8.3449828900162615e-02  8.3455807049997374e-02  8.3457687518061180e-02  8.3455476303285800e-02  8.3449174997657333e-02  8.3438783106137587e-02  8.3424305800818999e-02  8.3405768030088173e-02  8.3383236037651395e-02  8.3356846846449340e-02  8.3326844975393541e-02  8.3293623599509231e-02  8.3257764825978048e-02  8.3220071345071728e-02  8.3181580310092706e-02  8.3143550626900889e-02  8.3107417738694914e-02  8.3074711773776511e-02  8.3046933129912917e-02  8.3025315207066450e-02  8.3010277257946047e-02  8.3000255826882641e-02  1.5157614297281213e-01  1.5158014716751417e-01  8.3010384014496119e-02  8.3026778627913161e-02  8.3045187866610914e-02  8.3069543816546354e-02  8.3099956286197055e-02  8.3135034004609129e-02  8.3172952523996119e-02  8.3211879020481355e-02  8.3250176103630752e-02  8.3286510666608138e-02  8.3319901307392308e-02  8.3349714525380453e-02  8.3375622786356227e-02  8.3397539667355927e-02  8.3415546829956999e-02  8.3429824370910899e-02  8.3440591678670906e-02  8.3448061732367712e-02  8.3452408706499753e-02  8.3453747080420526e-02  8.3452120057873738e-02  8.3447495639739272e-02  8.3439769772147607e-02  8.3428777246177255e-02  8.3414312093032419e-02  8.3396159732250660e-02  8.3374142695728862e-02  8.3348180032265878e-02  8.3318357364846302e-02  8.3285000330679676e-02  8.3248739691578269e-02  8.3210553233696666e-02  8.3171768992477926e-02  8.3134016868588290e-02  8.3099114508752819e-02  8.3068853904294471e-02  8.3044525473790792e-02  8.3025756518031318e-02  8.3008234134211156e-02  1.5157827475287072e-01  1.5158456741219684e-01  8.3024367156605799e-02  8.3050198694476288e-02  8.3071201820302254e-02  8.3095894108084489e-02  8.3125844085128270e-02  8.3160014460530465e-02  8.3196629519173421e-02  8.3233850472056989e-02  8.3270046986183927e-02  8.3303926075874071e-02  8.3334581022988408e-02  8.3361481301986048e-02  8.3384420697092440e-02  8.3403441550183477e-02  8.3418751825515391e-02  8.3430647587624807e-02  8.3439448289952520e-02  8.3445447545732743e-02  8.3448878722695463e-02  8.3449893012585305e-02  8.3448547337190940e-02  8.3444800157835619e-02  8.3438514520937160e-02  8.3429469117869609e-02  8.3417379397973793e-02  8.3401931462559489e-02  8.3382831149290626e-02  8.3359868971696588e-02  8.3332998185538784e-02  8.3302418451321816e-02  8.3268652305470148e-02  8.3232597575282882e-02  8.3195537401899777e-02  8.3159090570679314e-02  8.3125077604911501e-02  8.3095233282723308e-02  8.3070467199197348e-02  8.3048830208787838e-02  8.3021199389701969e-02  1.5158182358503297e-01  1.5159055791291975e-01  8.3043711251112956e-02  8.3081778632764530e-02  8.3105332747442084e-02  8.3129535990021902e-02  8.3157922583102006e-02  8.3189990951188258e-02  8.3224148023649858e-02  8.3258663280771861e-02  8.3292002879565868e-02  8.3322970150562836e-02  8.3350752189728858e-02  8.3374904726247590e-02  8.3395295593218149e-02  8.3412026244383888e-02  8.3425348365345653e-02  8.3435587840890946e-02  8.3443082771869195e-02  8.3448137435240072e-02  8.3450990875575282e-02  8.3451797322113636e-02  8.3450615528511199e-02  8.3447404975489220e-02  8.3442028239863381e-02  8.3434260355691334e-02  8.3423807354832347e-02  8.3410337008862537e-02  8.3393524668367830e-02  8.3373115546952967e-02  8.3349001509372522e-02  8.3321305518208308e-02  8.3290461229724028e-02  8.3257270420556001e-02  8.3222918379677671e-02  8.3188926362880458e-02  8.3157005762448458e-02  8.3128703214554053e-02  8.3104365807882927e-02  8.3079962173483651e-02  8.3039437383893328e-02  1.5158686118603376e-01  1.5159825977005742e-01  8.3068628839602476e-02  8.3121223704170133e-02  8.3147110213390038e-02  8.3170238061428273e-02  8.3196353114208671e-02  8.3225531828205093e-02  8.3256408425789685e-02  8.3287411303243131e-02  8.3317152111289372e-02  8.3344570366722923e-02  8.3368973320481390e-02  8.3390013741434288e-02  8.3407629109277417e-02  8.3421962735023780e-02  8.3433283564896696e-02  8.3441915885726400e-02  8.3448184293295161e-02  8.3452374591478057e-02  8.3454708399902475e-02  8.3455328098638926e-02  8.3454288917671413e-02  8.3451555994123669e-02  8.3447005675693867e-02  8.3440431932754439e-02  8.3431560199234034e-02  8.3420071976931909e-02  8.3405643695426260e-02  8.3388002115925869e-02  8.3366995576195660e-02  8.3342675544990752e-02  8.3315376968131780e-02  8.3285780270716314e-02  8.3254934031625441e-02  8.3224214025978197e-02  8.3195172822324678e-02  8.3169127848218560e-02  8.3145829031404508e-02  8.3118917388664879e-02  8.3063168785767846e-02  1.5159350377283723e-01  1.5160785315382838e-01  8.3099376331372612e-02  8.3167930041453342e-02  8.3195359533192279e-02  8.3216706854292791e-02  8.3239885557753857e-02  8.3265463806372578e-02  8.3292298557580302e-02  8.3319004422434242e-02  8.3344373935469895e-02  8.3367516456163623e-02  8.3387886430010785e-02  8.3405251493124416e-02  8.3419626734639221e-02  8.3431196323936072e-02  8.3440238504734338e-02  8.3447063587489795e-02  8.3451968494438922e-02  8.3455206962783968e-02  8.3456972078625347e-02  8.3457387126368576e-02  8.3456501258106761e-02  8.3454287697128093e-02  8.3450643728866347e-02  8.3445393365259690e-02  8.3438295116784703e-02  8.3429058528906114e-02  8.3417373655514229e-02  8.3402956908026418e-02  8.3385614176741382e-02  8.3365317501256753e-02  8.3342285304454727e-02  8.3317049697462675e-02  8.3290489081410679e-02  8.3263798894241597e-02  8.3238346926753429e-02  8.3215230014325584e-02  8.3193697309127387e-02  8.3165105866181283e-02  8.3092639967265416e-02  1.5160190393592896e-01  1.5161954980383346e-01  8.3136213998027217e-02  8.3220972027666165e-02  8.3248338360356028e-02  8.3266934719021413e-02  8.3286455121345776e-02  8.3307723506434242e-02  8.3329766914324921e-02  8.3351397988042836e-02  8.3371619506285632e-02  8.3389741713503912e-02  8.3405392479194720e-02  8.3418472803411692e-02  8.3429085416820051e-02  8.3437457744378260e-02  8.3443873891124704e-02  8.3448623108664258e-02  8.3451966030495761e-02  8.3454115947245888e-02  8.3455230587699838e-02  8.3455409756567983e-02  8.3454695085449351e-02  8.3453069555399412e-02  8.3450456033977730e-02  8.3446715704377880e-02  8.3441648869408747e-02  8.3435002043548034e-02  8.3426486183612342e-02  8.3415810779998267e-02  8.3402736624846638e-02  8.3387145840212312e-02  8.3369121305807786e-02  8.3349020199963514e-02  8.3327519672570127e-02  8.3305606111092473e-02  8.3284452922181007e-02  8.3264994705061060e-02  8.3246227241497397e-02  8.3217607523843301e-02  8.3128102865947628e-02  1.5161224896444800e-01  1.5163358057152163e-01  8.3179351252751110e-02  8.3279022428088906e-02  8.3303696877412306e-02  8.3318212238631673e-02  8.3333256502036546e-02  8.3349495183829031e-02  8.3366011874262819e-02  8.3381810074861007e-02  8.3396126639952162e-02  8.3408502189473530e-02  8.3418763590368650e-02  8.3426963039218899e-02  8.3433300192695611e-02  8.3438047565271845e-02  8.3441491613601537e-02  8.3443894019468529e-02  8.3445471663981918e-02  8.3446390485737792e-02  8.3446767474339587e-02  8.3446675634072001e-02  8.3446148076407711e-02  8.3445178948895804e-02  8.3443720471365862e-02  8.3441676895017358e-02  8.3438897783978908e-02  8.3435174619196223e-02  8.3430246130253391e-02  8.3423818410946537e-02  8.3415604885724637e-02  8.3405387640835355e-02  8.3393095193059458e-02  8.3378883454803238e-02  8.3363198748126324e-02  8.3346795664101414e-02  8.3330663627756874e-02  8.3315695634222336e-02  8.3301060117134298e-02  8.3275094345706888e-02  8.3169763619382775e-02  1.5162475066088901e-01  1.5165017251099627e-01  8.3228871105944402e-02  8.3340258596395475e-02  8.3358425392495453e-02  8.3367104607040179e-02  8.3376746071312777e-02  8.3387238067122574e-02  8.3397529451192789e-02  8.3406780708565012e-02  8.3414478985216756e-02  8.3420423636727678e-02  8.3424666405658654e-02  8.3427428322842723e-02  8.3429014182757610e-02  8.3429741867730708e-02  8.3429895254770708e-02  8.3429701113218291e-02  8.3429324995910742e-02  8.3428879024821365e-02  8.3428434738813909e-02  8.3428035589469346e-02  8.3427705398850957e-02  8.3427450706641204e-02  8.3427256363602195e-02  8.3427075062163278e-02  8.3426812917168330e-02  8.3426314866054896e-02  8.3425355531555334e-02  8.3423642847433893e-02  8.3420842137182122e-02  8.3416626009454778e-02  8.3410749365272929e-02  8.3403139686317448e-02  8.3393983966048052e-02  8.3383790562905458e-02  8.3373403464850199e-02  8.3363873761049728e-02  8.3355171804936040e-02  8.3335736898375076e-02  8.3217709980201865e-02  1.5163962921996441e-01  1.5166950612016594e-01  8.3284618690409304e-02  8.3402281342115747e-02  8.3408864479505129e-02  8.3409508214297240e-02  8.3412729168757249e-02  8.3416798773194981e-02  8.3420243606831410e-02  8.3422310795451718e-02  8.3422744408699595e-02  8.3421631819505501e-02  8.3419278797907295e-02  8.3416094848931088e-02  8.3412498035294602e-02  8.3408850468967982e-02  8.3405426944928251e-02  8.3402411090944192e-02  8.3399909580170281e-02  8.3397974940771169e-02  8.3396629453270657e-02  8.3395884968826134e-02  8.3395755484919787e-02  8.3396260831407817e-02  8.3397420994209132e-02  8.3399241611721617e-02  8.3401692227327573e-02  8.3404680314481949e-02  8.3408026281149919e-02  8.3411447536685890e-02  8.3414562283053717e-02  8.3416923771581983e-02  8.3418090913318088e-02  8.3417731289234978e-02  8.3415742993389441e-02  8.3412384448852059e-02  8.3408431326975702e-02  8.3405389857375903e-02  8.3404878608299732e-02  8.3397118304700452e-02  8.3271804876776517e-02  1.5165708294476091e-01  1.5169163880173181e-01  8.3346032504605497e-02  8.3462056297017057e-02  8.3450820085200592e-02  8.3440858959513142e-02  8.3436626632550304e-02  8.3433717290974596e-02  8.3429833461004563e-02  8.3424192926526475e-02  8.3416795777923269e-02  8.3408055270161138e-02  8.3398571363094698e-02  8.3388968600650398e-02  8.3379788328276611e-02  8.3371434699478678e-02  8.3364165538531224e-02  8.3358112889427377e-02  8.3353318116615380e-02  8.3349770209382085e-02  8.3347440171566714e-02  8.3346307422955249e-02  8.3346375959241034e-02  8.3347679173004147e-02  8.3350273148091583e-02  8.3354218916965150e-02  8.3359554600600738e-02  8.3366259045042523e-02  8.3374210305327212e-02  8.3383146310910622e-02  8.3392641297546269e-02  8.3402116682743110e-02  8.3410903740193304e-02  8.3418365257126134e-02  8.3424071743887426e-02  8.3428037696138449e-02  8.3431096905609278e-02  8.3435623135658832e-02  8.3445943278338805e-02  8.3456167842756557e-02  8.3331526691783495e-02  1.5167723381718401e-01  1.5171637221239989e-01  8.3411884710531473e-02  8.3515871665694852e-02  8.3479802284437910e-02  8.3456540175310526e-02  8.3443991975330575e-02  8.3433809829863759e-02  8.3422340506820014e-02  8.3408607874554397e-02  8.3392874434131098e-02  8.3375947432688099e-02  8.3358789530881008e-02  8.3342282194713735e-02  8.3327103271773659e-02  8.3313694506634575e-02  8.3302287150919974e-02  8.3292954458229984e-02  8.3285669559677547e-02  8.3280357977290179e-02  8.3276940637342881e-02  8.3275365619031969e-02  8.3275627293117854e-02  8.3277771970076742e-02  8.3281890170472675e-02  8.3288096465882255e-02  8.3296497931305391e-02  8.3307150985600847e-02  8.3320005205377745e-02  8.3334836674962748e-02  8.3351184799120528e-02  8.3368322722827640e-02  8.3385301540196050e-02  8.3401099624048972e-02  8.3414889093881214e-02  8.3426443798968741e-02  8.3436838384805728e-02  8.3449859270606372e-02  8.3473796316629781e-02  8.3509107824622592e-02  8.3395725695326092e-02  1.5170003252555667e-01  1.5174302728292408e-01  8.3479874978219057e-02  8.3559269153172439e-02  8.3491366086584723e-02  8.3452511903133547e-02  8.3431338389224105e-02  8.3414103329794514e-02  8.3395122094153590e-02  8.3373028954508321e-02  8.3348412171421860e-02  8.3322625328560024e-02  8.3297124874503012e-02  8.3273115384979821e-02  8.3251421522949814e-02  8.3232508329839486e-02  8.3216567406374439e-02  8.3203610889061377e-02  8.3193549481056034e-02  8.3186253120906675e-02  8.3181598742528645e-02  8.3179506522468430e-02  8.3179962384297604e-02  8.3183024186300178e-02  8.3188811534551085e-02  8.3197482691271987e-02  8.3209203008268395e-02  8.3224103400340255e-02  8.3242219542049606e-02  8.3263398940445127e-02  8.3287176381517711e-02  8.3312663225374201e-02  8.3338539793915270e-02  8.3363239855503118e-02  8.3385375174735557e-02  8.3404436408163196e-02  8.3421972556413787e-02  8.3443881128691333e-02  8.3483845557963510e-02  8.3551371334378691e-02  8.3462248157176677e-02  1.5172509726443442e-01  1.5177007405166204e-01  8.3545995694438768e-02  8.3586858579943496e-02  8.3481510626505495e-02  8.3426197550824810e-02  8.3397370376339167e-02  8.3374225734893073e-02  8.3348217273685757e-02  8.3317439171337188e-02  8.3283061989832208e-02  8.3247347315055620e-02  8.3212498321816458e-02  8.3180124943258882e-02  8.3151170352525880e-02  8.3126074235500114e-02  8.3104970400905850e-02  8.3087824477207556e-02  8.3074511715007252e-02  8.3064868281891704e-02  8.3058738443636482e-02  8.3056018741283794e-02  8.3056688575044918e-02  8.3060817207491922e-02  8.3068545968332699e-02  8.3080056042202283e-02  8.3095536100441333e-02  8.3115158303145656e-02  8.3139048934158397e-02  8.3167192927417380e-02  8.3199219072937869e-02  8.3234113103520094e-02  8.3270045756045630e-02  8.3304568768903117e-02  8.3335333586541563e-02  8.3361338790172393e-02  8.3384853360000261e-02  8.3414773179917731e-02  8.3471809731804708e-02  8.3577393761029586e-02  8.3527352228645199e-02  1.5175144694651169e-01  1.5179454629358147e-01  8.3603534072830957e-02  8.3591867294263281e-02  8.3447124820209523e-02  8.3377786640681809e-02  8.3344891800746557e-02  8.3318543562616393e-02  8.3286333471685611e-02  8.3245917214958193e-02  8.3199862201677605e-02  8.3152215723009321e-02  8.3106381590229816e-02  8.3064370174068702e-02  8.3027046142217967e-02  8.2994682927354638e-02  8.2967348762608154e-02  8.2945035877983478e-02  8.2927661534647618e-02  8.2915070810694796e-02  8.2907084853396082e-02  8.2903573269610870e-02  8.2904510468746556e-02  8.2909986585295831e-02  8.2920167569924569e-02  8.2935224776252606e-02  8.2955280133332435e-02  8.2980432032517773e-02  8.3010846129157490e-02  8.3046763321703077e-02  8.3088215084419562e-02  8.3134320257811922e-02  8.3182587183960516e-02  8.3228978277639587e-02  8.3269194521282702e-02  8.3301044567132138e-02  8.3327650777864193e-02  8.3362072363116102e-02  8.3434055758658199e-02  8.3580144149972557e-02  8.3584808293117277e-02  1.5177707223845602e-01  1.5181113096545482e-01  8.3641622540681304e-02  8.3565519277598019e-02  8.3387008253645589e-02  8.3312837933000247e-02  8.3284474300360692e-02  8.3260056505023772e-02  8.3222071281952636e-02  8.3168757032631851e-02  8.3106532769402650e-02  8.3043286355745580e-02  8.2984198316679678e-02  8.2931116599130994e-02  8.2884074013787251e-02  8.2842854065216173e-02  8.2807571176511746e-02  8.2778503597134845e-02  8.2755796621955313e-02  8.2739361115940352e-02  8.2728969450138995e-02  8.2724425351427724e-02  8.2725693721640792e-02  8.2732925743350311e-02  8.2746362773972848e-02  8.2766152906422336e-02  8.2792203020464222e-02  8.2824231470452606e-02  8.2862109797234657e-02  8.2906436199145728e-02  8.2958478305890176e-02  8.3018521886672594e-02  8.3083627576696184e-02  8.3146830229344271e-02  8.3199360029873756e-02  8.3235712873030623e-02  8.3259585828225277e-02  8.3289894744909332e-02  8.3368235792738027e-02  8.3550344508402374e-02  8.3624575605430504e-02  1.5179828041077517e-01  1.5181127735664249e-01  8.3643666494240168e-02  8.3496762456407886e-02  8.3304393345352348e-02  8.3247718384623748e-02  8.3242081064293497e-02  8.3228672284535385e-02  8.3183465050101518e-02  8.3108977340415197e-02  8.3021916533964180e-02  8.2938721399408305e-02  8.2866615788624018e-02  8.2804391517508291e-02  8.2748693176779409e-02  8.2698231553257173e-02  8.2653827802653582e-02  8.2616817549663157e-02  8.2587945763411316e-02  8.2567185406924079e-02  8.2554089661524332e-02  8.2548244323823794e-02  8.2549577491313419e-02  8.2558427142637530e-02  8.2575331201208690e-02  8.2600566950039700e-02  8.2633606828058051e-02  8.2672867489120908e-02  8.2716720019963816e-02  8.2766014632641632e-02  8.2825434277251392e-02  8.2900423454459166e-02  8.2989777094711226e-02  8.3080949934892775e-02  8.3153994910002027e-02  8.3194118647190285e-02  8.3204275537539063e-02  8.3212046702716772e-02  8.3275479359059379e-02  8.3475922753636717e-02  8.3631210307314477e-02  1.5180881647764025e-01  1.5178233987801185e-01  8.3586403424412661e-02  8.3375801646121378e-02  8.3218510285438807e-02  8.3229239515064793e-02  8.3285678154767603e-02  8.3304409804613566e-02  8.3254551338916072e-02  8.3152762359736787e-02  8.3043882735663335e-02  8.2967199971646602e-02  8.2927461637602506e-02  8.2904542288754074e-02  8.2881055275462356e-02  8.2852864016740996e-02  8.2823832661183636e-02  8.2798578799195416e-02  8.2779233619492534e-02  8.2765531142282800e-02  8.2756113789573912e-02  8.2749789729634732e-02  8.2746303826993370e-02  8.2746532810120219e-02  8.2752035375424179e-02  8.2763878430382451e-02  8.2780870501063392e-02  8.2798382820273700e-02  8.2810562891118822e-02  8.2816998023104993e-02  8.2833073285775813e-02  8.2885551784640354e-02  8.2983483601498487e-02  8.3105880251178890e-02  8.3207499574124391e-02  8.3246494133328464e-02  8.3218690957737929e-02  8.3165576760022175e-02  8.3169014818459397e-02  8.3345074942183309e-02  8.3583210070871508e-02  1.5179898991083912e-01  1.5171393465131930e-01  8.3452868863781920e-02  8.3218001278951820e-02  8.3194515531583621e-02  8.3372170098423765e-02  8.3606187491215317e-02  8.3821208806420092e-02  8.4031497822208520e-02  8.432902951