<?xml version="1.0"?>
<VTKFile type="UnstructuredGrid"  version="0.1"  >
<UnstructuredGrid>
<Piece  NumberOfPoints="1681" NumberOfCells="3200">
<Points>
<DataArray  type="Float64"  NumberOfComponents="3"  format="ascii">0 0 0  0.025 0 0  0.05 0 0  0.075 0 0  0.1 0 0  0.125 0 0  0.15 0 0  0.175 0 0  0.2 0 0  0.225 0 0  0.25 0 0  0.275 0 0  0.3 0 0  0.325 0 0  0.35 0 0  0.375 0 0  0.4 0 0  0.425 0 0  0.45 0 0  0.475 0 0  0.5 0 0  0.525 0 0  0.55 0 0  0.575 0 0  0.6 0 0  0.625 0 0  0.65 0 0  0.675 0 0  0.7 0 0  0.725 0 0  0.75 0 0  0.775 0 0  0.8 0 0  0.825 0 0  0.85 0 0  0.875 0 0  0.9 0 0  0.925 0 0  0.95 0 0  0.975 0 0  1 0 0  0 0.025 0  0.025 0.025 0  0.05 0.025 0  0.075 0.025 0  0.1 0.025 0  0.125 0.025 0  0.15 0.025 0  0.175 0.025 0  0.2 0.025 0  0.225 0.025 0  0.25 0.025 0  0.275 0.025 0  0.3 0.025 0  0.325 0.025 0  0.35 0.025 0  0.375 0.025 0  0.4 0.025 0  0.425 0.025 0  0.45 0.025 0  0.475 0.025 0  0.5 0.025 0  0.525 0.025 0  0.55 0.025 0  0.575 0.025 0  0.6 0.025 0  0.625 0.025 0  0.65 0.025 0  0.675 0.025 0  0.7 0.025 0  0.725 0.025 0  0.75 0.025 0  0.775 0.025 0  0.8 0.025 0  0.825 0.025 0  0.85 0.025 0  0.875 0.025 0  0.9 0.025 0  0.925 0.025 0  0.95 0.025 0  0.975 0.025 0  1 0.025 0  0 0.05 0  0.025 0.05 0  0.05 0.05 0  0.075 0.05 0  0.1 0.05 0  0.125 0.05 0  0.15 0.05 0  0.175 0.05 0  0.2 0.05 0  0.225 0.05 0  0.25 0.05 0  0.275 0.05 0  0.3 0.05 0  0.325 0.05 0  0.35 0.05 0  0.375 0.05 0  0.4 0.05 0  0.425 0.05 0  0.45 0.05 0  0.475 0.05 0  0.5 0.05 0  0.525 0.05 0  0.55 0.05 0  0.575 0.05 0  0.6 0.05 0  0.625 0.05 0  0.65 0.05 0  0.675 0.05 0  0.7 0.05 0  0.725 0.05 0  0.75 0.05 0  0.775 0.05 0  0.8 0.05 0  0.825 0.05 0  0.85 0.05 0  0.875 0.05 0  0.9 0.05 0  0.925 0.05 0  0.95 0.05 0  0.975 0.05 0  1 0.05 0  0 0.075 0  0.025 0.075 0  0.05 0.075 0  0.075 0.075 0  0.1 0.075 0  0.125 0.075 0  0.15 0.075 0  0.175 0.075 0  0.2 0.075 0  0.225 0.075 0  0.25 0.075 0  0.275 0.075 0  0.3 0.075 0  0.325 0.075 0  0.35 0.075 0  0.375 0.075 0  0.4 0.075 0  0.425 0.075 0  0.45 0.075 0  0.475 0.075 0  0.5 0.075 0  0.525 0.075 0  0.55 0.075 0  0.575 0.075 0  0.6 0.075 0  0.625 0.075 0  0.65 0.075 0  0.675 0.075 0  0.7 0.075 0  0.725 0.075 0  0.75 0.075 0  0.775 0.075 0  0.8 0.075 0  0.825 0.075 0  0.85 0.075 0  0.875 0.075 0  0.9 0.075 0  0.925 0.075 0  0.95 0.075 0  0.975 0.075 0  1 0.075 0  0 0.1 0  0.025 0.1 0  0.05 0.1 0  0.075 0.1 0  0.1 0.1 0  0.125 0.1 0  0.15 0.1 0  0.175 0.1 0  0.2 0.1 0  0.225 0.1 0  0.25 0.1 0  0.275 0.1 0  0.3 0.1 0  0.325 0.1 0  0.35 0.1 0  0.375 0.1 0  0.4 0.1 0  0.425 0.1 0  0.45 0.1 0  0.475 0.1 0  0.5 0.1 0  0.525 0.1 0  0.55 0.1 0  0.575 0.1 0  0.6 0.1 0  0.625 0.1 0  0.65 0.1 0  0.675 0.1 0  0.7 0.1 0  0.725 0.1 0  0.75 0.1 0  0.775 0.1 0  0.8 0.1 0  0.825 0.1 0  0.85 0.1 0  0.875 0.1 0  0.9 0.1 0  0.925 0.1 0  0.95 0.1 0  0.975 0.1 0  1 0.1 0  0 0.125 0  0.025 0.125 0  0.05 0.125 0  0.075 0.125 0  0.1 0.125 0  0.125 0.125 0  0.15 0.125 0  0.175 0.125 0  0.2 0.125 0  0.225 0.125 0  0.25 0.125 0  0.275 0.125 0  0.3 0.125 0  0.325 0.125 0  0.35 0.125 0  0.375 0.125 0  0.4 0.125 0  0.425 0.125 0  0.45 0.125 0  0.475 0.125 0  0.5 0.125 0  0.525 0.125 0  0.55 0.125 0  0.575 0.125 0  0.6 0.125 0  0.625 0.125 0  0.65 0.125 0  0.675 0.125 0  0.7 0.125 0  0.725 0.125 0  0.75 0.125 0  0.775 0.125 0  0.8 0.125 0  0.825 0.125 0  0.85 0.125 0  0.875 0.125 0  0.9 0.125 0  0.925 0.125 0  0.95 0.125 0  0.975 0.125 0  1 0.125 0  0 0.15 0  0.025 0.15 0  0.05 0.15 0  0.075 0.15 0  0.1 0.15 0  0.125 0.15 0  0.15 0.15 0  0.175 0.15 0  0.2 0.15 0  0.225 0.15 0  0.25 0.15 0  0.275 0.15 0  0.3 0.15 0  0.325 0.15 0  0.35 0.15 0  0.375 0.15 0  0.4 0.15 0  0.425 0.15 0  0.45 0.15 0  0.475 0.15 0  0.5 0.15 0  0.525 0.15 0  0.55 0.15 0  0.575 0.15 0  0.6 0.15 0  0.625 0.15 0  0.65 0.15 0  0.675 0.15 0  0.7 0.15 0  0.725 0.15 0  0.75 0.15 0  0.775 0.15 0  0.8 0.15 0  0.825 0.15 0  0.85 0.15 0  0.875 0.15 0  0.9 0.15 0  0.925 0.15 0  0.95 0.15 0  0.975 0.15 0  1 0.15 0  0 0.175 0  0.025 0.175 0  0.05 0.175 0  0.075 0.175 0  0.1 0.175 0  0.125 0.175 0  0.15 0.175 0  0.175 0.175 0  0.2 0.175 0  0.225 0.175 0  0.25 0.175 0  0.275 0.175 0  0.3 0.175 0  0.325 0.175 0  0.35 0.175 0  0.375 0.175 0  0.4 0.175 0  0.425 0.175 0  0.45 0.175 0  0.475 0.175 0  0.5 0.175 0  0.525 0.175 0  0.55 0.175 0  0.575 0.175 0  0.6 0.175 0  0.625 0.175 0  0.65 0.175 0  0.675 0.175 0  0.7 0.175 0  0.725 0.175 0  0.75 0.175 0  0.775 0.175 0  0.8 0.175 0  0.825 0.175 0  0.85 0.175 0  0.875 0.175 0  0.9 0.175 0  0.925 0.175 0  0.95 0.175 0  0.975 0.175 0  1 0.175 0  0 0.2 0  0.025 0.2 0  0.05 0.2 0  0.075 0.2 0  0.1 0.2 0  0.125 0.2 0  0.15 0.2 0  0.175 0.2 0  0.2 0.2 0  0.225 0.2 0  0.25 0.2 0  0.275 0.2 0  0.3 0.2 0  0.325 0.2 0  0.35 0.2 0  0.375 0.2 0  0.4 0.2 0  0.425 0.2 0  0.45 0.2 0  0.475 0.2 0  0.5 0.2 0  0.525 0.2 0  0.55 0.2 0  0.575 0.2 0  0.6 0.2 0  0.625 0.2 0  0.65 0.2 0  0.675 0.2 0  0.7 0.2 0  0.725 0.2 0  0.75 0.2 0  0.775 0.2 0  0.8 0.2 0  0.825 0.2 0  0.85 0.2 0  0.875 0.2 0  0.9 0.2 0  0.925 0.2 0  0.95 0.2 0  0.975 0.2 0  1 0.2 0  0 0.225 0  0.025 0.225 0  0.05 0.225 0  0.075 0.225 0  0.1 0.225 0  0.125 0.225 0  0.15 0.225 0  0.175 0.225 0  0.2 0.225 0  0.225 0.225 0  0.25 0.225 0  0.275 0.225 0  0.3 0.225 0  0.325 0.225 0  0.35 0.225 0  0.375 0.225 0  0.4 0.225 0  0.425 0.225 0  0.45 0.225 0  0.475 0.225 0  0.5 0.225 0  0.525 0.225 0  0.55 0.225 0  0.575 0.225 0  0.6 0.225 0  0.625 0.225 0  0.65 0.225 0  0.675 0.225 0  0.7 0.225 0  0.725 0.225 0  0.75 0.225 0  0.775 0.225 0  0.8 0.225 0  0.825 0.225 0  0.85 0.225 0  0.875 0.225 0  0.9 0.225 0  0.925 0.225 0  0.95 0.225 0  0.975 0.225 0  1 0.225 0  0 0.25 0  0.025 0.25 0  0.05 0.25 0  0.075 0.25 0  0.1 0.25 0  0.125 0.25 0  0.15 0.25 0  0.175 0.25 0  0.2 0.25 0  0.225 0.25 0  0.25 0.25 0  0.275 0.25 0  0.3 0.25 0  0.325 0.25 0  0.35 0.25 0  0.375 0.25 0  0.4 0.25 0  0.425 0.25 0  0.45 0.25 0  0.475 0.25 0  0.5 0.25 0  0.525 0.25 0  0.55 0.25 0  0.575 0.25 0  0.6 0.25 0  0.625 0.25 0  0.65 0.25 0  0.675 0.25 0  0.7 0.25 0  0.725 0.25 0  0.75 0.25 0  0.775 0.25 0  0.8 0.25 0  0.825 0.25 0  0.85 0.25 0  0.875 0.25 0  0.9 0.25 0  0.925 0.25 0  0.95 0.25 0  0.975 0.25 0  1 0.25 0  0 0.275 0  0.025 0.275 0  0.05 0.275 0  0.075 0.275 0  0.1 0.275 0  0.125 0.275 0  0.15 0.275 0  0.175 0.275 0  0.2 0.275 0  0.225 0.275 0  0.25 0.275 0  0.275 0.275 0  0.3 0.275 0  0.325 0.275 0  0.35 0.275 0  0.375 0.275 0  0.4 0.275 0  0.425 0.275 0  0.45 0.275 0  0.475 0.275 0  0.5 0.275 0  0.525 0.275 0  0.55 0.275 0  0.575 0.275 0  0.6 0.275 0  0.625 0.275 0  0.65 0.275 0  0.675 0.275 0  0.7 0.275 0  0.725 0.275 0  0.75 0.275 0  0.775 0.275 0  0.8 0.275 0  0.825 0.275 0  0.85 0.275 0  0.875 0.275 0  0.9 0.275 0  0.925 0.275 0  0.95 0.275 0  0.975 0.275 0  1 0.275 0  0 0.3 0  0.025 0.3 0  0.05 0.3 0  0.075 0.3 0  0.1 0.3 0  0.125 0.3 0  0.15 0.3 0  0.175 0.3 0  0.2 0.3 0  0.225 0.3 0  0.25 0.3 0  0.275 0.3 0  0.3 0.3 0  0.325 0.3 0  0.35 0.3 0  0.375 0.3 0  0.4 0.3 0  0.425 0.3 0  0.45 0.3 0  0.475 0.3 0  0.5 0.3 0  0.525 0.3 0  0.55 0.3 0  0.575 0.3 0  0.6 0.3 0  0.625 0.3 0  0.65 0.3 0  0.675 0.3 0  0.7 0.3 0  0.725 0.3 0  0.75 0.3 0  0.775 0.3 0  0.8 0.3 0  0.825 0.3 0  0.85 0.3 0  0.875 0.3 0  0.9 0.3 0  0.925 0.3 0  0.95 0.3 0  0.975 0.3 0  1 0.3 0  0 0.325 0  0.025 0.325 0  0.05 0.325 0  0.075 0.325 0  0.1 0.325 0  0.125 0.325 0  0.15 0.325 0  0.175 0.325 0  0.2 0.325 0  0.225 0.325 0  0.25 0.325 0  0.275 0.325 0  0.3 0.325 0  0.325 0.325 0  0.35 0.325 0  0.375 0.325 0  0.4 0.325 0  0.425 0.325 0  0.45 0.325 0  0.475 0.325 0  0.5 0.325 0  0.525 0.325 0  0.55 0.325 0  0.575 0.325 0  0.6 0.325 0  0.625 0.325 0  0.65 0.325 0  0.675 0.325 0  0.7 0.325 0  0.725 0.325 0  0.75 0.325 0  0.775 0.325 0  0.8 0.325 0  0.825 0.325 0  0.85 0.325 0  0.875 0.325 0  0.9 0.325 0  0.925 0.325 0  0.95 0.325 0  0.975 0.325 0  1 0.325 0  0 0.35 0  0.025 0.35 0  0.05 0.35 0  0.075 0.35 0  0.1 0.35 0  0.125 0.35 0  0.15 0.35 0  0.175 0.35 0  0.2 0.35 0  0.225 0.35 0  0.25 0.35 0  0.275 0.35 0  0.3 0.35 0  0.325 0.35 0  0.35 0.35 0  0.375 0.35 0  0.4 0.35 0  0.425 0.35 0  0.45 0.35 0  0.475 0.35 0  0.5 0.35 0  0.525 0.35 0  0.55 0.35 0  0.575 0.35 0  0.6 0.35 0  0.625 0.35 0  0.65 0.35 0  0.675 0.35 0  0.7 0.35 0  0.725 0.35 0  0.75 0.35 0  0.775 0.35 0  0.8 0.35 0  0.825 0.35 0  0.85 0.35 0  0.875 0.35 0  0.9 0.35 0  0.925 0.35 0  0.95 0.35 0  0.975 0.35 0  1 0.35 0  0 0.375 0  0.025 0.375 0  0.05 0.375 0  0.075 0.375 0  0.1 0.375 0  0.125 0.375 0  0.15 0.375 0  0.175 0.375 0  0.2 0.375 0  0.225 0.375 0  0.25 0.375 0  0.275 0.375 0  0.3 0.375 0  0.325 0.375 0  0.35 0.375 0  0.375 0.375 0  0.4 0.375 0  0.425 0.375 0  0.45 0.375 0  0.475 0.375 0  0.5 0.375 0  0.525 0.375 0  0.55 0.375 0  0.575 0.375 0  0.6 0.375 0  0.625 0.375 0  0.65 0.375 0  0.675 0.375 0  0.7 0.375 0  0.725 0.375 0  0.75 0.375 0  0.775 0.375 0  0.8 0.375 0  0.825 0.375 0  0.85 0.375 0  0.875 0.375 0  0.9 0.375 0  0.925 0.375 0  0.95 0.375 0  0.975 0.375 0  1 0.375 0  0 0.4 0  0.025 0.4 0  0.05 0.4 0  0.075 0.4 0  0.1 0.4 0  0.125 0.4 0  0.15 0.4 0  0.175 0.4 0  0.2 0.4 0  0.225 0.4 0  0.25 0.4 0  0.275 0.4 0  0.3 0.4 0  0.325 0.4 0  0.35 0.4 0  0.375 0.4 0  0.4 0.4 0  0.425 0.4 0  0.45 0.4 0  0.475 0.4 0  0.5 0.4 0  0.525 0.4 0  0.55 0.4 0  0.575 0.4 0  0.6 0.4 0  0.625 0.4 0  0.65 0.4 0  0.675 0.4 0  0.7 0.4 0  0.725 0.4 0  0.75 0.4 0  0.775 0.4 0  0.8 0.4 0  0.825 0.4 0  0.85 0.4 0  0.875 0.4 0  0.9 0.4 0  0.925 0.4 0  0.95 0.4 0  0.975 0.4 0  1 0.4 0  0 0.425 0  0.025 0.425 0  0.05 0.425 0  0.075 0.425 0  0.1 0.425 0  0.125 0.425 0  0.15 0.425 0  0.175 0.425 0  0.2 0.425 0  0.225 0.425 0  0.25 0.425 0  0.275 0.425 0  0.3 0.425 0  0.325 0.425 0  0.35 0.425 0  0.375 0.425 0  0.4 0.425 0  0.425 0.425 0  0.45 0.425 0  0.475 0.425 0  0.5 0.425 0  0.525 0.425 0  0.55 0.425 0  0.575 0.425 0  0.6 0.425 0  0.625 0.425 0  0.65 0.425 0  0.675 0.425 0  0.7 0.425 0  0.725 0.425 0  0.75 0.425 0  0.775 0.425 0  0.8 0.425 0  0.825 0.425 0  0.85 0.425 0  0.875 0.425 0  0.9 0.425 0  0.925 0.425 0  0.95 0.425 0  0.975 0.425 0  1 0.425 0  0 0.45 0  0.02
[...]
<PointData  Scalars="ControlVisualisation"> 
<DataArray  type="Float64"  Name="ControlVisualisation"  format="ascii">2.1567047119824351e-02  1.4486693114115252e-02  1.4486944319939844e-02  1.4487364340363513e-02  1.4487941830884503e-02  1.4488663176331604e-02  1.4489510692140247e-02  1.4490463421549622e-02  1.4491497562504219e-02  1.4492587011502056e-02  1.4493704021743886e-02  1.4494819930622131e-02  1.4495905936523491e-02  1.4496933894152610e-02  1.4497877096464027e-02  1.4498711013450573e-02  1.4499413962405540e-02  1.4499967689795513e-02  1.4500357850801129e-02  1.4500574377716660e-02  1.4500611732452163e-02  1.4500469041084669e-02  1.4500150109927284e-02  1.4499663323362087e-02  1.4499021424413035e-02  1.4498241180218707e-02  1.4497342936696597e-02  1.4496350070163680e-02  1.4495288348388429e-02  1.4494185218965231e-02  1.4493069048579669e-02  1.4491968341276683e-02  1.4490910966778759e-02  1.4489923428446402e-02  1.4489030202549972e-02  1.4488253155506021e-02  1.4487611100807988e-02  1.4487119181995146e-02  1.4486790592906652e-02  1.4486626356028105e-02  4.2074738330541275e-02  1.4486693620825896e-02  7.2972607801460344e-03  7.2975244551026931e-03  7.2979867686070931e-03  7.2986425862387487e-03  7.2994761402217518e-03  7.3004670168108007e-03  7.3015908521655631e-03  7.3028196819009388e-03  7.3041226000487829e-03  7.3054665207782409e-03  7.3068170348760111e-03  7.3081393360854589e-03  7.3093991796796291e-03  7.3105638348848036e-03  7.3116029942112944e-03  7.3124896073329245e-03  7.3132006136066869e-03  7.3137175543874769e-03  7.3140270527364817e-03  7.3141211534186292e-03  7.3139975197398684e-03  7.3136594860423029e-03  7.3131159658972721e-03  7.3123812169664133e-03  7.3114744649619232e-03  7.3104193914756655e-03  7.3092434943718768e-03  7.3079773348873386e-03  7.3066536919809324e-03  7.3053066513244901e-03  7.3039706622227384e-03  7.3026795995591335e-03  7.3014658680654217e-03  7.3003595867955611e-03  7.2993878643646893e-03  7.2985742338511203e-03  7.2979381307658360e-03  7.2974943305074390e-03  7.2972372290891537e-03  1.4486626428118985e-02  1.4486950274283802e-02  7.2975291407335469e-03  7.2978648053262339e-03  7.2983973376652966e-03  7.2991546758223542e-03  7.3001196141760406e-03  7.3012687418211285e-03  7.3025738339575243e-03  7.3040024357695112e-03  7.3055186314189688e-03  7.3070839167906484e-03  7.3086582012873037e-03  7.3102008929703316e-03  7.3116720223501373e-03  7.3130333586349074e-03  7.3142494742471573e-03  7.3152887194121623e-03  7.3161240768431354e-03  7.3167338752331522e-03  7.3171023480845723e-03  7.3172200305694707e-03  7.3170839913025594e-03  7.3166978981399474e-03  7.3160719181933715e-03  7.3152224528740635e-03  7.3141717098980201e-03  7.3129471167126736e-03  7.3115805840729201e-03  7.3101076348737809e-03  7.3085664211697795e-03  7.3069966607672799e-03  7.3054385324812015e-03  7.3039315744859463e-03  7.3025136312337424e-03  7.3012198937575119e-03  7.3000820527118846e-03  7.2991276687799020e-03  7.2983791887940843e-03  7.2978516597668828e-03  7.2974981711237995e-03  1.4486792450332275e-02  1.4487392819001301e-02  7.2980129864922885e-03  7.2984214595443611e-03  7.2989604083782342e-03  7.2997232026015008e-03  7.3006951409966591e-03  7.3018529723799640e-03  7.3031682719688559e-03  7.3046083383621445e-03  7.3061369326587761e-03  7.3077151747390264e-03  7.3093025704065529e-03  7.3108581224428865e-03  7.3123414791932406e-03  7.3137140702899135e-03  7.3149401831929242e-03  7.3159879419201325e-03  7.3168301590018255e-03  7.3174450415273333e-03  7.3178167405421671e-03  7.3179357391698098e-03  7.3177990785913954e-03  7.3174104224314534e-03  7.3167799601230868e-03  7.3159241494696265e-03  7.3148652986508526e-03  7.3136309897134594e-03  7.3122533495492172e-03  7.3107681807826792e-03  7.3092139734875156e-03  7.3076308283681560e-03  7.3060593312879556e-03  7.3045394260516814e-03  7.3031093346074844e-03  7.3018045741608468e-03  7.3006570936677249e-03  7.2996946073224170e-03  7.2989393954728107e-03  7.2984024939406721e-03  7.2979610818144991e-03  1.4487132254290790e-02  1.4488030485977998e-02  7.2987298227085206e-03  7.2992479978608331e-03  7.2997927407445614e-03  7.3005569237699682e-03  7.3015304865585761e-03  7.3026904907420526e-03  7.3040084951859320e-03  7.3054517241803721e-03  7.3069837911394365e-03  7.3085656250280297e-03  7.3101565243283680e-03  7.3117152986527465e-03  7.3132014435016201e-03  7.3145762928880937e-03  7.3158041010079836e-03  7.3168530145122620e-03  7.3176959086400737e-03  7.3183110718942701e-03  7.3186827329562928e-03  7.3188014295253465e-03  7.3186642216173962e-03  7.3182747521524632e-03  7.3176431560113978e-03  7.3167858167707683e-03  7.3157249689289536e-03  7.3144881439542427e-03  7.3131074617580278e-03  7.3116187756454565e-03  7.3100606881339996e-03  7.3084734663653346e-03  7.3068978974417430e-03  7.3053741335677254e-03  7.3039405812972569e-03  7.3026328908140951e-03  7.3014830703706053e-03  7.3005188028171129e-03  7.2997619645539576e-03  7.2992177319596502e-03  7.2986526285535461e-03  1.4487660444189112e-02  1.4488878622175815e-02  7.2996967158910787e-03  7.3003651956924827e-03  7.3009179347745734e-03  7.3016840476422739e-03  7.3026598969281832e-03  7.3038228776045131e-03  7.3051445144750784e-03  7.3065918964169757e-03  7.3081284155941811e-03  7.3097147291899178e-03  7.3113098540653308e-03  7.3128723518865492e-03  7.3143615389168904e-03  7.3157386591458295e-03  7.3169679690655081e-03  7.3180176964355650e-03  7.3188608502020858e-03  7.3194758718698461e-03  7.3198471284262583e-03  7.3199652524925359e-03  7.3198273369668165e-03  7.3194369899390235e-03  7.3188042519992348e-03  7.3179453737833647e-03  7.3168824482635429e-03  7.3156428910399543e-03  7.3142587640829242e-03  7.3127659446195290e-03  7.3112031511548756e-03  7.3096108520648243e-03  7.3080300969282771e-03  7.3065013240842195e-03  7.3050632057260643e-03  7.3037515959236115e-03  7.3025986148876655e-03  7.3016319446200717e-03  7.3008729723924590e-03  7.3003191434584599e-03  7.2995892198138793e-03  1.4488387721666884e-02  1.4489956772339201e-02  7.3009361860001763e-03  7.3017995153611725e-03  7.3023632488564754e-03  7.3031325920177494e-03  7.3041122514869525e-03  7.3052800113550861e-03  7.3066072800407247e-03  7.3080608907906963e-03  7.3096038822020818e-03  7.3111965087138140e-03  7.3127973952178075e-03  7.3143647807590063e-03  7.3158577725382376e-03  7.3172375411526928e-03  7.3184684027340456e-03  7.3195187526508354e-03  7.3203618341121882e-03  7.3209763400995768e-03  7.3213468574481909e-03  7.3214641664663587e-03  7.3213254095598401e-03  7.3209341382661818e-03  7.3203002419965583e-03  7.3194397547236834e-03  7.3183745298977601e-03  7.3171317703548322e-03  7.3157434005072979e-03  7.3142452738017248e-03  7.3126762194953262e-03  7.3110769487298418e-03  7.3094888586352812e-03  7.3079527916413266e-03  7.3065078201766638e-03  7.3051901352617363e-03  7.3040320843151983e-03  7.3030614301354286e-03  7.3022990098646342e-03  7.3017325002649545e-03  7.3007923163834858e-03  1.4489330852667745e-02  1.4491289239140122e-02  7.3024767018007742e-03  7.3035843289693779e-03  7.3041628598197426e-03  7.3049375664164537e-03  7.3059235508658431e-03  7.3070989690349076e-03  7.3084349446261784e-03  7.3098978566646291e-03  7.3114501860691789e-03  7.3130516009355046e-03  7.3146601956681594e-03  7.3162338103880901e-03  7.3177313364558702e-03  7.3191139304376518e-03  7.3203460809632900e-03  7.3213964983113037e-03  7.3222388195272178e-03  7.3228521388494679e-03  7.3232213834901853e-03  7.3233375579258757e-03  7.3231978772986704e-03  7.3228058039208066e-03  7.3221709913649444e-03  7.3213091306375848e-03  7.3202416837597310e-03  7.3189954835936651e-03  7.3176021770040385e-03  7.3160974927823762e-03  7.3145203271541941e-03  7.3129116581291519e-03  7.3113133234566554e-03  7.3097667221087795e-03  7.3083115195536402e-03  7.3069844519580108e-03  7.3058182911725032e-03  7.3048410399410187e-03  7.3040729790959640e-03  7.3034898160860440e-03  7.3022888769006117e-03  1.4490510861438117e-02  1.4492905045421365e-02  7.3043526028025397e-03  7.3057601377945480e-03  7.3063585720308322e-03  7.3071421659662763e-03  7.3081385912086762e-03  7.3093262361092048e-03  7.3106756343526147e-03  7.3121523825368838e-03  7.3137180944057769e-03  7.3153315995099777e-03  7.3169502968182401e-03  7.3185315666370095e-03  7.3200341289155766e-03  7.3214192627299897e-03  7.3226518337318929e-03  7.3237011093562742e-03  7.3245413686067176e-03  7.3251523314908015e-03  7.3255194418665598e-03  7.3256340382540494e-03  7.3254934411967091e-03  7.3251009759698043e-03  7.3244659366610513e-03  7.3236034842162068e-03  7.3225344584545177e-03  7.3212850740565268e-03  7.3198864653416145e-03  7.3183740467079794e-03  7.3167866661923335e-03  7.3151655499188138e-03  7.3135530638642355e-03  7.3119913525914295e-03  7.3105209450495343e-03  7.3091794421440651e-03  7.3080003700262660e-03  7.3070122687085640e-03  7.3062349752828666e-03  7.3056298795656539e-03  7.3041114229624327e-03  1.4491953269736645e-02  1.4494837640404981e-02  7.3066039622292694e-03  7.3083746239823843e-03  7.3090001277693415e-03  7.3097984343695214e-03  7.3108120326485660e-03  7.3120191736702799e-03  7.3133892563960199e-03  7.3148865593222201e-03  7.3164713673257113e-03  7.3181013354205330e-03  7.3197329897999354e-03  7.3213232420424410e-03  7.3228307870863239e-03  7.3242172968314076e-03  7.3254483655710726e-03  7.3264942043587827e-03  7.3273301113048438e-03  7.3279367620238157e-03  7.3283003699554589e-03  7.3284127628366613e-03  7.3282714119378145e-03  7.3278794373430722e-03  7.3272455969121686e-03  7.3263842500602373e-03  7.3253152713895842e-03  7.3240638751789714e-03  7.3226603022191585e-03  7.3211393183290939e-03  7.3195394820023685e-03  7.3179021589703302e-03  7.3162702945930259e-03  7.3146869972533987e-03  7.3131940291536494e-03  7.3118303397239929e-03  7.3106307531674609e-03  7.3096248837153481e-03  7.3088324623868722e-03  7.3081981130070179e-03  7.3062978032404384e-03  1.4493687905538963e-02  1.4497124100550807e-02  7.3092759320582132e-03  7.3114822289109555e-03  7.3121453093725830e-03  7.3129680174859480e-03  7.3140098293028076e-03  7.3152480669745187e-03  7.3166500448870898e-03  7.3181778629991317e-03  7.3197898037309934e-03  7.3214419244801042e-03  7.3230897321304297e-03  7.3246897875872234e-03  7.3262011000514524e-03  7.3275862312423244e-03  7.3288120875499062e-03  7.3298504250472896e-03  7.3306781216148564e-03  7.3312772826847278e-03  7.3316352462942753e-03  7.3317445438521494e-03  7.3316028592677685e-03  7.3312130129433491e-03  7.3305829799762386e-03  7.3297259332044395e-03  7.3286602830927635e-03  7.3274096680366911e-03  7.3260028338771616e-03  7.3244733329550097e-03  7.3228589754610026e-03  7.3212009829910297e-03  7.3195428288779941e-03  7.3179288006191244e-03  7.3164023777050344e-03  7.3150045760795278e-03  7.3137724006967020e-03  7.3127374853865883e-03  7.3119202076621041e-03  7.3112460225622563e-03  7.3088904934982823e-03  1.4495748359382325e-02  1.4499803348744671e-02  7.3124171349086813e-03  7.3151429102707452e-03  7.3158596115045580e-03  7.3167229490284430e-03  7.3178111514439143e-03  7.3190990540810304e-03  7.3205502562649818e-03  7.3221233216240744e-03  7.3237735818089626e-03  7.3254550204021754e-03  7.3271221142626802e-03  7.3287314644771388e-03  7.3302430851121857e-03  7.3316213005087255e-03  7.3328352705837752e-03  7.3338592103333157e-03  7.3346723912364239e-03  7.3352590131019304e-03  7.3356080236314401e-03  7.3357129463641575e-03  7.3355717606512693e-03  7.3351868607769710e-03  7.3345651050786198e-03  7.3337179479020815e-03  7.3326616270864625e-03  7.3314173580319650e-03  7.3300114643813415e-03  7.3284753585922020e-03  7.3268452779511216e-03  7.3251616897723332e-03  7.3234683094578435e-03  7.3218107298246380e-03  7.3202347327172177e-03  7.3187844345314638e-03  7.3175004293700614e-03  7.3164180059711505e-03  7.3155596999669144e-03  7.3148297646297407e-03  7.3119349621981753e-03  1.4498170722733690e-02  1.4502912612523223e-02  7.3160763282654343e-03  7.3194193916665037e-03  7.3202151349314043e-03  7.3211465077572197e-03  7.3223111789572940e-03  7.3236785543561323e-03  7.3252057589572959e-03  7.3268457291777054e-03  7.3285495901192410e-03  7.3302688496214114e-03  7.3319573091228680e-03  7.3335725468379881e-03  7.3350768927741153e-03  7.3364379153709053e-03  7.3376285083777693e-03  7.3386266993074340e-03  7.3394153012586762e-03  7.3399815101914574e-03  7.3403165233939206e-03  7.3404152311335588e-03  7.3402760163542857e-03  7.3399006858369540e-03  7.3392945456776035e-03  7.3384666206794697e-03  7.3374299984264530e-03  7.3362022556187319e-03  7.3348058978282516e-03  7.3332687174686587e-03  7.3316239526878164e-03  7.3299101197459200e-03  7.3281704042383851e-03  7.3264515442259225e-03  7.3248022195773503e-03  7.3232710645356599e-03  7.3219044595264583e-03  7.3207441362640934e-03  7.3198176808536254e-03  7.3190071511489794e-03  7.3154763809178472e-03  1.4500991055445143e-02  1.4506480732452321e-02  7.3202959730926465e-03  7.3243717652242335e-03  7.3252882090810755e-03  7.3263343412260460e-03  7.3276255348504729e-03  7.3291203385963269e-03  7.3307648112055906e-03  7.3325031617291828e-03  7.3342808331153791e-03  7.3360468694167996e-03  7.3377555869051881e-03  7.3393675194967185e-03  7.3408496891640574e-03  7.3421753495427960e-03  7.3433233929065308e-03  7.3442776028926167e-03  7.3450258944039760e-03  7.3455596305725514e-03  7.3458730624882907e-03  7.3459629108269427e-03  7.3458280998327250e-03  7.3454696574441003e-03  7.3448907992970909e-03  7.3440972111530126e-03  7.3430975302088090e-03  7.3419040034687450e-03  7.3405332731609667e-03  7.3390072069601650e-03  7.3373536530120130e-03  7.3356069570494889e-03  7.3338080548874685e-03  7.3320039694954823e-03  7.3302466128289502e-03  7.3285909133215914e-03  7.3270923505572415e-03  7.3258037771284238e-03  7.3247632205967229e-03  7.3238319344595291e-03  7.3195533970846563e-03  1.4504240595744667e-02  1.4510515841717293e-02  7.3251002984961368e-03  7.3300475559165959e-03  7.3311551224997263e-03  7.3323965191473186e-03  7.3338980061756192e-03  7.3355974356654691e-03  7.3374223449762990e-03  7.3393039123307840e-03  7.3411806295835278e-03  7.3430002922428564e-03  7.3447206761747307e-03  7.3463091607949482e-03  7.3477416100736674e-03  7.3490008665435423e-03  7.3500751740252050e-03  7.3509567506230304e-03  7.3516406239467081e-03  7.3521237485106306e-03  7.3524043681873937e-03  7.3524815696131233e-03  7.3523549903323875e-03  7.3520246813289763e-03  7.3514911558524116e-03  7.3507556691074331e-03  7.3498207647172053e-03  7.3486911030058739e-03  7.3473745659065372e-03  7.3458836127201221e-03  7.3442368094738088e-03  7.3424603774457095e-03  7.3405895136760138e-03  7.3386691483408369e-03  7.3367538359737968e-03  7.3349066235640602e-03  7.3331967996594534e-03  7.3316960019184424e-03  7.3304625781151905e-03  7.3293434396670618e-03  7.3241867287920344e-03  1.4507936987871521e-02  1.4514982919782251e-02  7.3304735824698168e-03  7.3364641850157831e-03  7.3378854725220863e-03  7.3394624358697957e-03  7.3413151024736018e-03  7.3433431219677645e-03  7.3454439120580932e-03  7.3475303920393521e-03  7.3495342886947760e-03  7.3514062555598168e-03  7.3531139468954567e-03  7.3546388612663769e-03  7.3559727094702158e-03  7.3571139549353142e-03  7.3580649470917567e-03  7.3588298142804130e-03  7.3594130795522957e-03  7.3598188387800781e-03  7.3600502931757952e-03  7.3601094490932393e-03  7.3599968739910850e-03  7.3597114984113726e-03  7.3592505366064757e-03  7.3586096304627648e-03  7.3577833050979223e-03  7.3567657963346245e-03  7.3555523163243430e-03  7.3541408423860458e-03  7.3525345032088851e-03  7.3507445904126695e-03  7.3487939021384474e-03  7.3467198441545950e-03  7.3445766732625163e-03  7.3424363978624903e-03  7.3403880597116711e-03  7.3385341173939737e-03  7.3369710635603309e-03  7.3355483789765601e-03  7.3293586279418845e-03  1.4512068456571155e-02  1.4519762940126956e-02  7.3363211361983146e-03  7.3435792354259958e-03  7.3455338998074026e-03  7.3476938135136781e-03  7.3501351993354109e-03  7.3526892728867600e-03  7.3552067410262052e-03  7.3575778966642478e-03  7.3597323805128703e-03  7.3616340740362178e-03  7.3632734859437011e-03  7.3646592839340750e-03  7.3658104280952593e-03  7.3667499207637271e-03  7.3675005421409666e-03  7.3680824155663276e-03  7.3685119677407351e-03  7.3688017602451788e-03  7.3689606875052020e-03  7.3689941389943336e-03  7.3689039079573764e-03  7.3686878548920977e-03  7.3683395104069405e-03  7.3678478494130775e-03  7.3671973936690277e-03  7.3663687159101453e-03  7.3653394489491507e-03  7.3640860467444500e-03  7.3625868631348023e-03  7.3608269871913955e-03  7.3588045644287182e-03  7.3565381903267302e-03  7.3540738001144652e-03  7.3514896467957221e-03  7.3488999793419486e-03  7.3464554202609007e-03  7.3443219826792600e-03  7.3423898703728879e-03  7.3349761833859401e-03  1.4516565395433252e-02  1.4524579362201657e-02  7.3423997019223383e-03  7.3512424513957576e-03  7.3541354812135347e-03  7.3573192999077741e-03  7.3607488635024625e-03  7.3641378591111657e-03  7.3672709170814346e-03  7.3700177935552931e-03  7.3723216989739476e-03  7.3741826711823475e-03  7.3756389158682271e-03  7.3767488089249104e-03  7.3775763341285272e-03  7.3781813975330665e-03  7.3786147685152483e-03  7.3789164845008241e-03  7.3791164292428433e-03  7.3792359670520318e-03  7.3792896949083277e-03  7.3792865846873624e-03  7.3792301451313172e-03  7.3791177077231493e-03  7.3789393187837912e-03  7.3786767707291392e-03  7.3783030188124743e-03  7.3777819006651518e-03  7.3770680644400935e-03  7.3761076159097336e-03  7.3748408841594077e-03  7.3732081691669331e-03  7.3711608407772723e-03  7.3686772239235365e-03  7.3657773141615843e-03  7.3625339653705232e-03  7.3590855300563222e-03  7.3556504506776315e-03  7.3525166086064984e-03  7.3496965501640473e-03  7.3408061322152267e-03  1.4521249434076547e-02  1.4528858069592303e-02  7.3481929922176031e-03  7.3591270303311898e-03  7.3637293472490492e-03  7.3687291033796452e-03  7.3738088450130681e-03  7.3784976387377531e-03  7.3825048939128749e-03  7.3857018165423144e-03  7.3880838120380637e-03  7.3897335361571160e-03  7.3907825425091229e-03  7.3913763920317403e-03  7.3916501466287825e-03  7.3917159329056998e-03  7.3916596659006906e-03  7.3915430988529757e-03  7.3914084300174578e-03  7.3912837095330619e-03  7.3911876322339427e-03  7.3911324713507179e-03  7.3911244880870202e-03  7.3911621669311856e-03  7.3912335227997658e-03  7.3913138080985872e-03  7.3913640425113522e-03  7.3913296198585719e-03  7.3911379621937551e-03  7.3906956131321536e-03  7.3898865154875338e-03  7.3885767264599798e-03  7.3866357845490897e-03  7.3839614078268830e-03  7.3805104788306633e-03  7.3763229442379763e-03  7.3715381572034902e-03  7.3664454207436388e-03  7.3615329358250022e-03  7.3571061756727667e-03  7.3463606795854137e-03  1.4525741679274957e-02  1.4531506519189058e-02  7.3527273486044915e-03  7.3666732356611761e-03  7.3744820691852208e-03  7.3827070182309841e-03  7.3904925016227072e-03  7.3971307211166170e-03  7.4022980674344572e-03  7.4059328807457026e-03  7.4081596872000582e-03  7.4092319409043289e-03  7.4094567643586901e-03  7.4091267787470333e-03  7.4084825286233500e-03  7.4077031188809588e-03  7.4069121205446392e-03  7.4061887835285365e-03  7.4055804243931206e-03  7.4051145810640788e-03  7.4048092996569573e-03  7.4046792323303736e-03  7.4047359790063196e-03  7.4049834258329422e-03  7.4054112926496551e-03  7.4059905356522460e-03  7.4066716743971042e-03  7.4073833233841381e-03  7.4080266617965974e-03  7.4084640584565599e-03  7.4085050047915883e-03  7.4079073134854460e-03  7.4063907180038878e-03  7.4036701999490489e-03  7.3995844198053414e-03  7.3941246828625427e-03  7.3873516795446717e-03  7.3795309618078630e-03  7.3714264834427732e-03  7.3639752598513653e-03  7.3506991881412461e-03  1.4529296266349282e-02  1.4530498882879637e-02  7.3541892558108800e-03  7.3730508780681849e-03  7.3871508567950874e-03  7.4011586618643365e-03  7.4132236914746675e-03  7.4225848218650199e-03  7.4291423104490837e-03  7.432999209