<?xml version="1.0"?>
<VTKFile type="UnstructuredGrid"  version="0.1"  >
<UnstructuredGrid>
<Piece  NumberOfPoints="1681" NumberOfCells="3200">
<Points>
<DataArray  type="Float64"  NumberOfComponents="3"  format="ascii">0 0 0  0.025 0 0  0.05 0 0  0.075 0 0  0.1 0 0  0.125 0 0  0.15 0 0  0.175 0 0  0.2 0 0  0.225 0 0  0.25 0 0  0.275 0 0  0.3 0 0  0.325 0 0  0.35 0 0  0.375 0 0  0.4 0 0  0.425 0 0  0.45 0 0  0.475 0 0  0.5 0 0  0.525 0 0  0.55 0 0  0.575 0 0  0.6 0 0  0.625 0 0  0.65 0 0  0.675 0 0  0.7 0 0  0.725 0 0  0.75 0 0  0.775 0 0  0.8 0 0  0.825 0 0  0.85 0 0  0.875 0 0  0.9 0 0  0.925 0 0  0.95 0 0  0.975 0 0  1 0 0  0 0.025 0  0.025 0.025 0  0.05 0.025 0  0.075 0.025 0  0.1 0.025 0  0.125 0.025 0  0.15 0.025 0  0.175 0.025 0  0.2 0.025 0  0.225 0.025 0  0.25 0.025 0  0.275 0.025 0  0.3 0.025 0  0.325 0.025 0  0.35 0.025 0  0.375 0.025 0  0.4 0.025 0  0.425 0.025 0  0.45 0.025 0  0.475 0.025 0  0.5 0.025 0  0.525 0.025 0  0.55 0.025 0  0.575 0.025 0  0.6 0.025 0  0.625 0.025 0  0.65 0.025 0  0.675 0.025 0  0.7 0.025 0  0.725 0.025 0  0.75 0.025 0  0.775 0.025 0  0.8 0.025 0  0.825 0.025 0  0.85 0.025 0  0.875 0.025 0  0.9 0.025 0  0.925 0.025 0  0.95 0.025 0  0.975 0.025 0  1 0.025 0  0 0.05 0  0.025 0.05 0  0.05 0.05 0  0.075 0.05 0  0.1 0.05 0  0.125 0.05 0  0.15 0.05 0  0.175 0.05 0  0.2 0.05 0  0.225 0.05 0  0.25 0.05 0  0.275 0.05 0  0.3 0.05 0  0.325 0.05 0  0.35 0.05 0  0.375 0.05 0  0.4 0.05 0  0.425 0.05 0  0.45 0.05 0  0.475 0.05 0  0.5 0.05 0  0.525 0.05 0  0.55 0.05 0  0.575 0.05 0  0.6 0.05 0  0.625 0.05 0  0.65 0.05 0  0.675 0.05 0  0.7 0.05 0  0.725 0.05 0  0.75 0.05 0  0.775 0.05 0  0.8 0.05 0  0.825 0.05 0  0.85 0.05 0  0.875 0.05 0  0.9 0.05 0  0.925 0.05 0  0.95 0.05 0  0.975 0.05 0  1 0.05 0  0 0.075 0  0.025 0.075 0  0.05 0.075 0  0.075 0.075 0  0.1 0.075 0  0.125 0.075 0  0.15 0.075 0  0.175 0.075 0  0.2 0.075 0  0.225 0.075 0  0.25 0.075 0  0.275 0.075 0  0.3 0.075 0  0.325 0.075 0  0.35 0.075 0  0.375 0.075 0  0.4 0.075 0  0.425 0.075 0  0.45 0.075 0  0.475 0.075 0  0.5 0.075 0  0.525 0.075 0  0.55 0.075 0  0.575 0.075 0  0.6 0.075 0  0.625 0.075 0  0.65 0.075 0  0.675 0.075 0  0.7 0.075 0  0.725 0.075 0  0.75 0.075 0  0.775 0.075 0  0.8 0.075 0  0.825 0.075 0  0.85 0.075 0  0.875 0.075 0  0.9 0.075 0  0.925 0.075 0  0.95 0.075 0  0.975 0.075 0  1 0.075 0  0 0.1 0  0.025 0.1 0  0.05 0.1 0  0.075 0.1 0  0.1 0.1 0  0.125 0.1 0  0.15 0.1 0  0.175 0.1 0  0.2 0.1 0  0.225 0.1 0  0.25 0.1 0  0.275 0.1 0  0.3 0.1 0  0.325 0.1 0  0.35 0.1 0  0.375 0.1 0  0.4 0.1 0  0.425 0.1 0  0.45 0.1 0  0.475 0.1 0  0.5 0.1 0  0.525 0.1 0  0.55 0.1 0  0.575 0.1 0  0.6 0.1 0  0.625 0.1 0  0.65 0.1 0  0.675 0.1 0  0.7 0.1 0  0.725 0.1 0  0.75 0.1 0  0.775 0.1 0  0.8 0.1 0  0.825 0.1 0  0.85 0.1 0  0.875 0.1 0  0.9 0.1 0  0.925 0.1 0  0.95 0.1 0  0.975 0.1 0  1 0.1 0  0 0.125 0  0.025 0.125 0  0.05 0.125 0  0.075 0.125 0  0.1 0.125 0  0.125 0.125 0  0.15 0.125 0  0.175 0.125 0  0.2 0.125 0  0.225 0.125 0  0.25 0.125 0  0.275 0.125 0  0.3 0.125 0  0.325 0.125 0  0.35 0.125 0  0.375 0.125 0  0.4 0.125 0  0.425 0.125 0  0.45 0.125 0  0.475 0.125 0  0.5 0.125 0  0.525 0.125 0  0.55 0.125 0  0.575 0.125 0  0.6 0.125 0  0.625 0.125 0  0.65 0.125 0  0.675 0.125 0  0.7 0.125 0  0.725 0.125 0  0.75 0.125 0  0.775 0.125 0  0.8 0.125 0  0.825 0.125 0  0.85 0.125 0  0.875 0.125 0  0.9 0.125 0  0.925 0.125 0  0.95 0.125 0  0.975 0.125 0  1 0.125 0  0 0.15 0  0.025 0.15 0  0.05 0.15 0  0.075 0.15 0  0.1 0.15 0  0.125 0.15 0  0.15 0.15 0  0.175 0.15 0  0.2 0.15 0  0.225 0.15 0  0.25 0.15 0  0.275 0.15 0  0.3 0.15 0  0.325 0.15 0  0.35 0.15 0  0.375 0.15 0  0.4 0.15 0  0.425 0.15 0  0.45 0.15 0  0.475 0.15 0  0.5 0.15 0  0.525 0.15 0  0.55 0.15 0  0.575 0.15 0  0.6 0.15 0  0.625 0.15 0  0.65 0.15 0  0.675 0.15 0  0.7 0.15 0  0.725 0.15 0  0.75 0.15 0  0.775 0.15 0  0.8 0.15 0  0.825 0.15 0  0.85 0.15 0  0.875 0.15 0  0.9 0.15 0  0.925 0.15 0  0.95 0.15 0  0.975 0.15 0  1 0.15 0  0 0.175 0  0.025 0.175 0  0.05 0.175 0  0.075 0.175 0  0.1 0.175 0  0.125 0.175 0  0.15 0.175 0  0.175 0.175 0  0.2 0.175 0  0.225 0.175 0  0.25 0.175 0  0.275 0.175 0  0.3 0.175 0  0.325 0.175 0  0.35 0.175 0  0.375 0.175 0  0.4 0.175 0  0.425 0.175 0  0.45 0.175 0  0.475 0.175 0  0.5 0.175 0  0.525 0.175 0  0.55 0.175 0  0.575 0.175 0  0.6 0.175 0  0.625 0.175 0  0.65 0.175 0  0.675 0.175 0  0.7 0.175 0  0.725 0.175 0  0.75 0.175 0  0.775 0.175 0  0.8 0.175 0  0.825 0.175 0  0.85 0.175 0  0.875 0.175 0  0.9 0.175 0  0.925 0.175 0  0.95 0.175 0  0.975 0.175 0  1 0.175 0  0 0.2 0  0.025 0.2 0  0.05 0.2 0  0.075 0.2 0  0.1 0.2 0  0.125 0.2 0  0.15 0.2 0  0.175 0.2 0  0.2 0.2 0  0.225 0.2 0  0.25 0.2 0  0.275 0.2 0  0.3 0.2 0  0.325 0.2 0  0.35 0.2 0  0.375 0.2 0  0.4 0.2 0  0.425 0.2 0  0.45 0.2 0  0.475 0.2 0  0.5 0.2 0  0.525 0.2 0  0.55 0.2 0  0.575 0.2 0  0.6 0.2 0  0.625 0.2 0  0.65 0.2 0  0.675 0.2 0  0.7 0.2 0  0.725 0.2 0  0.75 0.2 0  0.775 0.2 0  0.8 0.2 0  0.825 0.2 0  0.85 0.2 0  0.875 0.2 0  0.9 0.2 0  0.925 0.2 0  0.95 0.2 0  0.975 0.2 0  1 0.2 0  0 0.225 0  0.025 0.225 0  0.05 0.225 0  0.075 0.225 0  0.1 0.225 0  0.125 0.225 0  0.15 0.225 0  0.175 0.225 0  0.2 0.225 0  0.225 0.225 0  0.25 0.225 0  0.275 0.225 0  0.3 0.225 0  0.325 0.225 0  0.35 0.225 0  0.375 0.225 0  0.4 0.225 0  0.425 0.225 0  0.45 0.225 0  0.475 0.225 0  0.5 0.225 0  0.525 0.225 0  0.55 0.225 0  0.575 0.225 0  0.6 0.225 0  0.625 0.225 0  0.65 0.225 0  0.675 0.225 0  0.7 0.225 0  0.725 0.225 0  0.75 0.225 0  0.775 0.225 0  0.8 0.225 0  0.825 0.225 0  0.85 0.225 0  0.875 0.225 0  0.9 0.225 0  0.925 0.225 0  0.95 0.225 0  0.975 0.225 0  1 0.225 0  0 0.25 0  0.025 0.25 0  0.05 0.25 0  0.075 0.25 0  0.1 0.25 0  0.125 0.25 0  0.15 0.25 0  0.175 0.25 0  0.2 0.25 0  0.225 0.25 0  0.25 0.25 0  0.275 0.25 0  0.3 0.25 0  0.325 0.25 0  0.35 0.25 0  0.375 0.25 0  0.4 0.25 0  0.425 0.25 0  0.45 0.25 0  0.475 0.25 0  0.5 0.25 0  0.525 0.25 0  0.55 0.25 0  0.575 0.25 0  0.6 0.25 0  0.625 0.25 0  0.65 0.25 0  0.675 0.25 0  0.7 0.25 0  0.725 0.25 0  0.75 0.25 0  0.775 0.25 0  0.8 0.25 0  0.825 0.25 0  0.85 0.25 0  0.875 0.25 0  0.9 0.25 0  0.925 0.25 0  0.95 0.25 0  0.975 0.25 0  1 0.25 0  0 0.275 0  0.025 0.275 0  0.05 0.275 0  0.075 0.275 0  0.1 0.275 0  0.125 0.275 0  0.15 0.275 0  0.175 0.275 0  0.2 0.275 0  0.225 0.275 0  0.25 0.275 0  0.275 0.275 0  0.3 0.275 0  0.325 0.275 0  0.35 0.275 0  0.375 0.275 0  0.4 0.275 0  0.425 0.275 0  0.45 0.275 0  0.475 0.275 0  0.5 0.275 0  0.525 0.275 0  0.55 0.275 0  0.575 0.275 0  0.6 0.275 0  0.625 0.275 0  0.65 0.275 0  0.675 0.275 0  0.7 0.275 0  0.725 0.275 0  0.75 0.275 0  0.775 0.275 0  0.8 0.275 0  0.825 0.275 0  0.85 0.275 0  0.875 0.275 0  0.9 0.275 0  0.925 0.275 0  0.95 0.275 0  0.975 0.275 0  1 0.275 0  0 0.3 0  0.025 0.3 0  0.05 0.3 0  0.075 0.3 0  0.1 0.3 0  0.125 0.3 0  0.15 0.3 0  0.175 0.3 0  0.2 0.3 0  0.225 0.3 0  0.25 0.3 0  0.275 0.3 0  0.3 0.3 0  0.325 0.3 0  0.35 0.3 0  0.375 0.3 0  0.4 0.3 0  0.425 0.3 0  0.45 0.3 0  0.475 0.3 0  0.5 0.3 0  0.525 0.3 0  0.55 0.3 0  0.575 0.3 0  0.6 0.3 0  0.625 0.3 0  0.65 0.3 0  0.675 0.3 0  0.7 0.3 0  0.725 0.3 0  0.75 0.3 0  0.775 0.3 0  0.8 0.3 0  0.825 0.3 0  0.85 0.3 0  0.875 0.3 0  0.9 0.3 0  0.925 0.3 0  0.95 0.3 0  0.975 0.3 0  1 0.3 0  0 0.325 0  0.025 0.325 0  0.05 0.325 0  0.075 0.325 0  0.1 0.325 0  0.125 0.325 0  0.15 0.325 0  0.175 0.325 0  0.2 0.325 0  0.225 0.325 0  0.25 0.325 0  0.275 0.325 0  0.3 0.325 0  0.325 0.325 0  0.35 0.325 0  0.375 0.325 0  0.4 0.325 0  0.425 0.325 0  0.45 0.325 0  0.475 0.325 0  0.5 0.325 0  0.525 0.325 0  0.55 0.325 0  0.575 0.325 0  0.6 0.325 0  0.625 0.325 0  0.65 0.325 0  0.675 0.325 0  0.7 0.325 0  0.725 0.325 0  0.75 0.325 0  0.775 0.325 0  0.8 0.325 0  0.825 0.325 0  0.85 0.325 0  0.875 0.325 0  0.9 0.325 0  0.925 0.325 0  0.95 0.325 0  0.975 0.325 0  1 0.325 0  0 0.35 0  0.025 0.35 0  0.05 0.35 0  0.075 0.35 0  0.1 0.35 0  0.125 0.35 0  0.15 0.35 0  0.175 0.35 0  0.2 0.35 0  0.225 0.35 0  0.25 0.35 0  0.275 0.35 0  0.3 0.35 0  0.325 0.35 0  0.35 0.35 0  0.375 0.35 0  0.4 0.35 0  0.425 0.35 0  0.45 0.35 0  0.475 0.35 0  0.5 0.35 0  0.525 0.35 0  0.55 0.35 0  0.575 0.35 0  0.6 0.35 0  0.625 0.35 0  0.65 0.35 0  0.675 0.35 0  0.7 0.35 0  0.725 0.35 0  0.75 0.35 0  0.775 0.35 0  0.8 0.35 0  0.825 0.35 0  0.85 0.35 0  0.875 0.35 0  0.9 0.35 0  0.925 0.35 0  0.95 0.35 0  0.975 0.35 0  1 0.35 0  0 0.375 0  0.025 0.375 0  0.05 0.375 0  0.075 0.375 0  0.1 0.375 0  0.125 0.375 0  0.15 0.375 0  0.175 0.375 0  0.2 0.375 0  0.225 0.375 0  0.25 0.375 0  0.275 0.375 0  0.3 0.375 0  0.325 0.375 0  0.35 0.375 0  0.375 0.375 0  0.4 0.375 0  0.425 0.375 0  0.45 0.375 0  0.475 0.375 0  0.5 0.375 0  0.525 0.375 0  0.55 0.375 0  0.575 0.375 0  0.6 0.375 0  0.625 0.375 0  0.65 0.375 0  0.675 0.375 0  0.7 0.375 0  0.725 0.375 0  0.75 0.375 0  0.775 0.375 0  0.8 0.375 0  0.825 0.375 0  0.85 0.375 0  0.875 0.375 0  0.9 0.375 0  0.925 0.375 0  0.95 0.375 0  0.975 0.375 0  1 0.375 0  0 0.4 0  0.025 0.4 0  0.05 0.4 0  0.075 0.4 0  0.1 0.4 0  0.125 0.4 0  0.15 0.4 0  0.175 0.4 0  0.2 0.4 0  0.225 0.4 0  0.25 0.4 0  0.275 0.4 0  0.3 0.4 0  0.325 0.4 0  0.35 0.4 0  0.375 0.4 0  0.4 0.4 0  0.425 0.4 0  0.45 0.4 0  0.475 0.4 0  0.5 0.4 0  0.525 0.4 0  0.55 0.4 0  0.575 0.4 0  0.6 0.4 0  0.625 0.4 0  0.65 0.4 0  0.675 0.4 0  0.7 0.4 0  0.725 0.4 0  0.75 0.4 0  0.775 0.4 0  0.8 0.4 0  0.825 0.4 0  0.85 0.4 0  0.875 0.4 0  0.9 0.4 0  0.925 0.4 0  0.95 0.4 0  0.975 0.4 0  1 0.4 0  0 0.425 0  0.025 0.425 0  0.05 0.425 0  0.075 0.425 0  0.1 0.425 0  0.125 0.425 0  0.15 0.425 0  0.175 0.425 0  0.2 0.425 0  0.225 0.425 0  0.25 0.425 0  0.275 0.425 0  0.3 0.425 0  0.325 0.425 0  0.35 0.425 0  0.375 0.425 0  0.4 0.425 0  0.425 0.425 0  0.45 0.425 0  0.475 0.425 0  0.5 0.425 0  0.525 0.425 0  0.55 0.425 0  0.575 0.425 0  0.6 0.425 0  0.625 0.425 0  0.65 0.425 0  0.675 0.425 0  0.7 0.425 0  0.725 0.425 0  0.75 0.425 0  0.775 0.425 0  0.8 0.425 0  0.825 0.425 0  0.85 0.425 0  0.875 0.425 0  0.9 0.425 0  0.925 0.425 0  0.95 0.425 0  0.975 0.425 0  1 0.425 0  0 0.45 0  0.02
[...]
<PointData  Scalars="ControlVisualisation"> 
<DataArray  type="Float64"  Name="ControlVisualisation"  format="ascii">3.4608211037713577e-01  2.8941858886864807e-01  2.8941701381218954e-01  2.8937948836994359e-01  2.8930247852127716e-01  2.8918990299290948e-01  2.8904612834194970e-01  2.8887589553666332e-01  2.8868453580852343e-01  2.8847796191304659e-01  2.8826248673703431e-01  2.8804460429052736e-01  2.8783077270595564e-01  2.8762721482769210e-01  2.8743974351393181e-01  2.8727361424491543e-01  2.8713340522562825e-01  2.8702292339617802e-01  2.8694513369265379e-01  2.8690210849474618e-01  2.8689499437328153e-01  2.8692399390053103e-01  2.8698836126524174e-01  2.8708641159730069e-01  2.8721554509200964e-01  2.8737228808117421e-01  2.8755235396244899e-01  2.8775072722909001e-01  2.8796177359474168e-01  2.8817937831483026e-01  2.8839711313002192e-01  2.8860843003710829e-01  2.8880687629445528e-01  2.8898631862266427e-01  2.8914115073353180e-01  2.8926640049849883e-01  2.8935763164871009e-01  2.8941072902475395e-01  2.8942471681113130e-01  2.8941342586713376e-01  4.1670325894617216e-01  2.8941867092008688e-01  1.8426182610493000e-01  1.8412041080093292e-01  1.8378461569978938e-01  1.8322434550431524e-01  1.8245466110272526e-01  1.8150529833999571e-01  1.8041043730510647e-01  1.7920723768259650e-01  1.7793465444662349e-01  1.7663191204640941e-01  1.7533704445424325e-01  1.7408568587324585e-01  1.7291019141684050e-01  1.7183908241335860e-01  1.7089677070086839e-01  1.7010349735210983e-01  1.6947541556503837e-01  1.6902475112547385e-01  1.6875998317161861e-01  1.6868600024536412e-01  1.6880419995769602e-01  1.6911251405844452e-01  1.6960535399231780e-01  1.7027348526937025e-01  1.7110385242610943e-01  1.7207939003219616e-01  1.7317886862755244e-01  1.7437683642159285e-01  1.7564372589889166e-01  1.7694619598172362e-01  1.7824777167559663e-01  1.7950981783294995e-01  1.8069283970682384e-01  1.8175801797624713e-01  1.8266875316534198e-01  1.8339214999452913e-01  1.8390162225508258e-01  1.8418932243987735e-01  1.8428949010763004e-01  2.8941344041981770e-01  2.8941758405775014e-01  1.8411951430133228e-01  1.8361166056740377e-01  1.8277021161478049e-01  1.8150948512066023e-01  1.7983264066201771e-01  1.7780105482397449e-01  1.7549507622148700e-01  1.7300150362081959e-01  1.7040723446035297e-01  1.6779499157742772e-01  1.6524017809894495e-01  1.6280890559081060e-01  1.6055713568323066e-01  1.5853072572140708e-01  1.5676611144536473e-01  1.5529135963755394e-01  1.5412736136000796e-01  1.5328898879357236e-01  1.5278609074915372e-01  1.5262424578128589e-01  1.5280522497049148e-01  1.5332714000165126e-01  1.5418426940590541e-01  1.5536657099257042e-01  1.5685890610675909e-01  1.5864002562714261e-01  1.6068140168354758e-01  1.6294603386291340e-01  1.6538741133399015e-01  1.6794886423277963e-01  1.7056357392957350e-01  1.7315550889231901e-01  1.7564149423633996e-01  1.7793449653680193e-01  1.7994823150840519e-01  1.8160418777491305e-01  1.8284692315905587e-01  1.8368450260616184e-01  1.8418938607628516e-01  2.8942499000840238e-01  2.8938048973340114e-01  1.8377492472384793e-01  1.8274786715074773e-01  1.8154950678925746e-01  1.7997123058166006e-01  1.7793813427739710e-01  1.7549994072466590e-01  1.7274948077934690e-01  1.6979194748778764e-01  1.6673229819587004e-01  1.6366884379026825e-01  1.6068932675000455e-01  1.5786887047780090e-01  1.5526942281179965e-01  1.5294032139118852e-01  1.5091958463815308e-01  1.4923556622690992e-01  1.4790868378367364e-01  1.4695301469046906e-01  1.4637762519487510e-01  1.4618755496961680e-01  1.4638441680595030e-01  1.4696659365305670e-01  1.4792902824542226e-01  1.4926261043309402e-01  1.5095318058008467e-01  1.5298019034006102e-01  1.5531510023088560e-01  1.5791964997740543e-01  1.6074421137190065e-01  1.6372651552035117e-01  1.6679111874135133e-01  1.6985000571315048e-01  1.7280471616834331e-01  1.7555038475307358e-01  1.7798263557518515e-01  1.8001121525888655e-01  1.8159492362327323e-01  1.8282760924223609e-01  1.8389699285363567e-01  2.8941181174405745e-01  2.8930138313266368e-01  1.8318022082839772e-01  1.8140569109098861e-01  1.7987289861112926e-01  1.7814728418202955e-01  1.7601189370021914e-01  1.7347500232577490e-01  1.7062204376626641e-01  1.6755980635053375e-01  1.6439674271963561e-01  1.6123447409711023e-01  1.5816330637942386e-01  1.5526009221077922e-01  1.5258775675554459e-01  1.5019601860328710e-01  1.4812285564493644e-01  1.4639632522291918e-01  1.4503643398719979e-01  1.4405684456390672e-01  1.4346628550384158e-01  1.4326958983667812e-01  1.4346832566805146e-01  1.4406100378596981e-01  1.4504285844573006e-01  1.4640520525643663e-01  1.4813439149902249e-01  1.5021037616407384e-01  1.5260501570933221e-01  1.5528019107387031e-01  1.5818599142435300e-01  1.6125926204916682e-01  1.6442291039317541e-01  1.6758642149053238e-01  1.7064807927622425e-01  1.7349959354945721e-01  1.7603516395630034e-01  1.7817283194680048e-01  1.7991579920676753e-01  1.8150934417614986e-01  1.8336301754932854e-01  2.8935888424094958e-01  2.8917955572552212e-01  1.8232085385609437e-01  1.7952751179967075e-01  1.7759585437297601e-01  1.7575732684659673e-01  1.7359452821492513e-01  1.7105519526332366e-01  1.6820911532006555e-01  1.6515910568749761e-01  1.6201242175222488e-01  1.5886993370249930e-01  1.5582111641139673e-01  1.5294182701436274e-01  1.5029387952820333e-01  1.4792584716490159e-01  1.4587460677446368e-01  1.4416722224163631e-01  1.4282285878654899e-01  1.4185451715678793e-01  1.4127045830934629e-01  1.4107524842528121e-01  1.4127039145914919e-01  1.4185453657690797e-01  1.4282325738417179e-01  1.4416840590230273e-01  1.4587705405695434e-01  1.4793005612799401e-01  1.5030030372778796e-01  1.5295080502951747e-01  1.5583280246079823e-01  1.5888424040829807e-01  1.6202899120521014e-01  1.6517732702032947e-01  1.6822823708816476e-01  1.7107464351561885e-01  1.7361490905230309e-01  1.7578371578317659e-01  1.7764804251052807e-01  1.7966263174611033e-01  1.8256839634074898e-01  2.8926386414474747e-01  2.8901269217122677e-01  1.8118683740705738e-01  1.7709658376727094e-01  1.7467634966693424e-01  1.7271537822890143e-01  1.7054366349886160e-01  1.6803229242375137e-01  1.6523024542581985e-01  1.6223412865782136e-01  1.5914836070066704e-01  1.5607156369877520e-01  1.5309096217325913e-01  1.5028010093770119e-01  1.4769849984340055e-01  1.4539255602981555e-01  1.4339717460468435e-01  1.4173771347141903e-01  1.4043193412345203e-01  1.3949175250785370e-01  1.3892466736171322e-01  1.3873480240575584e-01  1.3892353468031871e-01  1.3948969951362508e-01  1.4042937001097106e-01  1.4173521285027627e-01  1.4339542989630458e-01  1.4539231396624805e-01  1.4770048393437352e-01  1.5028492444048230e-01  1.5309903999658037e-01  1.5608303600585594e-01  1.5916304719125657e-01  1.6225153940977738e-01  1.6524970484535087e-01  1.6805333953003937e-01  1.7056729496213099e-01  1.7274805305087954e-01  1.7474228015506188e-01  1.7726588816087399e-01  1.8150207244591154e-01  2.8912539787591640e-01  2.8879690267820407e-01  1.7976478517516117e-01  1.7410600132395654e-01  1.7110614023375334e-01  1.6900053990457428e-01  1.6682131713288514e-01  1.6434880642275806e-01  1.6160665460310544e-01  1.5868361375329651e-01  1.5568035245352646e-01  1.5269246176236609e-01  1.4980411853169306e-01  1.4708574746624845e-01  1.4459378592426395e-01  1.4237171695386150e-01  1.4045181015582511e-01  1.3885714377869982e-01  1.3760360123030096e-01  1.3670164301332802e-01  1.3615774017018115e-01  1.3597541367258836e-01  1.3615585821443799e-01  1.3669814465230171e-01  1.3759900016374230e-01  1.3885216649459112e-01  1.4044734187207411e-01  1.4236872868169032e-01  1.4459324414359045e-01  1.4708851094733216e-01  1.4981083141566884e-01  1.5270345765927676e-01  1.5569559185262205e-01  1.5870268960568004e-01  1.6162893899575911e-01  1.6437394813711689e-01  1.6685076703899787e-01  1.6904221699407426e-01  1.7118834353859472e-01  1.7431085980624547e-01  1.8015078136441928e-01  2.8894042177914703e-01  2.8852708196552224e-01  1.7803910627090203e-01  1.7055462533214905e-01  1.6689154269775675e-01  1.6461516617637634e-01  1.6242285130052864e-01  1.5999259404313154e-01  1.5731845590647703e-01  1.5447969178211737e-01  1.5157241720526171e-01  1.4868857708007682e-01  1.4590868346342334e-01  1.4329940000707661e-01  1.4091343967714087e-01  1.3879075916268771e-01  1.3696043472671499e-01  1.3544277869921365e-01  1.3425139212724002e-01  1.3339496334075032e-01  1.3287870903752161e-01  1.3270541182019391e-01  1.3287603978575038e-01  1.3338994669285834e-01  1.3424465307916919e-01  1.3543520703186804e-01  1.3695312558957026e-01  1.3878493154593996e-01  1.4091033342540649e-01  1.4330015544858715e-01  1.4591421311714226e-01  1.4869944626728562e-01  1.5158876053249279e-01  1.5450121099011027e-01  1.5734459617733396e-01  1.6002315740594616e-01  1.6245982378790405e-01  1.6466797327437052e-01  1.6699209161120984e-01  1.7079582129331794e-01  1.7849900340918359e-01  2.8870447937072424e-01  2.8819709025637780e-01  1.7599386476258916e-01  1.6644908837562949e-01  1.6205125657207320e-01  1.5957652894416885e-01  1.5736077884568533e-01  1.5497119868816825e-01  1.5236846051968958e-01  1.4962065998595378e-01  1.4681854208171161e-01  1.4404981173933140e-01  1.4139073356271331e-01  1.3890360126800821e-01  1.3663678963461776e-01  1.3462614242968238e-01  1.3289700955914055e-01  1.3146647539071710e-01  1.3034547718108222e-01  1.2954063456632398e-01  1.2905569953031798e-01  1.2889259201481193e-01  1.2905201502655111e-01  1.2953365262657510e-01  1.3033595259518732e-01  1.3145549049395527e-01  1.3288591074959036e-01  1.3461645091000052e-01  1.3663008552497868e-01  1.3890138401339533e-01  1.4139426795230983e-01  1.4405997834697659e-01  1.4683572515055740e-01  1.4964473190926775e-01  1.5239899058678999e-01  1.5500820217212805e-01  1.5740686455944758e-01  1.5964264408879281e-01  1.6217226766857520e-01  1.6672695679014457e-01  1.7653044455246333e-01  2.8841198033687598e-01  2.8779979302683029e-01  1.7361454222669465e-01  1.6180720679284574e-01  1.5661882567053431e-01  1.5391761022961312e-01  1.5166350635797535e-01  1.4930818433343837e-01  1.4677577431222205e-01  1.4412158812623879e-01  1.4143016312340967e-01  1.3878435882067555e-01  1.3625559536015844e-01  1.3390116636703864e-01  1.3176447041654188e-01  1.2987662951417164e-01  1.2825871714259252e-01  1.2692411675223400e-01  1.2588071486766961e-01  1.2513276427976117e-01  1.2468234248650628e-01  1.2453038394234668e-01  1.2467728958070953e-01  1.2512312253170466e-01  1.2586739337910360e-01  1.2690842934145213e-01  1.2824231673463760e-01  1.2986141268366777e-01  1.3175244887500509e-01  1.3389430618679210e-01  1.3625563228828233e-01  1.3879261017427630e-01  1.4144737642685304e-01  1.4414790312072431e-01  1.4681096322707765e-01  1.4935255142606532e-01  1.5172036638954509e-01  1.5399939271731974e-01  1.5676251039768507e-01  1.6212150648530718e-01  1.7422974433200009e-01  2.8805629267825400e-01  2.8732708067641127e-01  1.7088995566730697e-01  1.5666115719336812e-01  1.5064525425623748e-01  1.4768931021427831e-01  1.4537713072137012e-01  1.4304442447391300e-01  1.4057647878236026e-01  1.3801430182555702e-01  1.3543537859500709e-01  1.3291709248177211e-01  1.3052538341633432e-01  1.2831186672080791e-01  1.2631427726076014e-01  1.2455836241441129e-01  1.2306033422505927e-01  1.2182937696792945e-01  1.2086992261547586e-01  1.2018354853860877e-01  1.1977044208627105e-01  1.1963042654637839e-01  1.1976356312296066e-01  1.2017034414665109e-01  1.2085148255466185e-01  1.2180728928207540e-01  1.2303662064042864e-01  1.2453537965372102e-01  1.2629457763520194e-01  1.2829801541365379e-01  1.3051973858617869e-01  1.3292156954467890e-01  1.3545124652240292e-01  1.3804210918841633e-01  1.4061631877849345e-01  1.4309699043441970e-01  1.4544651828877506e-01  1.4778931183984939e-01  1.5081388158574782e-01  1.5701090489722924e-01  1.7158432183061798e-01  2.8762976097469578e-01  2.8676988820705068e-01  1.6781434619595192e-01  1.5105985627425608e-01  1.4420047116150431e-01  1.4096173000306120e-01  1.3856671424822417e-01  1.3623938431873597e-01  1.3382492641775051e-01  1.3134868742912431e-01  1.2888024393389072e-01  1.2649082277355767e-01  1.2424018148938588e-01  1.2217350680684119e-01  1.2032211510909660e-01  1.1870567066221217e-01  1.1733489728387916e-01  1.1621425281616185e-01  1.1534429200849824e-01  1.1472359664446141e-01  1.1435024144113787e-01  1.1422280905367904e-01  1.1434098161810827e-01  1.1470573111393280e-01  1.1531911541315568e-01  1.1618366848763645e-01  1.1730135851972472e-01  1.1867208393133842e-01  1.2029169391828658e-01  1.2214956876068939e-01  1.2422589064883127e-01  1.2648889797802176e-01  1.2889268841203216e-01  1.3137666101945661e-01  1.3386901941815166e-01  1.3630081690657989e-01  1.3865042307734229e-01  1.4108263919315381e-01  1.4439628909430036e-01  1.5144319521831115e-01  1.6858642384443509e-01  2.8712371978169587e-01  2.8611819563730417e-01  1.6438950382416734e-01  1.4506998210739713e-01  1.3737279980791609e-01  1.3382336772354525e-01  1.3131557649058645e-01  1.2897060608471972e-01  1.2659347892233616e-01  1.2419272277181818e-01  1.2182910671005923e-01  1.1956692117111031e-01  1.1745892817003295e-01  1.1554303138895880e-01  1.1384328740036082e-01  1.1237250410708287e-01  1.1113524614713602e-01  1.1013068999359286e-01  1.0935507444271882e-01  1.0880365673931133e-01  1.0847217167937061e-01  1.0835782882517611e-01  1.0845988964155828e-01  1.0877985458325481e-01  1.0932126892283905e-01  1.1008913221432973e-01  1.1108887579824914e-01  1.1232486253231817e-01  1.1379837235927612e-01  1.1550507939876656e-01  1.1743212030970737e-01  1.1955503034967409e-01  1.2183514760523534e-01  1.2421874915963967e-01  1.2664083913009161e-01  1.2904124760196248e-01  1.3141532609771253e-01  1.3396790903994374e-01  1.3759794385964730e-01  1.4548412782062492e-01  1.6523527152829567e-01  2.8652850596002616e-01  2.8536094721214988e-01  1.6062660449837651e-01  1.3877503488883039e-01  1.3026586704411414e-01  1.2637756070206743e-01  1.2372180961784332e-01  1.2133049808082939e-01  1.1896969245077060e-01  1.1663013378483184e-01  1.1436276255726742e-01  1.1222396543476247e-01  1.1025851503658810e-01  1.0849602765311422e-01  1.0695234739145057e-01  1.0563257823324503e-01  1.0453441048657297e-01  1.0365116151609111e-01  1.0297430591296866e-01  1.0249544478471953e-01  1.0220774542381833e-01  1.0210691106018388e-01  1.0219173822406359e-01  1.0246430000873771e-01  1.0292976596637593e-01  1.0359583956012008e-01  1.0447176738289063e-01  1.0556685692892587e-01  1.0688844039531364e-01  1.0843925510822687e-01  1.1021430139227059e-01  1.1219742719229453e-01  1.1435827034048554e-01  1.1665101542409040e-01  1.1901843500686343e-01  1.2141008385153411e-01  1.2383902184182757e-01  1.2654832331961946e-01  1.3052226065217706e-01  1.3921634189071347e-01  1.6153903832112360e-01  2.8583344338385624e-01  2.8448575233400736e-01  1.5654721932096261e-01  1.3227190454240023e-01  1.2299264072448843e-01  1.1873583848178171e-01  1.1589163647388943e-01  1.1342003452296012e-01  1.1105055685312996e-01  1.0875527688381843e-01  1.0657401032164221e-01  1.0455394435589091e-01  1.0273058501349026e-01  1.0112404415987947e-01  9.9740858924943901e-02  9.8577499519278355e-02  9.7624028158411674e-02  9.6867314723152895e-02  9.6293625755281220e-02  9.5890584605352852e-02  9.5648572617323929e-02  9.5561657780631984e-02  9.5628124957035335e-02  9.5850654525741041e-02  9.6236162018353791e-02  9.6795275294181471e-02  9.7541392639618710e-02  9.8489240083851098e-02  9.9652837042292441e-02  1.0104280159975533e-01  1.0266300712829493e-01  1.0450679806915025e-01  1.0655342192419559e-01  1.0876633476581941e-01  1.1109742286310005e-01  1.1350720032862391e-01  1.1602699636009128e-01  1.1893495036753036e-01  1.2328186295748515e-01  1.3273610091361393e-01  1.5751620631916660e-01  2.8502673109164339e-01  2.8347811341450685e-01  1.5218265868690034e-01  1.2566452228573063e-01  1.1566652941084744e-01  1.1100817762669737e-01  1.0792966023637920e-01  1.0533950634555041e-01  1.0293402184362922e-01  1.0066555121578324e-01  9.8560950070430378e-02  9.6656369763895050e-02  9.4976345898371867e-02  9.3529977475009712e-02  9.2313230467482049e-02  9.1312935527156219e-02  9.0510759466897267e-02  8.9886557826136332e-02  8.9420981496414975e-02  8.9097391642156326e-02  8.8903194449727774e-02  8.8830709527044069e-02  8.8877662763184179e-02  8.9047359085967143e-02  8.9348549316973488e-02  8.9794962811049150e-02  9.0404437939001492e-02  9.1197549951940501e-02  9.2195616966763413e-02  9.3417972779632333e-02  9.4878458742643848e-02  9.6581294018445452e-02  9.8516986378493279e-02  1.0066011724884946e-01  1.0297364751257032e-01  1.0543090617202912e-01  1.0808224002844913e-01  1.1123663377993326e-01  1.1598955410777309e-01  1.2614715044565650e-01  1.5319559665894211e-01  2.8409509310936604e-01  2.8231960104039161e-01  1.4757034363560187e-01  1.1905418922539313e-01  1.0838952826065106e-01  1.0329033206531783e-01  9.9926474225247544e-02  9.7177122119443474e-02  9.4708895359997991e-02  9.2452636630620866e-02  9.0419443330221810e-02  8.8631746462375260e-02  8.7100795489027827e-02  8.5822803808287246e-02  8.4781743866717219e-02  8.3953785037997233e-02  8.3311495839362815e-02  8.2827248847911983e-02  8.2475774292868398e-02  8.2235976522821302e-02  8.2092164202889520e-02  8.2034832910787253e-02  8.2061106793843180e-02  8.2174903439848401e-02  8.2386837600402829e-02  8.2713829579122641e-02  8.3178338045232794e-02  8.3807099089213632e-02  8.4629227973449517e-02  8.5673533236233987e-02  8.6964941270863294e-02  8.8520119003245828e-02  9.0342884599400430e-02  9.2421453078560672e-02  9.4732781925080209e-02  9.7266004050967206e-02  1.0009209663711260e-01  1.0354654556071619e-01  1.0874601448527302e-01  1.1955124170059750e-01  1.4861402699042908e-01  2.8302292769963949e-01  2.8098450934232549e-01  1.4274591894504021e-01  1.1252631777973401e-01  1.0123729907492410e-01  9.5648493870216802e-02  9.1944586349980220e-02  8.8997180650269458e-02  8.6445536335776896e-02  8.4195550493530960e-02  8.2238123846442773e-02  8.0577993667051623e-02  7.9210001286008136e-02  7.8115257567967333e-02  7.7264311713505285e-02  7.6621827234690285e-02  7.6150814268546224e-02  7.5815934503408261e-02  7.5585901718568993e-02  7.5435136023840763e-02  7.5344846131141965e-02  7.5303695705442222e-02  7.5308176083471637e-02  7.5362760525037167e-02  7.5479857682169846e-02  7.5679521657691068e-02  7.5988822398287761e-02  7.6440740925884099e-02  7.7072430600240896e-02  7.7922676396662810e-02  7.9028414712537756e-02  8.0420283875436274e-02  8.2117759690968628e-02  8.4126114317190429e-02  8.6440625556004763e-02  8.9070957740417220e-02  9.2112519229820805e-02  9.5925021287146930e-02  1.0162362912255751e-01  1.1303471582683920e-01  1.4381014115528520e-01  2.8179048545588520e-01  2.7943384112193465e-01  1.3772867474909775e-01  1.0613270825183257e-01  9.4240658586602064e-02  8.8102036415704826e-02  8.4005654285138384e-02  8.0833587398482634e-02  7.8195990509218022e-02  7.5966935236405880e-02  7.4109936303403137e-02  7.2606159787757821e-02  7.1430014766809186e-02  7.0545233421850956e-02  6.9907921686816338e-02  6.9470930404318204e-02  6.9187731709789951e-02  6.9015421397231408e-02  6.8916881105400729e-02  6.8862230432450267e-02  6.8829726936525532e-02  6.8806280284504973e-02  6.8787729405054093e-02  6.8778981847880533e-02  6.8794039011744551e-02  6.8855847011318930e-02  6.8995842869192817e-02  6.9253029030820326e-02  6.9672413212221201e-02  7.0302690081716260e-02  7.1193088878785921e-02  7.2389374020613462e-02  7.3929518233076141e-02  7.5840384870454941e-02  7.8141227149653714e-02  8.0869311390377480e-02  8.4152788419072339e-02  8.8379505738951522e-02  9.4645812592502987e-02  1.0665052958949361e-01  1.3881296301762566e-01  2.8037044724185967e-01  2.7761358715779244e-01  1.3251420340738107e-01  9.9881053302649028e-02  8.7371212767602763e-02  8.0612164868513123e-02  7.6094025222341363e-02  7.2717899105714551e-02  7.0053762900436800e-02  6.792950547