<?xml version="1.0"?>
<VTKFile type="UnstructuredGrid"  version="0.1"  >
<UnstructuredGrid>
<Piece  NumberOfPoints="1681" NumberOfCells="3200">
<Points>
<DataArray  type="Float64"  NumberOfComponents="3"  format="ascii">0 0 0  0.025 0 0  0.05 0 0  0.075 0 0  0.1 0 0  0.125 0 0  0.15 0 0  0.175 0 0  0.2 0 0  0.225 0 0  0.25 0 0  0.275 0 0  0.3 0 0  0.325 0 0  0.35 0 0  0.375 0 0  0.4 0 0  0.425 0 0  0.45 0 0  0.475 0 0  0.5 0 0  0.525 0 0  0.55 0 0  0.575 0 0  0.6 0 0  0.625 0 0  0.65 0 0  0.675 0 0  0.7 0 0  0.725 0 0  0.75 0 0  0.775 0 0  0.8 0 0  0.825 0 0  0.85 0 0  0.875 0 0  0.9 0 0  0.925 0 0  0.95 0 0  0.975 0 0  1 0 0  0 0.025 0  0.025 0.025 0  0.05 0.025 0  0.075 0.025 0  0.1 0.025 0  0.125 0.025 0  0.15 0.025 0  0.175 0.025 0  0.2 0.025 0  0.225 0.025 0  0.25 0.025 0  0.275 0.025 0  0.3 0.025 0  0.325 0.025 0  0.35 0.025 0  0.375 0.025 0  0.4 0.025 0  0.425 0.025 0  0.45 0.025 0  0.475 0.025 0  0.5 0.025 0  0.525 0.025 0  0.55 0.025 0  0.575 0.025 0  0.6 0.025 0  0.625 0.025 0  0.65 0.025 0  0.675 0.025 0  0.7 0.025 0  0.725 0.025 0  0.75 0.025 0  0.775 0.025 0  0.8 0.025 0  0.825 0.025 0  0.85 0.025 0  0.875 0.025 0  0.9 0.025 0  0.925 0.025 0  0.95 0.025 0  0.975 0.025 0  1 0.025 0  0 0.05 0  0.025 0.05 0  0.05 0.05 0  0.075 0.05 0  0.1 0.05 0  0.125 0.05 0  0.15 0.05 0  0.175 0.05 0  0.2 0.05 0  0.225 0.05 0  0.25 0.05 0  0.275 0.05 0  0.3 0.05 0  0.325 0.05 0  0.35 0.05 0  0.375 0.05 0  0.4 0.05 0  0.425 0.05 0  0.45 0.05 0  0.475 0.05 0  0.5 0.05 0  0.525 0.05 0  0.55 0.05 0  0.575 0.05 0  0.6 0.05 0  0.625 0.05 0  0.65 0.05 0  0.675 0.05 0  0.7 0.05 0  0.725 0.05 0  0.75 0.05 0  0.775 0.05 0  0.8 0.05 0  0.825 0.05 0  0.85 0.05 0  0.875 0.05 0  0.9 0.05 0  0.925 0.05 0  0.95 0.05 0  0.975 0.05 0  1 0.05 0  0 0.075 0  0.025 0.075 0  0.05 0.075 0  0.075 0.075 0  0.1 0.075 0  0.125 0.075 0  0.15 0.075 0  0.175 0.075 0  0.2 0.075 0  0.225 0.075 0  0.25 0.075 0  0.275 0.075 0  0.3 0.075 0  0.325 0.075 0  0.35 0.075 0  0.375 0.075 0  0.4 0.075 0  0.425 0.075 0  0.45 0.075 0  0.475 0.075 0  0.5 0.075 0  0.525 0.075 0  0.55 0.075 0  0.575 0.075 0  0.6 0.075 0  0.625 0.075 0  0.65 0.075 0  0.675 0.075 0  0.7 0.075 0  0.725 0.075 0  0.75 0.075 0  0.775 0.075 0  0.8 0.075 0  0.825 0.075 0  0.85 0.075 0  0.875 0.075 0  0.9 0.075 0  0.925 0.075 0  0.95 0.075 0  0.975 0.075 0  1 0.075 0  0 0.1 0  0.025 0.1 0  0.05 0.1 0  0.075 0.1 0  0.1 0.1 0  0.125 0.1 0  0.15 0.1 0  0.175 0.1 0  0.2 0.1 0  0.225 0.1 0  0.25 0.1 0  0.275 0.1 0  0.3 0.1 0  0.325 0.1 0  0.35 0.1 0  0.375 0.1 0  0.4 0.1 0  0.425 0.1 0  0.45 0.1 0  0.475 0.1 0  0.5 0.1 0  0.525 0.1 0  0.55 0.1 0  0.575 0.1 0  0.6 0.1 0  0.625 0.1 0  0.65 0.1 0  0.675 0.1 0  0.7 0.1 0  0.725 0.1 0  0.75 0.1 0  0.775 0.1 0  0.8 0.1 0  0.825 0.1 0  0.85 0.1 0  0.875 0.1 0  0.9 0.1 0  0.925 0.1 0  0.95 0.1 0  0.975 0.1 0  1 0.1 0  0 0.125 0  0.025 0.125 0  0.05 0.125 0  0.075 0.125 0  0.1 0.125 0  0.125 0.125 0  0.15 0.125 0  0.175 0.125 0  0.2 0.125 0  0.225 0.125 0  0.25 0.125 0  0.275 0.125 0  0.3 0.125 0  0.325 0.125 0  0.35 0.125 0  0.375 0.125 0  0.4 0.125 0  0.425 0.125 0  0.45 0.125 0  0.475 0.125 0  0.5 0.125 0  0.525 0.125 0  0.55 0.125 0  0.575 0.125 0  0.6 0.125 0  0.625 0.125 0  0.65 0.125 0  0.675 0.125 0  0.7 0.125 0  0.725 0.125 0  0.75 0.125 0  0.775 0.125 0  0.8 0.125 0  0.825 0.125 0  0.85 0.125 0  0.875 0.125 0  0.9 0.125 0  0.925 0.125 0  0.95 0.125 0  0.975 0.125 0  1 0.125 0  0 0.15 0  0.025 0.15 0  0.05 0.15 0  0.075 0.15 0  0.1 0.15 0  0.125 0.15 0  0.15 0.15 0  0.175 0.15 0  0.2 0.15 0  0.225 0.15 0  0.25 0.15 0  0.275 0.15 0  0.3 0.15 0  0.325 0.15 0  0.35 0.15 0  0.375 0.15 0  0.4 0.15 0  0.425 0.15 0  0.45 0.15 0  0.475 0.15 0  0.5 0.15 0  0.525 0.15 0  0.55 0.15 0  0.575 0.15 0  0.6 0.15 0  0.625 0.15 0  0.65 0.15 0  0.675 0.15 0  0.7 0.15 0  0.725 0.15 0  0.75 0.15 0  0.775 0.15 0  0.8 0.15 0  0.825 0.15 0  0.85 0.15 0  0.875 0.15 0  0.9 0.15 0  0.925 0.15 0  0.95 0.15 0  0.975 0.15 0  1 0.15 0  0 0.175 0  0.025 0.175 0  0.05 0.175 0  0.075 0.175 0  0.1 0.175 0  0.125 0.175 0  0.15 0.175 0  0.175 0.175 0  0.2 0.175 0  0.225 0.175 0  0.25 0.175 0  0.275 0.175 0  0.3 0.175 0  0.325 0.175 0  0.35 0.175 0  0.375 0.175 0  0.4 0.175 0  0.425 0.175 0  0.45 0.175 0  0.475 0.175 0  0.5 0.175 0  0.525 0.175 0  0.55 0.175 0  0.575 0.175 0  0.6 0.175 0  0.625 0.175 0  0.65 0.175 0  0.675 0.175 0  0.7 0.175 0  0.725 0.175 0  0.75 0.175 0  0.775 0.175 0  0.8 0.175 0  0.825 0.175 0  0.85 0.175 0  0.875 0.175 0  0.9 0.175 0  0.925 0.175 0  0.95 0.175 0  0.975 0.175 0  1 0.175 0  0 0.2 0  0.025 0.2 0  0.05 0.2 0  0.075 0.2 0  0.1 0.2 0  0.125 0.2 0  0.15 0.2 0  0.175 0.2 0  0.2 0.2 0  0.225 0.2 0  0.25 0.2 0  0.275 0.2 0  0.3 0.2 0  0.325 0.2 0  0.35 0.2 0  0.375 0.2 0  0.4 0.2 0  0.425 0.2 0  0.45 0.2 0  0.475 0.2 0  0.5 0.2 0  0.525 0.2 0  0.55 0.2 0  0.575 0.2 0  0.6 0.2 0  0.625 0.2 0  0.65 0.2 0  0.675 0.2 0  0.7 0.2 0  0.725 0.2 0  0.75 0.2 0  0.775 0.2 0  0.8 0.2 0  0.825 0.2 0  0.85 0.2 0  0.875 0.2 0  0.9 0.2 0  0.925 0.2 0  0.95 0.2 0  0.975 0.2 0  1 0.2 0  0 0.225 0  0.025 0.225 0  0.05 0.225 0  0.075 0.225 0  0.1 0.225 0  0.125 0.225 0  0.15 0.225 0  0.175 0.225 0  0.2 0.225 0  0.225 0.225 0  0.25 0.225 0  0.275 0.225 0  0.3 0.225 0  0.325 0.225 0  0.35 0.225 0  0.375 0.225 0  0.4 0.225 0  0.425 0.225 0  0.45 0.225 0  0.475 0.225 0  0.5 0.225 0  0.525 0.225 0  0.55 0.225 0  0.575 0.225 0  0.6 0.225 0  0.625 0.225 0  0.65 0.225 0  0.675 0.225 0  0.7 0.225 0  0.725 0.225 0  0.75 0.225 0  0.775 0.225 0  0.8 0.225 0  0.825 0.225 0  0.85 0.225 0  0.875 0.225 0  0.9 0.225 0  0.925 0.225 0  0.95 0.225 0  0.975 0.225 0  1 0.225 0  0 0.25 0  0.025 0.25 0  0.05 0.25 0  0.075 0.25 0  0.1 0.25 0  0.125 0.25 0  0.15 0.25 0  0.175 0.25 0  0.2 0.25 0  0.225 0.25 0  0.25 0.25 0  0.275 0.25 0  0.3 0.25 0  0.325 0.25 0  0.35 0.25 0  0.375 0.25 0  0.4 0.25 0  0.425 0.25 0  0.45 0.25 0  0.475 0.25 0  0.5 0.25 0  0.525 0.25 0  0.55 0.25 0  0.575 0.25 0  0.6 0.25 0  0.625 0.25 0  0.65 0.25 0  0.675 0.25 0  0.7 0.25 0  0.725 0.25 0  0.75 0.25 0  0.775 0.25 0  0.8 0.25 0  0.825 0.25 0  0.85 0.25 0  0.875 0.25 0  0.9 0.25 0  0.925 0.25 0  0.95 0.25 0  0.975 0.25 0  1 0.25 0  0 0.275 0  0.025 0.275 0  0.05 0.275 0  0.075 0.275 0  0.1 0.275 0  0.125 0.275 0  0.15 0.275 0  0.175 0.275 0  0.2 0.275 0  0.225 0.275 0  0.25 0.275 0  0.275 0.275 0  0.3 0.275 0  0.325 0.275 0  0.35 0.275 0  0.375 0.275 0  0.4 0.275 0  0.425 0.275 0  0.45 0.275 0  0.475 0.275 0  0.5 0.275 0  0.525 0.275 0  0.55 0.275 0  0.575 0.275 0  0.6 0.275 0  0.625 0.275 0  0.65 0.275 0  0.675 0.275 0  0.7 0.275 0  0.725 0.275 0  0.75 0.275 0  0.775 0.275 0  0.8 0.275 0  0.825 0.275 0  0.85 0.275 0  0.875 0.275 0  0.9 0.275 0  0.925 0.275 0  0.95 0.275 0  0.975 0.275 0  1 0.275 0  0 0.3 0  0.025 0.3 0  0.05 0.3 0  0.075 0.3 0  0.1 0.3 0  0.125 0.3 0  0.15 0.3 0  0.175 0.3 0  0.2 0.3 0  0.225 0.3 0  0.25 0.3 0  0.275 0.3 0  0.3 0.3 0  0.325 0.3 0  0.35 0.3 0  0.375 0.3 0  0.4 0.3 0  0.425 0.3 0  0.45 0.3 0  0.475 0.3 0  0.5 0.3 0  0.525 0.3 0  0.55 0.3 0  0.575 0.3 0  0.6 0.3 0  0.625 0.3 0  0.65 0.3 0  0.675 0.3 0  0.7 0.3 0  0.725 0.3 0  0.75 0.3 0  0.775 0.3 0  0.8 0.3 0  0.825 0.3 0  0.85 0.3 0  0.875 0.3 0  0.9 0.3 0  0.925 0.3 0  0.95 0.3 0  0.975 0.3 0  1 0.3 0  0 0.325 0  0.025 0.325 0  0.05 0.325 0  0.075 0.325 0  0.1 0.325 0  0.125 0.325 0  0.15 0.325 0  0.175 0.325 0  0.2 0.325 0  0.225 0.325 0  0.25 0.325 0  0.275 0.325 0  0.3 0.325 0  0.325 0.325 0  0.35 0.325 0  0.375 0.325 0  0.4 0.325 0  0.425 0.325 0  0.45 0.325 0  0.475 0.325 0  0.5 0.325 0  0.525 0.325 0  0.55 0.325 0  0.575 0.325 0  0.6 0.325 0  0.625 0.325 0  0.65 0.325 0  0.675 0.325 0  0.7 0.325 0  0.725 0.325 0  0.75 0.325 0  0.775 0.325 0  0.8 0.325 0  0.825 0.325 0  0.85 0.325 0  0.875 0.325 0  0.9 0.325 0  0.925 0.325 0  0.95 0.325 0  0.975 0.325 0  1 0.325 0  0 0.35 0  0.025 0.35 0  0.05 0.35 0  0.075 0.35 0  0.1 0.35 0  0.125 0.35 0  0.15 0.35 0  0.175 0.35 0  0.2 0.35 0  0.225 0.35 0  0.25 0.35 0  0.275 0.35 0  0.3 0.35 0  0.325 0.35 0  0.35 0.35 0  0.375 0.35 0  0.4 0.35 0  0.425 0.35 0  0.45 0.35 0  0.475 0.35 0  0.5 0.35 0  0.525 0.35 0  0.55 0.35 0  0.575 0.35 0  0.6 0.35 0  0.625 0.35 0  0.65 0.35 0  0.675 0.35 0  0.7 0.35 0  0.725 0.35 0  0.75 0.35 0  0.775 0.35 0  0.8 0.35 0  0.825 0.35 0  0.85 0.35 0  0.875 0.35 0  0.9 0.35 0  0.925 0.35 0  0.95 0.35 0  0.975 0.35 0  1 0.35 0  0 0.375 0  0.025 0.375 0  0.05 0.375 0  0.075 0.375 0  0.1 0.375 0  0.125 0.375 0  0.15 0.375 0  0.175 0.375 0  0.2 0.375 0  0.225 0.375 0  0.25 0.375 0  0.275 0.375 0  0.3 0.375 0  0.325 0.375 0  0.35 0.375 0  0.375 0.375 0  0.4 0.375 0  0.425 0.375 0  0.45 0.375 0  0.475 0.375 0  0.5 0.375 0  0.525 0.375 0  0.55 0.375 0  0.575 0.375 0  0.6 0.375 0  0.625 0.375 0  0.65 0.375 0  0.675 0.375 0  0.7 0.375 0  0.725 0.375 0  0.75 0.375 0  0.775 0.375 0  0.8 0.375 0  0.825 0.375 0  0.85 0.375 0  0.875 0.375 0  0.9 0.375 0  0.925 0.375 0  0.95 0.375 0  0.975 0.375 0  1 0.375 0  0 0.4 0  0.025 0.4 0  0.05 0.4 0  0.075 0.4 0  0.1 0.4 0  0.125 0.4 0  0.15 0.4 0  0.175 0.4 0  0.2 0.4 0  0.225 0.4 0  0.25 0.4 0  0.275 0.4 0  0.3 0.4 0  0.325 0.4 0  0.35 0.4 0  0.375 0.4 0  0.4 0.4 0  0.425 0.4 0  0.45 0.4 0  0.475 0.4 0  0.5 0.4 0  0.525 0.4 0  0.55 0.4 0  0.575 0.4 0  0.6 0.4 0  0.625 0.4 0  0.65 0.4 0  0.675 0.4 0  0.7 0.4 0  0.725 0.4 0  0.75 0.4 0  0.775 0.4 0  0.8 0.4 0  0.825 0.4 0  0.85 0.4 0  0.875 0.4 0  0.9 0.4 0  0.925 0.4 0  0.95 0.4 0  0.975 0.4 0  1 0.4 0  0 0.425 0  0.025 0.425 0  0.05 0.425 0  0.075 0.425 0  0.1 0.425 0  0.125 0.425 0  0.15 0.425 0  0.175 0.425 0  0.2 0.425 0  0.225 0.425 0  0.25 0.425 0  0.275 0.425 0  0.3 0.425 0  0.325 0.425 0  0.35 0.425 0  0.375 0.425 0  0.4 0.425 0  0.425 0.425 0  0.45 0.425 0  0.475 0.425 0  0.5 0.425 0  0.525 0.425 0  0.55 0.425 0  0.575 0.425 0  0.6 0.425 0  0.625 0.425 0  0.65 0.425 0  0.675 0.425 0  0.7 0.425 0  0.725 0.425 0  0.75 0.425 0  0.775 0.425 0  0.8 0.425 0  0.825 0.425 0  0.85 0.425 0  0.875 0.425 0  0.9 0.425 0  0.925 0.425 0  0.95 0.425 0  0.975 0.425 0  1 0.425 0  0 0.45 0  0.02
[...]
<PointData  Scalars="ControlVisualisation"> 
<DataArray  type="Float64"  Name="ControlVisualisation"  format="ascii">3.1430642008124088e-01  2.4501060375651471e-01  2.4500979729717565e-01  2.4498410855997627e-01  2.4493120250123318e-01  2.4485385020890885e-01  2.4475512053083037e-01  2.4463835022895489e-01  2.4450728060888768e-01  2.4436603689393560e-01  2.4421899163348687e-01  2.4407060676961864e-01  2.4392528187294382e-01  2.4378721919552537e-01  2.4366030994666890e-01  2.4354804267554414e-01  2.4345343270062297e-01  2.4337897017325513e-01  2.4332658363065687e-01  2.4329761573955183e-01  2.4329280826361482e-01  2.4331229400802892e-01  2.4335559447340943e-01  2.4342162308746906e-01  2.4350869503159231e-01  2.4361454573259808e-01  2.4373636091486364e-01  2.4387082158064963e-01  2.4401416728519623e-01  2.4416228051614972e-01  2.4431079375119583e-01  2.4445521900247907e-01  2.4459109663643872e-01  2.4471415540743571e-01  2.4482046558739406e-01  2.4490652687975456e-01  2.4496921517033296e-01  2.4500563292305400e-01  2.4501503944279351e-01  2.4500688890046243e-01  4.0332043149307273e-01  2.4501066193447510e-01  1.3466898832535243e-01  1.3465715775321735e-01  1.3462613710136140e-01  1.3457232372309066e-01  1.3449681208331582e-01  1.3440209662140257e-01  1.3429103201351156e-01  1.3416676929236526e-01  1.3403273134013266e-01  1.3389255452868581e-01  1.3375002717593257e-01  1.3360902422883333e-01  1.3347343214090102e-01  1.3334705839601566e-01  1.3323352548782685e-01  1.3313615447446969e-01  1.3305784653674332e-01  1.3300097199589384e-01  1.3296727546652920e-01  1.3295780402610374e-01  1.3297286315976622e-01  1.3301200318533912e-01  1.3307403699450979e-01  1.3315708813412874e-01  1.3325866630628602e-01  1.3337576522343259e-01  1.3350497558069188e-01  1.3364260418233395e-01  1.3378478974986316e-01  1.3392760740504792e-01  1.3406715767011296e-01  1.3419964121927844e-01  1.3432142595003621e-01  1.3442911311696421e-01  1.3451959790721757e-01  1.3459013523363608e-01  1.3463852784987024e-01  1.3466445752396267e-01  1.3467165688650140e-01  2.4500689923518684e-01  2.4501020291856562e-01  1.3465713074599903e-01  1.3460433316370210e-01  1.3451589977960926e-01  1.3438131472230794e-01  1.3419825684763076e-01  1.3397004644587698e-01  1.3370147261155771e-01  1.3339799872604377e-01  1.3306581221319763e-01  1.3271210232417091e-01  1.3234527684582062e-01  1.3197498937209054e-01  1.3161192967210522e-01  1.3126740135747075e-01  1.3095276056587268e-01  1.3067880495710824e-01  1.3045519119801874e-01  1.3028993437093195e-01  1.3018901665728649e-01  1.3015611292246504e-01  1.3019243021133375e-01  1.3029665584132771e-01  1.3046501193060728e-01  1.3069141918622065e-01  1.3096777567055437e-01  1.3128435345239947e-01  1.3163030476019200e-01  1.3199424884406491e-01  1.3236488425880907e-01  1.3273154674880033e-01  1.3308462304011182e-01  1.3341574855390462e-01  1.3371776918939898e-01  1.3398452358079282e-01  1.3421059546778641e-01  1.3439134888231494e-01  1.3452405670973849e-01  1.3461228630259006e-01  1.3466452108220539e-01  2.4501523295661248e-01  2.4498484108049018e-01  1.3462545303076195e-01  1.3451374451641812e-01  1.3438344152825027e-01  1.3420971827626058e-01  1.3397958175729865e-01  1.3369298226737764e-01  1.3335379385611612e-01  1.3296738610070674e-01  1.3254049452417410e-01  1.3208169921598845e-01  1.3160178313262283e-01  1.3111372567019036e-01  1.3063228072093838e-01  1.3017322891788236e-01  1.2975245860571122e-01  1.2938503036553284e-01  1.2908434009603897e-01  1.2886144305627473e-01  1.2872455606436134e-01  1.2867872658927046e-01  1.2872564673504608e-01  1.2886359337078807e-01  1.2908748743020038e-01  1.2938907997893020e-01  1.2975728427587471e-01  1.3017867600672753e-01  1.3063817267582223e-01  1.3111987413597026e-01  1.3160800055842126e-01  1.3208781141641884e-01  1.3254634981959074e-01  1.3297285835355799e-01  1.3335878077032398e-01  1.3369740503594843e-01  1.3398343437902865e-01  1.3421323568747223e-01  1.3438777254295059e-01  1.3452221684494947e-01  1.3463834444404016e-01  2.4500640444134825e-01  2.4493055279859177e-01  1.3456867874830469e-01  1.3437083439826347e-01  1.3419929569336622e-01  1.3400392600789435e-01  1.3375416192307249e-01  1.3344429677006808e-01  1.3307655262492762e-01  1.3265591510261379e-01  1.3218938541950939e-01  1.3168633487844306e-01  1.3115880371831121e-01  1.3062139313801291e-01  1.3009069823868163e-01  1.2958440257355347e-01  1.2912021762415216e-01  1.2871483979225623e-01  1.2838304447518031e-01  1.2813697444691968e-01  1.2798562962947377e-01  1.2793453606020364e-01  1.2798556298174327e-01  1.2813686349595044e-01  1.2838292985010971e-01  1.2871477300207496e-01  1.2912025167215108e-01  1.2958458241606158e-01  1.3009105306250787e-01  1.3062193209539019e-01  1.3115951587707753e-01  1.3168719284727182e-01  1.3219035099156970e-01  1.3265694462101382e-01  1.3307760441339869e-01  1.3344534590185728e-01  1.3375527521120573e-01  1.3400552614065442e-01  1.3420308064708789e-01  1.3438179169343173e-01  1.3458799311608960e-01  2.4497014777848633e-01  2.4484695168836118e-01  1.3448495591509940e-01  1.3416618202955369e-01  1.3394168615325863e-01  1.3372477356305582e-01  1.3345994509300357e-01  1.3313379909938927e-01  1.3274658333482303e-01  1.3230305642692838e-01  1.3181070700746797e-01  1.3127978360866141e-01  1.3072341777870480e-01  1.3015736353603505e-01  1.2959930264982175e-01  1.2906785059094550e-01  1.2858145242511440e-01  1.2815733654604028e-01  1.2781063403359358e-01  1.2755370711057162e-01  1.2739568147471678e-01  1.2734215103214205e-01  1.2739501792515159e-01  1.2755244004501290e-01  1.2780887614586248e-01  1.2815523936397358e-01  1.2857918783913841e-01  1.2906559033516946e-01  1.2959719884447310e-01  1.3015553341124395e-01  1.3072193499281531e-01  1.3127867707456875e-01  1.3180996658074723e-01  1.3230264313215462e-01  1.3274644576312522e-01  1.3313390578338941e-01  1.3346038986327119e-01  1.3372614517798004e-01  1.3394625819246841e-01  1.3418056708205925e-01  1.3451112941532134e-01  2.4490493333852703e-01  2.4473256738908769e-01  1.3437260287961317e-01  1.3389263391136264e-01  1.3359673715868531e-01  1.3335122599262955e-01  1.3306759705126234e-01  1.3272222624219449e-01  1.3231292038882680e-01  1.3184438551319894e-01  1.3132492633861229e-01  1.3076597365359643e-01  1.3018193793080740e-01  1.2958974764341150e-01  1.2900801654327809e-01  1.2845598248547027e-01  1.2795240386090243e-01  1.2751456524340787e-01  1.2715747821547374e-01  1.2689330006022556e-01  1.2673094889105682e-01  1.2667587295846272e-01  1.2672993082148909e-01  1.2689135161331785e-01  1.2715476470902712e-01  1.2751131057176734e-01  1.2794886464234437e-01  1.2845241864251841e-01  1.2900466238742453e-01  1.2958678784913724e-01  1.3017949225197520e-01  1.3076409259648936e-01  1.3132359796530721e-01  1.3184355164068587e-01  1.3231250339013984e-01  1.3272218193947358e-01  1.3306806094406612e-01  1.3335298710440047e-01  1.3360269355557824e-01  1.3391100769869871e-01  1.3440602510358760e-01  2.4480992712867666e-01  2.4458491392651954e-01  1.3422906919613106e-01  1.3354048074049701e-01  1.3314836004520628e-01  1.3286264365452802e-01  1.3255246614423127e-01  1.3218073218631110e-01  1.3174210216866275e-01  1.3124136300300188e-01  1.3068800114981427e-01  1.3009500680816258e-01  1.2947835832624530e-01  1.2885631451416621e-01  1.2824843269265529e-01  1.2767445501451008e-01  1.2715323749244428e-01  1.2670184822885994e-01  1.2633489154733180e-01  1.2606405466231266e-01  1.2589783622144574e-01  1.2584140233844240e-01  1.2589652025543152e-01  1.2606153591990032e-01  1.2633138400445346e-01  1.2669764299565828e-01  1.2714867029108309e-01  1.2766986844818465e-01  1.2824413813674923e-01  1.2885255915381622e-01  1.2947530267130486e-01  1.3009271649256010e-01  1.3068645443970811e-01  1.3124047351794302e-01  1.3174175926443848e-01  1.3218088015317239e-01  1.3255330579015778e-01  1.3286522158822994e-01  1.3315626311297699e-01  1.3356351084738485e-01  1.3427025192109393e-01  2.4468316252224120e-01  2.4440075758959912e-01  1.3405079845621068e-01  1.3309547113579687e-01  1.3257382257107675e-01  1.3223141982592002e-01  1.3188357061459460e-01  1.3147542590366820e-01  1.3099746261582998e-01  1.3045462767719157e-01  1.2985798511651792e-01  1.2922249716404652e-01  1.2856601938964793e-01  1.2790830346705961e-01  1.2726986334772147e-01  1.2667083210229177e-01  1.2612996041154190e-01  1.2566384880199230e-01  1.2528643439327131e-01  1.2500869884798926e-01  1.2483853601093797e-01  1.2478071253184161e-01  1.2483686545634415e-01  1.2500550057368820e-01  1.2528197939815797e-01  1.2565850800907072e-01  1.2612416522086556e-01  1.2666502756456308e-01  1.2726445933866007e-01  1.2790363049422002e-01  1.2856229607313199e-01  1.2921981538146513e-01  1.2985631648705806e-01  1.3045385318129787e-01  1.3099743116829646e-01  1.3147607017085980e-01  1.3188518175762803e-01  1.3223536894421917e-01  1.3258445847013289e-01  1.3312412875474067e-01  1.3410043602717789e-01  2.4452178859928614e-01  2.4417626541441709e-01  1.3383304376845129e-01  1.3253735892526830e-01  1.3184133157750916e-01  1.3141963584280200e-01  1.3101923170798785e-01  1.3056180394545941e-01  1.3003213872904085e-01  1.2943533010007460e-01  1.2878443105178594e-01  1.2809680357443828e-01  1.2739247186076230e-01  1.2669279127879460e-01  1.2601917253028766e-01  1.2539194678717072e-01  1.2482948246515238e-01  1.2434760013380448e-01  1.2395926388942377e-01  1.2367448329578945e-01  1.2350034346411229e-01  1.2344108541539668e-01  1.2349817600446865e-01  1.2367032972012831e-01  1.2395346991409500e-01  1.2434064280024244e-01  1.2482192306296770e-01  1.2538437339340197e-01  1.2601213778796802e-01  1.2668675305476210e-01  1.2738774582297890e-01  1.2809353668577503e-01  1.2878260337604691e-01  1.2943479096106988e-01  1.3003268912768473e-01  1.3056336416798481e-01  1.3102221437698447e-01  1.3142581776370962e-01  1.3185589201886835e-01  1.3257305521835391e-01  1.3389205136703911e-01  2.4432226924386044e-01  2.4390706380796645e-01  1.3356955391259112e-01  1.3183882768576266e-01  1.3090887326261641e-01  1.3037760197898696e-01  1.2990526463784660e-01  1.2938261619891625e-01  1.2878660633948449e-01  1.2812229596249058e-01  1.2740511679704558e-01  1.2665524195360114e-01  1.2589509865515253e-01  1.2514765753833973e-01  1.2443504051151386e-01  1.2377745105281875e-01  1.2319247373185989e-01  1.2269473028350565e-01  1.2229582188021240e-01  1.2200445803239542e-01  1.2182667054663343e-01  1.2176602631392161e-01  1.2182377607337670e-01  1.2199890168615940e-01  1.2228804967428768e-01  1.2268536374739029e-01  1.2318225464107568e-01  1.2376717171784529e-01  1.2442546495167200e-01  1.2513944185611658e-01  1.2588872180014565e-01  1.2665095980402191e-01  1.2740295265732157e-01  1.2812208091429694e-01  1.2878809162726101e-01  1.2938571210573160e-01  1.2991054433280022e-01  1.3038733892033821e-01  1.3092910842709271e-01  1.3188351042570995e-01  1.3363912105312722e-01  2.4408047316439571e-01  2.4358829114625025e-01  1.3325217824246954e-01  1.3096515732161707e-01  1.2972468761836878e-01  1.2904438873616644e-01  1.2847533717470844e-01  1.2786807746209786e-01  1.2718880245896896e-01  1.2644209817067698e-01  1.2564608362540175e-01  1.2482408685279464e-01  1.2400106142601325e-01  1.2320144892733978e-01  1.2244771644793691e-01  1.2175943219958094e-01  1.2115283015934526e-01  1.2064077599578661e-01  1.2023301003176724e-01  1.1993653516584639e-01  1.1975603312362922e-01  1.1969421907399726e-01  1.1975207339533647e-01  1.1992891572085929e-01  1.2022230991734112e-01  1.2062781113473296e-01  1.2113859010316280e-01  1.2174499725050889e-01  1.2243415928881293e-01  1.2318972896335981e-01  1.2399192490698574e-01  1.2481799041817361e-01  1.2564316248195176e-01  1.2644220427547442e-01  1.2719165171253496e-01  1.2787358257627288e-01  1.2848427998358442e-01  1.2905962511608615e-01  1.2975305321126410e-01  1.3102135613275784e-01  1.3333382491432977e-01  2.4379172141249650e-01  2.4321465621380889e-01  1.3287043894263478e-01  1.2987523624018241e-01  1.2823013502023337e-01  1.2735108405154896e-01  1.2665411567802892e-01  1.2593885781010172e-01  1.2515702658658898e-01  1.2431194114660757e-01  1.2342455683688228e-01  1.2252155875838984e-01  1.2163036354260949e-01  1.2077650996735960e-01  1.1998219863141522e-01  1.1926562065134931e-01  1.1864088867513668e-01  1.1811839000078672e-01  1.1770538082167582e-01  1.1740666155000262e-01  1.1722520853484267e-01  1.1716267511589759e-01  1.1721970742024675e-01  1.1739604556825516e-01  1.1769040071412719e-01  1.1810011628340492e-01  1.1862064217142368e-01  1.1924487723639916e-01  1.1996246981944947e-01  1.2075920601498735e-01  1.2161665295667198e-01  1.2251224668263448e-01  1.2342001415115017e-01  1.2431212747267363e-01  1.2516167222466495e-01  1.2594791224868951e-01  1.2666862427470260e-01  1.2737453470754129e-01  1.2826990516739542e-01  1.2994602071750366e-01  1.3296605838930703e-01  2.4345083948216131e-01  2.4278048379399852e-01  1.3241114283697636e-01  1.2852445098701304e-01  1.2636538152079718e-01  1.2522718728493906e-01  1.2436362677562914e-01  1.2351226936019703e-01  1.2260599971143164e-01  1.2164567559433040e-01  1.2065498680253189e-01  1.1966393525595892e-01  1.1870204820723415e-01  1.1779526398985371e-01  1.1696458180470630e-01  1.1622578269720997e-01  1.1558984581699842e-01  1.1506377055639277e-01  1.1465156858687860e-01  1.1435524706190683e-01  1.1417566068947656e-01  1.1411315716518883e-01  1.1416797395409567e-01  1.1434036593405789e-01  1.1463045705851309e-01  1.1503782033806439e-01  1.1556080478838482e-01  1.1619565101528065e-01  1.1693547311827536e-01  1.1776923471862379e-01  1.1868090728093250e-01  1.1964906049561726e-01  1.2064719205564872e-01  1.2164519593892498e-01  1.2261269741710323e-01  1.2352620938033365e-01  1.2438617647513649e-01  1.2526243002886489e-01  1.2642068667506648e-01  1.2861326735141634e-01  1.3252300810812379e-01  2.4305221446538633e-01  2.4227968996634125e-01  1.3185810679880408e-01  1.2686958387505293e-01  1.2407750501924082e-01  1.2260962584077667e-01  1.2153236164589794e-01  1.2051124156258321e-01  1.1945573775867327e-01  1.1836265861736214e-01  1.1725797060184762e-01  1.1617457305429607e-01  1.1514332490148396e-01  1.1418942433539746e-01  1.1333132300198404e-01  1.1258101114948389e-01  1.1194505010421127e-01  1.1142594158398568e-01  1.1102355234648092e-01  1.1073641218687300e-01  1.1056277939804973e-01  1.1050141990929788e-01  1.1055207705550014e-01  1.1071562364759292e-01  1.1099389315715237e-01  1.1138918901187157e-01  1.1190347683017508e-01  1.1253728079464539e-01  1.1328833889463094e-01  1.1415012790399176e-01  1.1511045134181420e-01  1.1615039084238687e-01  1.1724405959918797e-01  1.1835982354350894e-01  1.1946421002269457e-01  1.2053136709845157e-01  1.2156589699193684e-01  1.2266106531779583e-01  1.2415324618984364e-01  1.2697996308429060e-01  1.3198882489474381e-01  2.4258983204636519e-01  2.4170555697322521e-01  1.3119200717069759e-01  1.2487509235730293e-01  1.2132946223262286e-01  1.1945259095636181e-01  1.1810535327123690e-01  1.1687444016340298e-01  1.1564174830077473e-01  1.1439812492201329e-01  1.1317086323205597e-01  1.1199476747884336e-01  1.1090063702490949e-01  1.0991120404190985e-01  1.0904052365734057e-01  1.0829502208591767e-01  1.0767527447302983e-01  1.0717798138753673e-01  1.0679783810144797e-01  1.0652913378375180e-01  1.0636700783101394e-01  1.0630834177576223e-01  1.0635228850657601e-01  1.0650044537809891e-01  1.0675667237543711e-01  1.0712654799324670e-01  1.0761645081923463e-01  1.0823226143519603e-01  1.0897770533373695e-01  1.0985241367727668e-01  1.1084987582524528e-01  1.1195560908866999e-01  1.1314611816924480e-01  1.1438964073472963e-01  1.1565055513599336e-01  1.1690148971944590e-01  1.1815290148810008e-01  1.1952516982026937e-01  1.2143104138487380e-01  1.2501027161020287e-01  1.3134444059773279e-01  2.4205722745360497e-01  2.4105005253671541e-01  1.3039012284104484e-01  1.2251912402066796e-01  1.1810724769478706e-01  1.1573525573039800e-01  1.1405234235011168e-01  1.1256484648913281e-01  1.1112412240556965e-01  1.0971290098433346e-01  1.0835814406996480e-01  1.0709470187687538e-01  1.0595105418983110e-01  1.0494498627480991e-01  1.0408372804797608e-01  1.0336596790328302e-01  1.0278447316847189e-01  1.0232869117353417e-01  1.0198703728226759e-01  1.0174875375835092e-01  1.0160531609681951e-01  1.0155140582780869e-01  1.0158548013766619e-01  1.0170996132729146e-01  1.0193105188548539e-01  1.0225816084938866e-01  1.0270291084451307e-01  1.0327768997427078e-01  1.0399372761599301e-01  1.0485872072433015e-01  1.0587413214493474e-01  1.0703247443900214e-01  1.0831525658836984e-01  1.0969293928408316e-01  1.1112961782667220e-01  1.1259794860391585e-01  1.1411606868884776e-01  1.1583367954726165e-01  1.1824001878540162e-01  1.2268169491054604e-01  1.3056741211380843e-01  2.4144720730207164e-01  2.4030207721319283e-01  1.2942522263158707e-01  1.1979666859484611e-01  1.1442210758644564e-01  1.1146419323708667e-01  1.0937107753702552e-01  1.0757422397877184e-01  1.0589337282077149e-01  1.0430072386627287e-01  1.0282014905807031e-01  1.0148334628104706e-01  1.0031298698828114e-01  9.9318499337654451e-02  9.8497267409448030e-02  9.7837751459992323e-02  9.7322954684895727e-02  9.6933585376999656e-02  9.6650683182907482e-02  9.6457664093328802e-02  9.6341818577059951e-02  9.6295324480298233e-02  9.6315833957613048e-02  9.6406673831692380e-02  9.6576669448375757e-02  9.6839570027108579e-02  9.7213025610232595e-02  9.7717049757257868e-02  9.8371907049644006e-02  9.9195396437612313e-02  1.0019958085008239e-01  1.0138720814643377e-01  1.0274846313063525e-01  1.0425972466111039e-01  1.0588809712509346e-01  1.0760897310320093e-01  1.0945025596563546e-01  1.1159113055536961e-01  1.1459022745135052e-01  1.1998834869870915e-01  1.2963126359886451e-01  2.4075105773746594e-01  2.3944412404690563e-01  1.2826231806993413e-01  1.1671684562117306e-01  1.1030521036182388e-01  1.0666856660379390e-01  1.0408473079025884e-01  1.0192349167614702e-01  9.9974135780514339e-02  9.8195328234555457e-02  9.6603194232067258e-02  9.5220929669929288e-02  9.4060194583125256e-02  9.3117637458681832e-02  9.2377374604872761e-02  9.1815123347570818e-02  9.1402310669951914e-02  9.1109606705683716e-02  9.0909750230229985e-02  9.0779685089237658e-02  9.0702086030734541e-02  9.0666369587745946e-02  9.0669275055478185e-02  9.0715070774424908e-02  9.0815399678898054e-02  9.0988733212796810e-02  9.1259363638500568e-02  9.1655842634538270e-02  9.2208778061944871e-02  9.2947929697505066e-02  9.3898607391385308e-02  9.5077459796685110e-02  9.6488108870302097e-02  9.8118505590190502e-02  9.9944419936191117e-02  1.0194860297235724e-01  1.0417162739518712e-01  1.0682062624709486e-01  1.1050902002906340e-01  1.1693819741163822e-01  1.2850312442959430e-01  2.3995669855800250e-01  2.3844528106627494e-01  1.2684979968453861e-01  1.1329166397470559e-01  1.0579536012631469e-01  1.0139191401503674e-01  9.8240863744498114e-02  9.5670585232678379e-02  9.3442721943261392e-02  9.1497787866593086e-02  8.9835976621897434e-02  8.8462899318619143e-02  8.7371558410477376e-02  8.6540550539897163e-02  8.5937505592973862e-02  8.5523502887230846e-02  8.5257227574995542e-02  8.5098536526878418e-02  8.5011322633029449e-02  8.4965668118122839e-02  8.4939356431689622e-02  8.4918853802621846e-02  8.4899869410394027e-02  8.4887567912259293e-02  8.4896453190963866e-02  8.4949878973422460e-02  8.5079085399289767e-02  8.5321635255136599e-02  8.5719159618377311e-02  8.6314426627068092e-02  8.7147854478347941e-02  8.8253520933409046e-02  8.9654815070646987e-02  9.1360212147544848e-02  9.3363206677918475e-02  9.5660952152921960e-02  9.8311741546176404e-02  1.0155030720700775e-01  1.0602533765176186e-01  1.1354188242708430e-01  1.2713762682477350e-01  2.3904482679294792e-01  2.3725723926275860e-01  1.2511637522132640e-01  1.0952988604512111e-01  1.0093533006409817e-01  9.5702166504123942e-02  9.1948715488207711e-02  8.8987073366711342e-02  8.6554368509559151e-02  8.456319362