<?xml version="1.0"?>
<VTKFile type="UnstructuredGrid"  version="0.1"  >
<UnstructuredGrid>
<Piece  NumberOfPoints="1681" NumberOfCells="3200">
<Points>
<DataArray  type="Float64"  NumberOfComponents="3"  format="ascii">0 0 0  0.025 0 0  0.05 0 0  0.075 0 0  0.1 0 0  0.125 0 0  0.15 0 0  0.175 0 0  0.2 0 0  0.225 0 0  0.25 0 0  0.275 0 0  0.3 0 0  0.325 0 0  0.35 0 0  0.375 0 0  0.4 0 0  0.425 0 0  0.45 0 0  0.475 0 0  0.5 0 0  0.525 0 0  0.55 0 0  0.575 0 0  0.6 0 0  0.625 0 0  0.65 0 0  0.675 0 0  0.7 0 0  0.725 0 0  0.75 0 0  0.775 0 0  0.8 0 0  0.825 0 0  0.85 0 0  0.875 0 0  0.9 0 0  0.925 0 0  0.95 0 0  0.975 0 0  1 0 0  0 0.025 0  0.025 0.025 0  0.05 0.025 0  0.075 0.025 0  0.1 0.025 0  0.125 0.025 0  0.15 0.025 0  0.175 0.025 0  0.2 0.025 0  0.225 0.025 0  0.25 0.025 0  0.275 0.025 0  0.3 0.025 0  0.325 0.025 0  0.35 0.025 0  0.375 0.025 0  0.4 0.025 0  0.425 0.025 0  0.45 0.025 0  0.475 0.025 0  0.5 0.025 0  0.525 0.025 0  0.55 0.025 0  0.575 0.025 0  0.6 0.025 0  0.625 0.025 0  0.65 0.025 0  0.675 0.025 0  0.7 0.025 0  0.725 0.025 0  0.75 0.025 0  0.775 0.025 0  0.8 0.025 0  0.825 0.025 0  0.85 0.025 0  0.875 0.025 0  0.9 0.025 0  0.925 0.025 0  0.95 0.025 0  0.975 0.025 0  1 0.025 0  0 0.05 0  0.025 0.05 0  0.05 0.05 0  0.075 0.05 0  0.1 0.05 0  0.125 0.05 0  0.15 0.05 0  0.175 0.05 0  0.2 0.05 0  0.225 0.05 0  0.25 0.05 0  0.275 0.05 0  0.3 0.05 0  0.325 0.05 0  0.35 0.05 0  0.375 0.05 0  0.4 0.05 0  0.425 0.05 0  0.45 0.05 0  0.475 0.05 0  0.5 0.05 0  0.525 0.05 0  0.55 0.05 0  0.575 0.05 0  0.6 0.05 0  0.625 0.05 0  0.65 0.05 0  0.675 0.05 0  0.7 0.05 0  0.725 0.05 0  0.75 0.05 0  0.775 0.05 0  0.8 0.05 0  0.825 0.05 0  0.85 0.05 0  0.875 0.05 0  0.9 0.05 0  0.925 0.05 0  0.95 0.05 0  0.975 0.05 0  1 0.05 0  0 0.075 0  0.025 0.075 0  0.05 0.075 0  0.075 0.075 0  0.1 0.075 0  0.125 0.075 0  0.15 0.075 0  0.175 0.075 0  0.2 0.075 0  0.225 0.075 0  0.25 0.075 0  0.275 0.075 0  0.3 0.075 0  0.325 0.075 0  0.35 0.075 0  0.375 0.075 0  0.4 0.075 0  0.425 0.075 0  0.45 0.075 0  0.475 0.075 0  0.5 0.075 0  0.525 0.075 0  0.55 0.075 0  0.575 0.075 0  0.6 0.075 0  0.625 0.075 0  0.65 0.075 0  0.675 0.075 0  0.7 0.075 0  0.725 0.075 0  0.75 0.075 0  0.775 0.075 0  0.8 0.075 0  0.825 0.075 0  0.85 0.075 0  0.875 0.075 0  0.9 0.075 0  0.925 0.075 0  0.95 0.075 0  0.975 0.075 0  1 0.075 0  0 0.1 0  0.025 0.1 0  0.05 0.1 0  0.075 0.1 0  0.1 0.1 0  0.125 0.1 0  0.15 0.1 0  0.175 0.1 0  0.2 0.1 0  0.225 0.1 0  0.25 0.1 0  0.275 0.1 0  0.3 0.1 0  0.325 0.1 0  0.35 0.1 0  0.375 0.1 0  0.4 0.1 0  0.425 0.1 0  0.45 0.1 0  0.475 0.1 0  0.5 0.1 0  0.525 0.1 0  0.55 0.1 0  0.575 0.1 0  0.6 0.1 0  0.625 0.1 0  0.65 0.1 0  0.675 0.1 0  0.7 0.1 0  0.725 0.1 0  0.75 0.1 0  0.775 0.1 0  0.8 0.1 0  0.825 0.1 0  0.85 0.1 0  0.875 0.1 0  0.9 0.1 0  0.925 0.1 0  0.95 0.1 0  0.975 0.1 0  1 0.1 0  0 0.125 0  0.025 0.125 0  0.05 0.125 0  0.075 0.125 0  0.1 0.125 0  0.125 0.125 0  0.15 0.125 0  0.175 0.125 0  0.2 0.125 0  0.225 0.125 0  0.25 0.125 0  0.275 0.125 0  0.3 0.125 0  0.325 0.125 0  0.35 0.125 0  0.375 0.125 0  0.4 0.125 0  0.425 0.125 0  0.45 0.125 0  0.475 0.125 0  0.5 0.125 0  0.525 0.125 0  0.55 0.125 0  0.575 0.125 0  0.6 0.125 0  0.625 0.125 0  0.65 0.125 0  0.675 0.125 0  0.7 0.125 0  0.725 0.125 0  0.75 0.125 0  0.775 0.125 0  0.8 0.125 0  0.825 0.125 0  0.85 0.125 0  0.875 0.125 0  0.9 0.125 0  0.925 0.125 0  0.95 0.125 0  0.975 0.125 0  1 0.125 0  0 0.15 0  0.025 0.15 0  0.05 0.15 0  0.075 0.15 0  0.1 0.15 0  0.125 0.15 0  0.15 0.15 0  0.175 0.15 0  0.2 0.15 0  0.225 0.15 0  0.25 0.15 0  0.275 0.15 0  0.3 0.15 0  0.325 0.15 0  0.35 0.15 0  0.375 0.15 0  0.4 0.15 0  0.425 0.15 0  0.45 0.15 0  0.475 0.15 0  0.5 0.15 0  0.525 0.15 0  0.55 0.15 0  0.575 0.15 0  0.6 0.15 0  0.625 0.15 0  0.65 0.15 0  0.675 0.15 0  0.7 0.15 0  0.725 0.15 0  0.75 0.15 0  0.775 0.15 0  0.8 0.15 0  0.825 0.15 0  0.85 0.15 0  0.875 0.15 0  0.9 0.15 0  0.925 0.15 0  0.95 0.15 0  0.975 0.15 0  1 0.15 0  0 0.175 0  0.025 0.175 0  0.05 0.175 0  0.075 0.175 0  0.1 0.175 0  0.125 0.175 0  0.15 0.175 0  0.175 0.175 0  0.2 0.175 0  0.225 0.175 0  0.25 0.175 0  0.275 0.175 0  0.3 0.175 0  0.325 0.175 0  0.35 0.175 0  0.375 0.175 0  0.4 0.175 0  0.425 0.175 0  0.45 0.175 0  0.475 0.175 0  0.5 0.175 0  0.525 0.175 0  0.55 0.175 0  0.575 0.175 0  0.6 0.175 0  0.625 0.175 0  0.65 0.175 0  0.675 0.175 0  0.7 0.175 0  0.725 0.175 0  0.75 0.175 0  0.775 0.175 0  0.8 0.175 0  0.825 0.175 0  0.85 0.175 0  0.875 0.175 0  0.9 0.175 0  0.925 0.175 0  0.95 0.175 0  0.975 0.175 0  1 0.175 0  0 0.2 0  0.025 0.2 0  0.05 0.2 0  0.075 0.2 0  0.1 0.2 0  0.125 0.2 0  0.15 0.2 0  0.175 0.2 0  0.2 0.2 0  0.225 0.2 0  0.25 0.2 0  0.275 0.2 0  0.3 0.2 0  0.325 0.2 0  0.35 0.2 0  0.375 0.2 0  0.4 0.2 0  0.425 0.2 0  0.45 0.2 0  0.475 0.2 0  0.5 0.2 0  0.525 0.2 0  0.55 0.2 0  0.575 0.2 0  0.6 0.2 0  0.625 0.2 0  0.65 0.2 0  0.675 0.2 0  0.7 0.2 0  0.725 0.2 0  0.75 0.2 0  0.775 0.2 0  0.8 0.2 0  0.825 0.2 0  0.85 0.2 0  0.875 0.2 0  0.9 0.2 0  0.925 0.2 0  0.95 0.2 0  0.975 0.2 0  1 0.2 0  0 0.225 0  0.025 0.225 0  0.05 0.225 0  0.075 0.225 0  0.1 0.225 0  0.125 0.225 0  0.15 0.225 0  0.175 0.225 0  0.2 0.225 0  0.225 0.225 0  0.25 0.225 0  0.275 0.225 0  0.3 0.225 0  0.325 0.225 0  0.35 0.225 0  0.375 0.225 0  0.4 0.225 0  0.425 0.225 0  0.45 0.225 0  0.475 0.225 0  0.5 0.225 0  0.525 0.225 0  0.55 0.225 0  0.575 0.225 0  0.6 0.225 0  0.625 0.225 0  0.65 0.225 0  0.675 0.225 0  0.7 0.225 0  0.725 0.225 0  0.75 0.225 0  0.775 0.225 0  0.8 0.225 0  0.825 0.225 0  0.85 0.225 0  0.875 0.225 0  0.9 0.225 0  0.925 0.225 0  0.95 0.225 0  0.975 0.225 0  1 0.225 0  0 0.25 0  0.025 0.25 0  0.05 0.25 0  0.075 0.25 0  0.1 0.25 0  0.125 0.25 0  0.15 0.25 0  0.175 0.25 0  0.2 0.25 0  0.225 0.25 0  0.25 0.25 0  0.275 0.25 0  0.3 0.25 0  0.325 0.25 0  0.35 0.25 0  0.375 0.25 0  0.4 0.25 0  0.425 0.25 0  0.45 0.25 0  0.475 0.25 0  0.5 0.25 0  0.525 0.25 0  0.55 0.25 0  0.575 0.25 0  0.6 0.25 0  0.625 0.25 0  0.65 0.25 0  0.675 0.25 0  0.7 0.25 0  0.725 0.25 0  0.75 0.25 0  0.775 0.25 0  0.8 0.25 0  0.825 0.25 0  0.85 0.25 0  0.875 0.25 0  0.9 0.25 0  0.925 0.25 0  0.95 0.25 0  0.975 0.25 0  1 0.25 0  0 0.275 0  0.025 0.275 0  0.05 0.275 0  0.075 0.275 0  0.1 0.275 0  0.125 0.275 0  0.15 0.275 0  0.175 0.275 0  0.2 0.275 0  0.225 0.275 0  0.25 0.275 0  0.275 0.275 0  0.3 0.275 0  0.325 0.275 0  0.35 0.275 0  0.375 0.275 0  0.4 0.275 0  0.425 0.275 0  0.45 0.275 0  0.475 0.275 0  0.5 0.275 0  0.525 0.275 0  0.55 0.275 0  0.575 0.275 0  0.6 0.275 0  0.625 0.275 0  0.65 0.275 0  0.675 0.275 0  0.7 0.275 0  0.725 0.275 0  0.75 0.275 0  0.775 0.275 0  0.8 0.275 0  0.825 0.275 0  0.85 0.275 0  0.875 0.275 0  0.9 0.275 0  0.925 0.275 0  0.95 0.275 0  0.975 0.275 0  1 0.275 0  0 0.3 0  0.025 0.3 0  0.05 0.3 0  0.075 0.3 0  0.1 0.3 0  0.125 0.3 0  0.15 0.3 0  0.175 0.3 0  0.2 0.3 0  0.225 0.3 0  0.25 0.3 0  0.275 0.3 0  0.3 0.3 0  0.325 0.3 0  0.35 0.3 0  0.375 0.3 0  0.4 0.3 0  0.425 0.3 0  0.45 0.3 0  0.475 0.3 0  0.5 0.3 0  0.525 0.3 0  0.55 0.3 0  0.575 0.3 0  0.6 0.3 0  0.625 0.3 0  0.65 0.3 0  0.675 0.3 0  0.7 0.3 0  0.725 0.3 0  0.75 0.3 0  0.775 0.3 0  0.8 0.3 0  0.825 0.3 0  0.85 0.3 0  0.875 0.3 0  0.9 0.3 0  0.925 0.3 0  0.95 0.3 0  0.975 0.3 0  1 0.3 0  0 0.325 0  0.025 0.325 0  0.05 0.325 0  0.075 0.325 0  0.1 0.325 0  0.125 0.325 0  0.15 0.325 0  0.175 0.325 0  0.2 0.325 0  0.225 0.325 0  0.25 0.325 0  0.275 0.325 0  0.3 0.325 0  0.325 0.325 0  0.35 0.325 0  0.375 0.325 0  0.4 0.325 0  0.425 0.325 0  0.45 0.325 0  0.475 0.325 0  0.5 0.325 0  0.525 0.325 0  0.55 0.325 0  0.575 0.325 0  0.6 0.325 0  0.625 0.325 0  0.65 0.325 0  0.675 0.325 0  0.7 0.325 0  0.725 0.325 0  0.75 0.325 0  0.775 0.325 0  0.8 0.325 0  0.825 0.325 0  0.85 0.325 0  0.875 0.325 0  0.9 0.325 0  0.925 0.325 0  0.95 0.325 0  0.975 0.325 0  1 0.325 0  0 0.35 0  0.025 0.35 0  0.05 0.35 0  0.075 0.35 0  0.1 0.35 0  0.125 0.35 0  0.15 0.35 0  0.175 0.35 0  0.2 0.35 0  0.225 0.35 0  0.25 0.35 0  0.275 0.35 0  0.3 0.35 0  0.325 0.35 0  0.35 0.35 0  0.375 0.35 0  0.4 0.35 0  0.425 0.35 0  0.45 0.35 0  0.475 0.35 0  0.5 0.35 0  0.525 0.35 0  0.55 0.35 0  0.575 0.35 0  0.6 0.35 0  0.625 0.35 0  0.65 0.35 0  0.675 0.35 0  0.7 0.35 0  0.725 0.35 0  0.75 0.35 0  0.775 0.35 0  0.8 0.35 0  0.825 0.35 0  0.85 0.35 0  0.875 0.35 0  0.9 0.35 0  0.925 0.35 0  0.95 0.35 0  0.975 0.35 0  1 0.35 0  0 0.375 0  0.025 0.375 0  0.05 0.375 0  0.075 0.375 0  0.1 0.375 0  0.125 0.375 0  0.15 0.375 0  0.175 0.375 0  0.2 0.375 0  0.225 0.375 0  0.25 0.375 0  0.275 0.375 0  0.3 0.375 0  0.325 0.375 0  0.35 0.375 0  0.375 0.375 0  0.4 0.375 0  0.425 0.375 0  0.45 0.375 0  0.475 0.375 0  0.5 0.375 0  0.525 0.375 0  0.55 0.375 0  0.575 0.375 0  0.6 0.375 0  0.625 0.375 0  0.65 0.375 0  0.675 0.375 0  0.7 0.375 0  0.725 0.375 0  0.75 0.375 0  0.775 0.375 0  0.8 0.375 0  0.825 0.375 0  0.85 0.375 0  0.875 0.375 0  0.9 0.375 0  0.925 0.375 0  0.95 0.375 0  0.975 0.375 0  1 0.375 0  0 0.4 0  0.025 0.4 0  0.05 0.4 0  0.075 0.4 0  0.1 0.4 0  0.125 0.4 0  0.15 0.4 0  0.175 0.4 0  0.2 0.4 0  0.225 0.4 0  0.25 0.4 0  0.275 0.4 0  0.3 0.4 0  0.325 0.4 0  0.35 0.4 0  0.375 0.4 0  0.4 0.4 0  0.425 0.4 0  0.45 0.4 0  0.475 0.4 0  0.5 0.4 0  0.525 0.4 0  0.55 0.4 0  0.575 0.4 0  0.6 0.4 0  0.625 0.4 0  0.65 0.4 0  0.675 0.4 0  0.7 0.4 0  0.725 0.4 0  0.75 0.4 0  0.775 0.4 0  0.8 0.4 0  0.825 0.4 0  0.85 0.4 0  0.875 0.4 0  0.9 0.4 0  0.925 0.4 0  0.95 0.4 0  0.975 0.4 0  1 0.4 0  0 0.425 0  0.025 0.425 0  0.05 0.425 0  0.075 0.425 0  0.1 0.425 0  0.125 0.425 0  0.15 0.425 0  0.175 0.425 0  0.2 0.425 0  0.225 0.425 0  0.25 0.425 0  0.275 0.425 0  0.3 0.425 0  0.325 0.425 0  0.35 0.425 0  0.375 0.425 0  0.4 0.425 0  0.425 0.425 0  0.45 0.425 0  0.475 0.425 0  0.5 0.425 0  0.525 0.425 0  0.55 0.425 0  0.575 0.425 0  0.6 0.425 0  0.625 0.425 0  0.65 0.425 0  0.675 0.425 0  0.7 0.425 0  0.725 0.425 0  0.75 0.425 0  0.775 0.425 0  0.8 0.425 0  0.825 0.425 0  0.85 0.425 0  0.875 0.425 0  0.9 0.425 0  0.925 0.425 0  0.95 0.425 0  0.975 0.425 0  1 0.425 0  0 0.45 0  0.02
[...]
<PointData  Scalars="ControlVisualisation"> 
<DataArray  type="Float64"  Name="ControlVisualisation"  format="ascii">1.4048134558313854e-01  9.9109190382942053e-02  9.9110467403215136e-02  9.9112880731919914e-02  9.9116404417207538e-02  9.9120965121960475e-02  9.9126465992376664e-02  9.9132787726661759e-02  9.9139786418285553e-02  9.9147294071473185e-02  9.9155121509804198e-02  9.9163062791342571e-02  9.9170900975808690e-02  9.9178414965562151e-02  9.9185387064257696e-02  9.9191610831908972e-02  9.9196898788689244e-02  9.9201089543313997e-02  9.9204053979113749e-02  9.9205700209650347e-02  9.9205977096404024e-02  9.9204876197993203e-02  9.9202432082946990e-02  9.9198720998066911e-02  9.9193857937070015e-02  9.9187992216967488e-02  9.9181301737701705e-02  9.9173986180657966e-02  9.9166259480260380e-02  9.9158341970563418e-02  9.9150452648669007e-02  9.9142801990943566e-02  9.9135585719420258e-02  9.9128979798900591e-02  9.9123136997686823e-02  9.9118185086946309e-02  9.9114228422187589e-02  9.9111347289011720e-02  9.9109599845104673e-02  9.9108882822757427e-02  2.3764247355984403e-01  9.9109191037749914e-02  5.2493331216072650e-02  5.2495508225275440e-02  5.2499424976446975e-02  5.2505134256974756e-02  5.2512526511366474e-02  5.2521440797544693e-02  5.2531678707785065e-02  5.2543003571009772e-02  5.2555143957049022e-02  5.2567798681063052e-02  5.2580643425934895e-02  5.2593338965888865e-02  5.2605540768978748e-02  5.2616909654738322e-02  5.2627123026429024e-02  5.2635886094289437e-02  5.2642942479616449e-02  5.2648083628371964e-02  5.2651156551582132e-02  5.2652069525001621e-02  5.2650795499137280e-02  5.2647373081521856e-02  5.2641905057782691e-02  5.2634554516131013e-02  5.2625538741722433e-02  5.2615121155742767e-02  5.2603601685771460e-02  5.2591306058496337e-02  5.2578574580075865e-02  5.2565750996800005e-02  5.2553171987681425e-02  5.2541157745558870e-02  5.2530003930686409e-02  5.2519975285874709e-02  5.2511300685794002e-02  5.2504170602523721e-02  5.2498732440190606e-02  5.2495079753345227e-02  5.2493028422209979e-02  9.9108882848495589e-02  9.9110478839468164e-02  5.2495527945438096e-02  5.2499120122435294e-02  5.2504591898618454e-02  5.2512504999333173e-02  5.2522741347898534e-02  5.2535055762519552e-02  5.2549141818787538e-02  5.2564647513774668e-02  5.2581185292878641e-02  5.2598339778425596e-02  5.2615675916481669e-02  5.2632747901851289e-02  5.2649109323728217e-02  5.2664324635156481e-02  5.2677981647700205e-02  5.2689704448440067e-02  5.2699165971161005e-02  5.2706099431877720e-02  5.2710307920769556e-02  5.2711671591063124e-02  5.2710152051519937e-02  5.2705793738256172e-02  5.2698722200927486e-02  5.2689139395318697e-02  5.2677316231997694e-02  5.2663582795275068e-02  5.2648316807693343e-02  5.2631931051319997e-02  5.2614860526550969e-02  5.2597550093308514e-02  5.2580443161559826e-02  5.2563971696316485e-02  5.2548547386358571e-02  5.2534553641085432e-02  5.2522337118147910e-02  5.2512199073964538e-02  5.2504369678734120e-02  5.2498933105295208e-02  5.2495092909893584e-02  9.9109602159489829e-02  9.9112949624979602e-02  5.2499543720016098e-02  5.2504728080434326e-02  5.2510661676017513e-02  5.2518964627829866e-02  5.2529641564002166e-02  5.2542456978745183e-02  5.2557086922416008e-02  5.2573159488501754e-02  5.2590269096479660e-02  5.2607985319909512e-02  5.2625860820018411e-02  5.2643439697450715e-02  5.2660267151033405e-02  5.2675900625180870e-02  5.2689922129905607e-02  5.2701951062744085e-02  5.2711656699442715e-02  5.2718769529113821e-02  5.2723090727406059e-02  5.2724499231811217e-02  5.2722956057943089e-02  5.2718505655448299e-02  5.2711274246771418e-02  5.2701465226144675e-02  5.2689351840913702e-02  5.2675267532650831e-02  5.2659594487888983e-02  5.2642751109027601e-02  5.2625179224910709e-02  5.2607331858866964e-02  5.2589662202457761e-02  5.2572614095875464e-02  5.2556613768325655e-02  5.2542062136537962e-02  5.2529325388760199e-02  5.2518720587178651e-02  5.2510465907380670e-02  5.2504497147993691e-02  5.2498823457188218e-02  9.9111371837396739e-02  9.9116650733632600e-02  5.2505547431330825e-02  5.2513056176982875e-02  5.2519401341137278e-02  5.2527859117015595e-02  5.2538656369323145e-02  5.2551603143262911e-02  5.2566383573405998e-02  5.2582625280494753e-02  5.2599918525973996e-02  5.2617826915051874e-02  5.2635896100635293e-02  5.2653662933936474e-02  5.2670665902016307e-02  5.2686456906264681e-02  5.2700613958600172e-02  5.2712754070870754e-02  5.2722545528005094e-02  5.2729718803608404e-02  5.2734075532437773e-02  5.2735495124633922e-02  5.2733938763380846e-02  5.2729450649753637e-02  5.2722156460065922e-02  5.2712259071337704e-02  5.2700031709894145e-02  5.2685808799854350e-02  5.2669974937022274e-02  5.2652952578839951e-02  5.2635189180408076e-02  5.2617144568483674e-02  5.2599279251037863e-02  5.2582044083120116e-02  5.2565871172241416e-02  5.2551165307335737e-02  5.2538292859423297e-02  5.2527561158638540e-02  5.2519139379140954e-02  5.2512719418580489e-02  5.2504507448396950e-02  9.9114345035952844e-02  9.9121617971586862e-02  5.2513599106733991e-02  5.2524229036521292e-02  5.2531071211761357e-02  5.2539669713694288e-02  5.2550551989389176e-02  5.2563590733813448e-02  5.2578485943568481e-02  5.2594868363215905e-02  5.2612325255270390e-02  5.2630413439714835e-02  5.2648669519525078e-02  5.2666620637185683e-02  5.2683796344344738e-02  5.2699741439349475e-02  5.2714029202091568e-02  5.2726274286386113e-02  5.2736144560145783e-02  5.2743371322371516e-02  5.2747757502300478e-02  5.2749183598530931e-02  5.2747611223249252e-02  5.2743084191252738e-02  5.2735727140567942e-02  5.2725741716154573e-02  5.2713400396539288e-02  5.2699038114662609e-02  5.2683041930563487e-02  5.2665839156355455e-02  5.2647884491499236e-02  5.2629646854171042e-02  5.2611596612603111e-02  5.2594193775457182e-02  5.2577877258451991e-02  5.2563054657109642e-02  5.2550088808458885e-02  5.2539269772009449e-02  5.2530699529907042e-02  5.2523749112318607e-02  5.2512208216510987e-02  9.9118549403744899e-02  9.9127895218713971e-02  5.2523751653099277e-02  5.2538303728429644e-02  5.2545759682229305e-02  5.2554548098289439e-02  5.2565561021154124e-02  5.2578745650856941e-02  5.2593819935483128e-02  5.2610416145613625e-02  5.2628115174840936e-02  5.2646462637609401e-02  5.2664981492036515e-02  5.2683185174381648e-02  5.2700591485568056e-02  5.2716736768109132e-02  5.2731189633960396e-02  5.2743563552047935e-02  5.2753527796762484e-02  5.2760816479045895e-02  5.2765235548718412e-02  5.2766667748088719e-02  5.2765075523345070e-02  5.2760501902197512e-02  5.2753069343810216e-02  5.2742976567648328e-02  5.2730493367558029e-02  5.2715953422057329e-02  5.2699745142348375e-02  5.2682300683784683e-02  5.2664083393969434e-02  5.2645574162520192e-02  5.2627257308072425e-02  5.2609606704692335e-02  5.2593072598551838e-02  5.2578068846216269e-02  5.2564956230301337e-02  5.2554005466651163e-02  5.2545239809171487e-02  5.2537646974264413e-02  5.2521979406058614e-02  9.9124023776845677e-02  9.9135527828989392e-02  5.2536049938191678e-02  5.2555311280401300e-02  5.2563508263197299e-02  5.2572576634100664e-02  5.2583822088315427e-02  5.2597272039870871e-02  5.2612660117033201e-02  5.2629614400928157e-02  5.2647701938299707e-02  5.2666449189304160e-02  5.2685358294024272e-02  5.2703923596591665e-02  5.2721648188121112e-02  5.2738059558791184e-02  5.2752723472959326e-02  5.2765255562458931e-02  5.2775330549129043e-02  5.2782689296695592e-02  5.2787143990566172e-02  5.2788581689923363e-02  5.2786966383029169e-02  5.2782339589348443e-02  5.2774819515348508e-02  5.2764598760304912e-02  5.2751940532442011e-02  5.2737173259193977e-02  5.2720683378652683e-02  5.2702906057375910e-02  5.2684313655831830e-02  5.2665401990164722e-02  5.2646674794828256e-02  5.2628627171699499e-02  5.2611728898126445e-02  5.2596407818545021e-02  5.2583028486169248e-02  5.2571844381103038e-02  5.2562794411834445e-02  5.2554436091975007e-02  5.2533861904588218e-02  9.9130810760395927e-02  9.9144547235362840e-02  5.2550506657341435e-02  5.2575241352843124e-02  5.2584324696191696e-02  5.2593815897874485e-02  5.2605467021386909e-02  5.2619383726658232e-02  5.2635307006302187e-02  5.2652849088104914e-02  5.2671550116815735e-02  5.2690904924141406e-02  5.2710384708422008e-02  5.2729458260319551e-02  5.2747611763151084e-02  5.2764365705966994e-02  5.2779287996142732e-02  5.2792003239475638e-02  5.2802198859709409e-02  5.2809629022116909e-02  5.2814117208100558e-02  5.2815557938025129e-02  5.2813917793108123e-02  5.2809235703891566e-02  5.2801622468908196e-02  5.2791259532665349e-02  5.2778397035442688e-02  5.2763350977550444e-02  5.2746499043350353e-02  5.2728274345286673e-02  5.2709156231229654e-02  5.2689657471479079e-02  5.2670307666181769e-02  5.2651633521231478e-02  5.2634137301380134e-02  5.2618274437522275e-02  5.2604425343695874e-02  5.2592834647454394e-02  5.2583358894394361e-02  5.2574095315943759e-02  5.2547865752091645e-02  9.9138947466953606e-02  9.9154949904165207e-02  5.2567070307928745e-02  5.2598011194824643e-02  5.2608165144924300e-02  5.2618303288833788e-02  5.2630639288549795e-02  5.2645344406265379e-02  5.2662148676356921e-02  5.2680627231931162e-02  5.2700271845215169e-02  5.2720526924030418e-02  5.2740819133362919e-02  5.2760584935956242e-02  5.2779293974428154e-02  5.2796466248909622e-02  5.2811682480875977e-02  5.2824588687621937e-02  5.2834897015544745e-02  5.2842384987746772e-02  5.2846894676285915e-02  5.2848332379621846e-02  5.2846668665418227e-02  5.2841938404164707e-02  5.2834240619065442e-02  5.2823738325947979e-02  5.2810658670927234e-02  5.2795293415403712e-02  5.2777999201845803e-02  5.2759196316124718e-02  5.2739364150674845e-02  5.2719031483540853e-02  5.2698760217482966e-02  5.2679122498318770e-02  5.2660672732507852e-02  5.2643916559868206e-02  5.2629272523455839e-02  5.2616995152552394e-02  5.2606871154078957e-02  5.2596525557185345e-02  5.2563938105051819e-02  9.9148447337262607e-02  9.9166666673546039e-02  5.2585576957037361e-02  5.2623416803523608e-02  5.2634902514237740e-02  5.2646042796785593e-02  5.2659508138151054e-02  5.2675506815202333e-02  5.2693723074312061e-02  5.2713658166542200e-02  5.2734720981775313e-02  5.2756277742930568e-02  5.2777693208871448e-02  5.2798366359199829e-02  5.2817756873032140e-02  5.2835399927800432e-02  5.2850909790340989e-02  5.2863975437685104e-02  5.2874352725218544e-02  5.2881857073376240e-02  5.2886358817908971e-02  5.2887781340740618e-02  5.2886100812816535e-02  5.2881346259645440e-02  5.2873599467584888e-02  5.2862995303317138e-02  5.2849723600965702e-02  5.2834033438172848e-02  5.2816239453756339e-02  5.2796728446551922e-02  5.2775963318514030e-02  5.2754480699199059e-02  5.2732878614505416e-02  5.2711791967696910e-02  5.2691856596349486e-02  5.2673665312966966e-02  5.2657713944192455e-02  5.2644303023322445e-02  5.2633177818120436e-02  5.2621499669159341e-02  5.2581916276278826e-02  9.9159275494403218e-02  9.9179516554289332e-02  5.2605678156553648e-02  5.2651060896514210e-02  5.2664280675031871e-02  5.2676992895544131e-02  5.2692294862243964e-02  5.2710377778936862e-02  5.2730817714074132e-02  5.2752979716487368e-02  5.2776134816652366e-02  5.2799530639401515e-02  5.2822449480998165e-02  5.2844253846019013e-02  5.2864413560258360e-02  5.2882512163542270e-02  5.2898235834675539e-02  5.2911352580351664e-02  5.2921690648320252e-02  5.2929122818130600e-02  5.2933558878303373e-02  5.2934944538134132e-02  5.2933262973614018e-02  5.2928535681240896e-02  5.2920821556216850e-02  5.2910215761433232e-02  5.2896851583314738e-02  5.2880907973162666e-02  5.2862623360746271e-02  5.2842313755387088e-02  5.2820390991477201e-02  5.2797375481428876e-02  5.2773896148304134e-02  5.2750669862522692e-02  5.2728457118932912e-02  5.2707998330943542e-02  5.2689934318736760e-02  5.2674677054716804e-02  5.2661984395420733e-02  5.2648587716988743e-02  5.2601457733984822e-02  9.9171311825756947e-02  9.9193138653217938e-02  5.2626735174562671e-02  5.2680247812540250e-02  5.2695851491374034e-02  5.2711059436712698e-02  5.2729329000559599e-02  5.2750737604497500e-02  5.2774644287269995e-02  5.2800172876505097e-02  5.2826368773530016e-02  5.2852302914710304e-02  5.2877154417214203e-02  5.2900266517724163e-02  5.2921167382637080e-02  5.2939555219316592e-02  5.2955257224770340e-02  5.2968179161537447e-02  5.2978262638542051e-02  5.2985460508494384e-02  5.2989731134452836e-02  5.2991044597983220e-02  5.2989391160459212e-02  5.2984784505523061e-02  5.2977257643920493e-02  5.2966855457675877e-02  5.2953631467536372e-02  5.2937655787054644e-02  5.2919037280218510e-02  5.2897957103882828e-02  5.2874708601294819e-02  5.2849738225091154e-02  5.2823676096100482e-02  5.2797335894580126e-02  5.2771666391741259e-02  5.2747656284427055e-02  5.2726208910210098e-02  5.2707963173801761e-02  5.2692786270555313e-02  5.2677048866671808e-02  5.2621938295427696e-02  9.9184296499670768e-02  9.9206896277068246e-02  5.2647669422179341e-02  5.2709836312731996e-02  5.2728895757998030e-02  5.2748108538379711e-02  5.2771165096408314e-02  5.2797860559444382e-02  5.2827148685751980e-02  5.2857733327111300e-02  5.2888292460197481e-02  5.2917638064597101e-02  5.2944833955243631e-02  5.2969258806044896e-02  5.2990604134783230e-02  5.3008811545673634e-02  5.3023971898213618e-02  5.3036221739376437e-02  5.3045669484678190e-02  5.3052366391708669e-02  5.3056316370644861e-02  5.3057505039782002e-02  5.3055926111687496e-02  5.3051589906325983e-02  5.3044510594452962e-02  5.3034681159497062e-02  5.3022052675972389e-02  5.3006535856466738e-02  5.2988031063586488e-02  5.2966479737734787e-02  5.2941932532802563e-02  5.2914635391416866e-02  5.2885128167861215e-02  5.2854311912016144e-02  5.2823417989875790e-02  5.2793858710494308e-02  5.2767008581887972e-02  5.2743934776881038e-02  5.2724781010796078e-02  5.2705682179054664e-02  5.2642309971442605e-02  9.9197752153899699e-02  9.9219750699572173e-02  5.2666766797969826e-02  5.2738055552627991e-02  5.2762350322021548e-02  5.2788040504834287e-02  5.2818823257524884e-02  5.2853925765016435e-02  5.2891569116753454e-02  5.2929724978912684e-02  5.2966468694448925e-02  5.3000239317974436e-02  5.3030004784645993e-02  5.3055315940446920e-02  5.3076245888534983e-02  5.3093226500573826e-02  5.3106828609194551e-02  5.3117561913181378e-02  5.3125758773747186e-02  5.3131560072895656e-02  5.3134975544098600e-02  5.3135969569113428e-02  5.3134527180998148e-02  5.3130672866075632e-02  5.3124437220939270e-02  5.3115788217178536e-02  5.3104565060257639e-02  5.3090458489658432e-02  5.3073046420828274e-02  5.3051873067749569e-02  5.3026540073109356e-02  5.2996829677762869e-02  5.2962941186211067e-02  5.2925767156255195e-02  5.2886966042596850e-02  5.2848704698875419e-02  5.2813215939045942e-02  5.2782342596981037e-02  5.2756780185949009e-02  5.2732642329545588e-02  5.2660918777889421e-02  9.9210879951633496e-02  9.9230130027835331e-02  5.2681471332447063e-02  5.2762331352147487e-02  5.2794800048581447e-02  5.2831003289185142e-02  5.2874268392564885e-02  5.2922785386377964e-02  5.2973463243952933e-02  5.3022961268200650e-02  5.3068343182924693e-02  5.3107538526964329e-02  5.3139530122342266e-02  5.3164344108840599e-02  5.3182874165243144e-02  5.3196517036709329e-02  5.3206707358358307e-02  5.3214535057587921e-02  5.3220581888978005e-02  5.3224983578463878e-02  5.3227624027742899e-02  5.3228346637898050e-02  5.3227099210152382e-02  5.3223970572015930e-02  5.3219110231775217e-02  5.3212560481841358e-02  5.3204084504785587e-02  5.3193082047318083e-02  5.3178651865543831e-02  5.3159750496533931e-02  5.3135231836188110e-02  5.3103889373163668e-02  5.3064924375570546e-02  5.3018844398471376e-02  5.2967967137123352e-02  5.2915919093660821e-02  5.2866563351755991e-02  5.2823102707194917e-02  5.2787192184948858e-02  5.2755272942639320e-02  5.2675313945279009e-02  9.9222438470701946e-02  9.9235852488577650e-02  5.2688262840258196e-02  5.2779284021402598e-02  5.2824794527275072e-02  5.2878068797579079e-02  5.2941460107646131e-02  5.3011495975800405e-02  5.3082719969342496e-02  5.3149245259317579e-02  5.3206420694198536e-02  5.3251604262921241e-02  5.3284107533351159e-02  5.3305043548904495e-02  5.3317000942767062e-02  5.3323276198562995e-02  5.3326860724724291e-02  5.3329690683236251e-02  5.3332476172562732e-02  5.3335022679836863e-02  5.3336749752356527e-02  5.3337153114387359e-02  5.3336085686086512e-02  5.3333818959310005e-02  5.3330876822647671e-02  5.3327672412889236e-02  5.3324060513582794e-02  5.3319042937420673e-02  5.3310986516233193e-02  5.3298005615897877e-02  5.3277987634767564e-02  5.3248030922850784e-02  5.3204606338945304e-02  5.3146346367757155e-02  5.3076582905702198e-02  5.3002229116184171e-02  5.2930496692348464e-02  5.2866838035393979e-02  5.2814294968012716e-02  5.2770143800835986e-02  5.2682166937165029e-02  9.9230648851694303e-02  9.9234390045900969e-02  5.2683121698981067e-02  5.2785610129114896e-02  5.2852072137435022e-02  5.2932425007379914e-02  5.3027743708626812e-02  5.3132851402310680e-02  5.3237419981031056e-02  5.3329880862133396e-02  5.3402760934909102e-02  5.3453310507060779e-02  5.3482058789775966e-02  5.3492236589528029e-02  5.3489695626517612e-02  5.3481515443779062e-02  5.3473550909777241e-02  5.3468827543608335e-02  5.3467601619181328e-02  5.3468473337505304e-02  5.3469639891931181e-02  5.3469790517586019e-02  5.3468571019130301e-02  5.3466686112255364e-02  5.3465634715829755e-02  5.3466951485922919e-02  5.3471021322031173e-02  5.3476225490454748e-02  5.3479539113302665e-02  5.3477860944848882e-02  5.3469538257993880e-02  5.3449971371375492e-02  5.3407505323944560e-02  5.3332949481927197e-02  5.3231686766126413e-02  5.3119732704089345e-02  5.3011768750442466e-02  5.2916291665951014e-02  5.2837406974526130e-02  5.2773823535006779e-02  5.2677644067052012e-02  9.9233264056814027e-02  9.9224242446730990e-02  5.2663425887136371e-02  5.2780618317315703e-02  5.2880663582047065e-02  5.3003281369806497e-02  5.3149157775830347e-02  5.3313981105405417e-02  5.3476607146785662e-02  5.3610930672929984e-02  5.3705749500432276e-02  5.3763759717276635e-02  5.3788087574988555e-02  5.3782219886891795e-02  5.3757051983047366e-02  5.3727854324574054e-02  5.3706166056372295e-02  5.3695937913134095e-02  5.3695000968492244e-02  5.3698565385691940e-02  5.3702047890594316e-02  5.3702525053159741e-02  5.3699261876300725e-02  5.3693847421012568e-02  5.3689939071641588e-02  5.3691973615556651e-02  5.3702547140615210e-02  5.3719309539414027e-02  5.3735056207776771e-02  5.3743788734481462e-02  5.3750188622377876e-02  5.3755267624135961e-02  5.3729227417478168e-02  5.3631825554272865e-02  5.3470364443813805e-02  5.3289420062630953e-02  5.3122886857439156e-02  5.2979765191740552e-02  5.2860527931644474e-02  5.2765837820995531e-02  5.2659195422886988e-02  9.9228199019871594e-02  9.9209491259303340e-02  5.2635193871900625e-02  5.2777231829216231e-02  5.2932735242491098e-02  5.3113291551579782e-02  5.3321731012102483e-02  5.3592278707622780e-02  5.3898764553210021e-02  5.4159847488773220e-02  5.4377161379765795e-02  5.4605371024334784e-02  5.4830478564860188e-02  5.5012487301419111e-02  5.5148113031309350e-02  5.5261097716580103e-02  5.5370446393726694e-02  5.5477390866133583e-02  5.5571841660297633e-02  5.5642719220322559e-02  5.5682801638091722e-02  5.5688327288003013e-02  5.5657460426812300e-02  5.5590852429815707e-02  5.5494436011436686e-02  5.5380489202395466e-02  5.5260362517416874e-02  5.5127286683912993e-02  5.4957562253263453e-02  5.4744885040524785e-02  5.4545897549705902e-02  5.4469357387567446e-02  5.4436716970894097e-02  5.4237533347681180e-02  5.3882328544146020e-02  5.3538354454757513e-02  5.3281014168508750e-02  5.3078764614047272e-02  5.2902769174632915e-02  5.2757880722172343e-02  5.2631426192692315e-02  9.9215852721852557e-02  9.9216964932092297e-02  5.2634892528397932e-02  5.2818917306574516e-02  5.3055743753494582e-02  5.3295283709263105e-02  5.3676327892502464e-02  5.4692941804643305e-02  5.6862483285426722e-02  5.952662671