<?xml version="1.0"?>
<VTKFile type="UnstructuredGrid"  version="0.1"  >
<UnstructuredGrid>
<Piece  NumberOfPoints="1681" NumberOfCells="3200">
<Points>
<DataArray  type="Float64"  NumberOfComponents="3"  format="ascii">0 0 0  0.025 0 0  0.05 0 0  0.075 0 0  0.1 0 0  0.125 0 0  0.15 0 0  0.175 0 0  0.2 0 0  0.225 0 0  0.25 0 0  0.275 0 0  0.3 0 0  0.325 0 0  0.35 0 0  0.375 0 0  0.4 0 0  0.425 0 0  0.45 0 0  0.475 0 0  0.5 0 0  0.525 0 0  0.55 0 0  0.575 0 0  0.6 0 0  0.625 0 0  0.65 0 0  0.675 0 0  0.7 0 0  0.725 0 0  0.75 0 0  0.775 0 0  0.8 0 0  0.825 0 0  0.85 0 0  0.875 0 0  0.9 0 0  0.925 0 0  0.95 0 0  0.975 0 0  1 0 0  0 0.025 0  0.025 0.025 0  0.05 0.025 0  0.075 0.025 0  0.1 0.025 0  0.125 0.025 0  0.15 0.025 0  0.175 0.025 0  0.2 0.025 0  0.225 0.025 0  0.25 0.025 0  0.275 0.025 0  0.3 0.025 0  0.325 0.025 0  0.35 0.025 0  0.375 0.025 0  0.4 0.025 0  0.425 0.025 0  0.45 0.025 0  0.475 0.025 0  0.5 0.025 0  0.525 0.025 0  0.55 0.025 0  0.575 0.025 0  0.6 0.025 0  0.625 0.025 0  0.65 0.025 0  0.675 0.025 0  0.7 0.025 0  0.725 0.025 0  0.75 0.025 0  0.775 0.025 0  0.8 0.025 0  0.825 0.025 0  0.85 0.025 0  0.875 0.025 0  0.9 0.025 0  0.925 0.025 0  0.95 0.025 0  0.975 0.025 0  1 0.025 0  0 0.05 0  0.025 0.05 0  0.05 0.05 0  0.075 0.05 0  0.1 0.05 0  0.125 0.05 0  0.15 0.05 0  0.175 0.05 0  0.2 0.05 0  0.225 0.05 0  0.25 0.05 0  0.275 0.05 0  0.3 0.05 0  0.325 0.05 0  0.35 0.05 0  0.375 0.05 0  0.4 0.05 0  0.425 0.05 0  0.45 0.05 0  0.475 0.05 0  0.5 0.05 0  0.525 0.05 0  0.55 0.05 0  0.575 0.05 0  0.6 0.05 0  0.625 0.05 0  0.65 0.05 0  0.675 0.05 0  0.7 0.05 0  0.725 0.05 0  0.75 0.05 0  0.775 0.05 0  0.8 0.05 0  0.825 0.05 0  0.85 0.05 0  0.875 0.05 0  0.9 0.05 0  0.925 0.05 0  0.95 0.05 0  0.975 0.05 0  1 0.05 0  0 0.075 0  0.025 0.075 0  0.05 0.075 0  0.075 0.075 0  0.1 0.075 0  0.125 0.075 0  0.15 0.075 0  0.175 0.075 0  0.2 0.075 0  0.225 0.075 0  0.25 0.075 0  0.275 0.075 0  0.3 0.075 0  0.325 0.075 0  0.35 0.075 0  0.375 0.075 0  0.4 0.075 0  0.425 0.075 0  0.45 0.075 0  0.475 0.075 0  0.5 0.075 0  0.525 0.075 0  0.55 0.075 0  0.575 0.075 0  0.6 0.075 0  0.625 0.075 0  0.65 0.075 0  0.675 0.075 0  0.7 0.075 0  0.725 0.075 0  0.75 0.075 0  0.775 0.075 0  0.8 0.075 0  0.825 0.075 0  0.85 0.075 0  0.875 0.075 0  0.9 0.075 0  0.925 0.075 0  0.95 0.075 0  0.975 0.075 0  1 0.075 0  0 0.1 0  0.025 0.1 0  0.05 0.1 0  0.075 0.1 0  0.1 0.1 0  0.125 0.1 0  0.15 0.1 0  0.175 0.1 0  0.2 0.1 0  0.225 0.1 0  0.25 0.1 0  0.275 0.1 0  0.3 0.1 0  0.325 0.1 0  0.35 0.1 0  0.375 0.1 0  0.4 0.1 0  0.425 0.1 0  0.45 0.1 0  0.475 0.1 0  0.5 0.1 0  0.525 0.1 0  0.55 0.1 0  0.575 0.1 0  0.6 0.1 0  0.625 0.1 0  0.65 0.1 0  0.675 0.1 0  0.7 0.1 0  0.725 0.1 0  0.75 0.1 0  0.775 0.1 0  0.8 0.1 0  0.825 0.1 0  0.85 0.1 0  0.875 0.1 0  0.9 0.1 0  0.925 0.1 0  0.95 0.1 0  0.975 0.1 0  1 0.1 0  0 0.125 0  0.025 0.125 0  0.05 0.125 0  0.075 0.125 0  0.1 0.125 0  0.125 0.125 0  0.15 0.125 0  0.175 0.125 0  0.2 0.125 0  0.225 0.125 0  0.25 0.125 0  0.275 0.125 0  0.3 0.125 0  0.325 0.125 0  0.35 0.125 0  0.375 0.125 0  0.4 0.125 0  0.425 0.125 0  0.45 0.125 0  0.475 0.125 0  0.5 0.125 0  0.525 0.125 0  0.55 0.125 0  0.575 0.125 0  0.6 0.125 0  0.625 0.125 0  0.65 0.125 0  0.675 0.125 0  0.7 0.125 0  0.725 0.125 0  0.75 0.125 0  0.775 0.125 0  0.8 0.125 0  0.825 0.125 0  0.85 0.125 0  0.875 0.125 0  0.9 0.125 0  0.925 0.125 0  0.95 0.125 0  0.975 0.125 0  1 0.125 0  0 0.15 0  0.025 0.15 0  0.05 0.15 0  0.075 0.15 0  0.1 0.15 0  0.125 0.15 0  0.15 0.15 0  0.175 0.15 0  0.2 0.15 0  0.225 0.15 0  0.25 0.15 0  0.275 0.15 0  0.3 0.15 0  0.325 0.15 0  0.35 0.15 0  0.375 0.15 0  0.4 0.15 0  0.425 0.15 0  0.45 0.15 0  0.475 0.15 0  0.5 0.15 0  0.525 0.15 0  0.55 0.15 0  0.575 0.15 0  0.6 0.15 0  0.625 0.15 0  0.65 0.15 0  0.675 0.15 0  0.7 0.15 0  0.725 0.15 0  0.75 0.15 0  0.775 0.15 0  0.8 0.15 0  0.825 0.15 0  0.85 0.15 0  0.875 0.15 0  0.9 0.15 0  0.925 0.15 0  0.95 0.15 0  0.975 0.15 0  1 0.15 0  0 0.175 0  0.025 0.175 0  0.05 0.175 0  0.075 0.175 0  0.1 0.175 0  0.125 0.175 0  0.15 0.175 0  0.175 0.175 0  0.2 0.175 0  0.225 0.175 0  0.25 0.175 0  0.275 0.175 0  0.3 0.175 0  0.325 0.175 0  0.35 0.175 0  0.375 0.175 0  0.4 0.175 0  0.425 0.175 0  0.45 0.175 0  0.475 0.175 0  0.5 0.175 0  0.525 0.175 0  0.55 0.175 0  0.575 0.175 0  0.6 0.175 0  0.625 0.175 0  0.65 0.175 0  0.675 0.175 0  0.7 0.175 0  0.725 0.175 0  0.75 0.175 0  0.775 0.175 0  0.8 0.175 0  0.825 0.175 0  0.85 0.175 0  0.875 0.175 0  0.9 0.175 0  0.925 0.175 0  0.95 0.175 0  0.975 0.175 0  1 0.175 0  0 0.2 0  0.025 0.2 0  0.05 0.2 0  0.075 0.2 0  0.1 0.2 0  0.125 0.2 0  0.15 0.2 0  0.175 0.2 0  0.2 0.2 0  0.225 0.2 0  0.25 0.2 0  0.275 0.2 0  0.3 0.2 0  0.325 0.2 0  0.35 0.2 0  0.375 0.2 0  0.4 0.2 0  0.425 0.2 0  0.45 0.2 0  0.475 0.2 0  0.5 0.2 0  0.525 0.2 0  0.55 0.2 0  0.575 0.2 0  0.6 0.2 0  0.625 0.2 0  0.65 0.2 0  0.675 0.2 0  0.7 0.2 0  0.725 0.2 0  0.75 0.2 0  0.775 0.2 0  0.8 0.2 0  0.825 0.2 0  0.85 0.2 0  0.875 0.2 0  0.9 0.2 0  0.925 0.2 0  0.95 0.2 0  0.975 0.2 0  1 0.2 0  0 0.225 0  0.025 0.225 0  0.05 0.225 0  0.075 0.225 0  0.1 0.225 0  0.125 0.225 0  0.15 0.225 0  0.175 0.225 0  0.2 0.225 0  0.225 0.225 0  0.25 0.225 0  0.275 0.225 0  0.3 0.225 0  0.325 0.225 0  0.35 0.225 0  0.375 0.225 0  0.4 0.225 0  0.425 0.225 0  0.45 0.225 0  0.475 0.225 0  0.5 0.225 0  0.525 0.225 0  0.55 0.225 0  0.575 0.225 0  0.6 0.225 0  0.625 0.225 0  0.65 0.225 0  0.675 0.225 0  0.7 0.225 0  0.725 0.225 0  0.75 0.225 0  0.775 0.225 0  0.8 0.225 0  0.825 0.225 0  0.85 0.225 0  0.875 0.225 0  0.9 0.225 0  0.925 0.225 0  0.95 0.225 0  0.975 0.225 0  1 0.225 0  0 0.25 0  0.025 0.25 0  0.05 0.25 0  0.075 0.25 0  0.1 0.25 0  0.125 0.25 0  0.15 0.25 0  0.175 0.25 0  0.2 0.25 0  0.225 0.25 0  0.25 0.25 0  0.275 0.25 0  0.3 0.25 0  0.325 0.25 0  0.35 0.25 0  0.375 0.25 0  0.4 0.25 0  0.425 0.25 0  0.45 0.25 0  0.475 0.25 0  0.5 0.25 0  0.525 0.25 0  0.55 0.25 0  0.575 0.25 0  0.6 0.25 0  0.625 0.25 0  0.65 0.25 0  0.675 0.25 0  0.7 0.25 0  0.725 0.25 0  0.75 0.25 0  0.775 0.25 0  0.8 0.25 0  0.825 0.25 0  0.85 0.25 0  0.875 0.25 0  0.9 0.25 0  0.925 0.25 0  0.95 0.25 0  0.975 0.25 0  1 0.25 0  0 0.275 0  0.025 0.275 0  0.05 0.275 0  0.075 0.275 0  0.1 0.275 0  0.125 0.275 0  0.15 0.275 0  0.175 0.275 0  0.2 0.275 0  0.225 0.275 0  0.25 0.275 0  0.275 0.275 0  0.3 0.275 0  0.325 0.275 0  0.35 0.275 0  0.375 0.275 0  0.4 0.275 0  0.425 0.275 0  0.45 0.275 0  0.475 0.275 0  0.5 0.275 0  0.525 0.275 0  0.55 0.275 0  0.575 0.275 0  0.6 0.275 0  0.625 0.275 0  0.65 0.275 0  0.675 0.275 0  0.7 0.275 0  0.725 0.275 0  0.75 0.275 0  0.775 0.275 0  0.8 0.275 0  0.825 0.275 0  0.85 0.275 0  0.875 0.275 0  0.9 0.275 0  0.925 0.275 0  0.95 0.275 0  0.975 0.275 0  1 0.275 0  0 0.3 0  0.025 0.3 0  0.05 0.3 0  0.075 0.3 0  0.1 0.3 0  0.125 0.3 0  0.15 0.3 0  0.175 0.3 0  0.2 0.3 0  0.225 0.3 0  0.25 0.3 0  0.275 0.3 0  0.3 0.3 0  0.325 0.3 0  0.35 0.3 0  0.375 0.3 0  0.4 0.3 0  0.425 0.3 0  0.45 0.3 0  0.475 0.3 0  0.5 0.3 0  0.525 0.3 0  0.55 0.3 0  0.575 0.3 0  0.6 0.3 0  0.625 0.3 0  0.65 0.3 0  0.675 0.3 0  0.7 0.3 0  0.725 0.3 0  0.75 0.3 0  0.775 0.3 0  0.8 0.3 0  0.825 0.3 0  0.85 0.3 0  0.875 0.3 0  0.9 0.3 0  0.925 0.3 0  0.95 0.3 0  0.975 0.3 0  1 0.3 0  0 0.325 0  0.025 0.325 0  0.05 0.325 0  0.075 0.325 0  0.1 0.325 0  0.125 0.325 0  0.15 0.325 0  0.175 0.325 0  0.2 0.325 0  0.225 0.325 0  0.25 0.325 0  0.275 0.325 0  0.3 0.325 0  0.325 0.325 0  0.35 0.325 0  0.375 0.325 0  0.4 0.325 0  0.425 0.325 0  0.45 0.325 0  0.475 0.325 0  0.5 0.325 0  0.525 0.325 0  0.55 0.325 0  0.575 0.325 0  0.6 0.325 0  0.625 0.325 0  0.65 0.325 0  0.675 0.325 0  0.7 0.325 0  0.725 0.325 0  0.75 0.325 0  0.775 0.325 0  0.8 0.325 0  0.825 0.325 0  0.85 0.325 0  0.875 0.325 0  0.9 0.325 0  0.925 0.325 0  0.95 0.325 0  0.975 0.325 0  1 0.325 0  0 0.35 0  0.025 0.35 0  0.05 0.35 0  0.075 0.35 0  0.1 0.35 0  0.125 0.35 0  0.15 0.35 0  0.175 0.35 0  0.2 0.35 0  0.225 0.35 0  0.25 0.35 0  0.275 0.35 0  0.3 0.35 0  0.325 0.35 0  0.35 0.35 0  0.375 0.35 0  0.4 0.35 0  0.425 0.35 0  0.45 0.35 0  0.475 0.35 0  0.5 0.35 0  0.525 0.35 0  0.55 0.35 0  0.575 0.35 0  0.6 0.35 0  0.625 0.35 0  0.65 0.35 0  0.675 0.35 0  0.7 0.35 0  0.725 0.35 0  0.75 0.35 0  0.775 0.35 0  0.8 0.35 0  0.825 0.35 0  0.85 0.35 0  0.875 0.35 0  0.9 0.35 0  0.925 0.35 0  0.95 0.35 0  0.975 0.35 0  1 0.35 0  0 0.375 0  0.025 0.375 0  0.05 0.375 0  0.075 0.375 0  0.1 0.375 0  0.125 0.375 0  0.15 0.375 0  0.175 0.375 0  0.2 0.375 0  0.225 0.375 0  0.25 0.375 0  0.275 0.375 0  0.3 0.375 0  0.325 0.375 0  0.35 0.375 0  0.375 0.375 0  0.4 0.375 0  0.425 0.375 0  0.45 0.375 0  0.475 0.375 0  0.5 0.375 0  0.525 0.375 0  0.55 0.375 0  0.575 0.375 0  0.6 0.375 0  0.625 0.375 0  0.65 0.375 0  0.675 0.375 0  0.7 0.375 0  0.725 0.375 0  0.75 0.375 0  0.775 0.375 0  0.8 0.375 0  0.825 0.375 0  0.85 0.375 0  0.875 0.375 0  0.9 0.375 0  0.925 0.375 0  0.95 0.375 0  0.975 0.375 0  1 0.375 0  0 0.4 0  0.025 0.4 0  0.05 0.4 0  0.075 0.4 0  0.1 0.4 0  0.125 0.4 0  0.15 0.4 0  0.175 0.4 0  0.2 0.4 0  0.225 0.4 0  0.25 0.4 0  0.275 0.4 0  0.3 0.4 0  0.325 0.4 0  0.35 0.4 0  0.375 0.4 0  0.4 0.4 0  0.425 0.4 0  0.45 0.4 0  0.475 0.4 0  0.5 0.4 0  0.525 0.4 0  0.55 0.4 0  0.575 0.4 0  0.6 0.4 0  0.625 0.4 0  0.65 0.4 0  0.675 0.4 0  0.7 0.4 0  0.725 0.4 0  0.75 0.4 0  0.775 0.4 0  0.8 0.4 0  0.825 0.4 0  0.85 0.4 0  0.875 0.4 0  0.9 0.4 0  0.925 0.4 0  0.95 0.4 0  0.975 0.4 0  1 0.4 0  0 0.425 0  0.025 0.425 0  0.05 0.425 0  0.075 0.425 0  0.1 0.425 0  0.125 0.425 0  0.15 0.425 0  0.175 0.425 0  0.2 0.425 0  0.225 0.425 0  0.25 0.425 0  0.275 0.425 0  0.3 0.425 0  0.325 0.425 0  0.35 0.425 0  0.375 0.425 0  0.4 0.425 0  0.425 0.425 0  0.45 0.425 0  0.475 0.425 0  0.5 0.425 0  0.525 0.425 0  0.55 0.425 0  0.575 0.425 0  0.6 0.425 0  0.625 0.425 0  0.65 0.425 0  0.675 0.425 0  0.7 0.425 0  0.725 0.425 0  0.75 0.425 0  0.775 0.425 0  0.8 0.425 0  0.825 0.425 0  0.85 0.425 0  0.875 0.425 0  0.9 0.425 0  0.925 0.425 0  0.95 0.425 0  0.975 0.425 0  1 0.425 0  0 0.45 0  0.02
[...]
<PointData  Scalars="ControlVisualisation"> 
<DataArray  type="Float64"  Name="ControlVisualisation"  format="ascii">2.1504824642085488e-02  1.4468358196723043e-02  1.4468607191982263e-02  1.4469022656038447e-02  1.4469593441135492e-02  1.4470306140126439e-02  1.4471143318456878e-02  1.4472084316716066e-02  1.4473105668871531e-02  1.4474181635251488e-02  1.4475284847797710e-02  1.4476387024735426e-02  1.4477459735045151e-02  1.4478475182762934e-02  1.4479406979747164e-02  1.4480230877489998e-02  1.4480925432617607e-02  1.4481472585984510e-02  1.4481858140965687e-02  1.4482072131615049e-02  1.4482109075389334e-02  1.4481968107915454e-02  1.4481652999032920e-02  1.4481172050303399e-02  1.4480537875156975e-02  1.4479767064254714e-02  1.4478879740863738e-02  1.4477899014629880e-02  1.4476850346665061e-02  1.4475760844213516e-02  1.4474658508492326e-02  1.4473571463602321e-02  1.4472527196980564e-02  1.4471551840429579e-02  1.4470669521926742e-02  1.4469901796039722e-02  1.4469267205905282e-02  1.4468780679718615e-02  1.4468455230580005e-02  1.4468291900001568e-02  4.1572086712883628e-02  1.4468358701210765e-02  7.2952122402166085e-03  7.2954728880714921e-03  7.2959298272573083e-03  7.2965778494078273e-03  7.2974014064512600e-03  7.2983803752865485e-03  7.2994907277057972e-03  7.3007048766971722e-03  7.3019923226516365e-03  7.3033204018265012e-03  7.3046551292638611e-03  7.3059621119424302e-03  7.3072074954473329e-03  7.3083589064019674e-03  7.3093863540772391e-03  7.3102630589786987e-03  7.3109661822667177e-03  7.3114774367221518e-03  7.3117835663020145e-03  7.3118766865290195e-03  7.3117544817436443e-03  7.3114202576737876e-03  7.3108828492615668e-03  7.3101563848871759e-03  7.3092599098274888e-03  7.3082168743055205e-03  7.3070544954881239e-03  7.3058030081398573e-03  7.3044948248986007e-03  7.3031636336816641e-03  7.3018434653402886e-03  7.3005677681282806e-03  7.2993685256284588e-03  7.2982754548160771e-03  7.2973152948861107e-03  7.2965112519578794e-03  7.2958824926906097e-03  7.2954435953135992e-03  7.2951893045487956e-03  1.4468291972326304e-02  1.4468613097726974e-02  7.2954775124655933e-03  7.2958072342371163e-03  7.2963313615426227e-03  7.2970766102727347e-03  7.2980260322190581e-03  7.2991566795982069e-03  7.3004408767545744e-03  7.3018467787535702e-03  7.3033391157241402e-03  7.3048800435016907e-03  7.3064301235278937e-03  7.3079493883747640e-03  7.3093984490770463e-03  7.3107395986752146e-03  7.3119378678977234e-03  7.3129619945871945e-03  7.3137852763442857e-03  7.3143862842064639e-03  7.3147494229783231e-03  7.3148653299364933e-03  7.3147311079895388e-03  7.3143503918846504e-03  7.3137332474867579e-03  7.3128959051275162e-03  7.3118603295633019e-03  7.3106536318090195e-03  7.3093073325669047e-03  7.3078564933483289e-03  7.3063387390026394e-03  7.3047932035943119e-03  7.3032594388767408e-03  7.3017763295123604e-03  7.3003810599505722e-03  7.2991081763658762e-03  7.2979887634336679e-03  7.2970498341943151e-03  7.2963133918687419e-03  7.2957942803677789e-03  7.2954473970883865e-03  1.4468457080392731e-02  1.4469050833884212e-02  7.2959556770052936e-03  7.2963550622224174e-03  7.2968850934862781e-03  7.2976354241736799e-03  7.2985914053118415e-03  7.2997302356481164e-03  7.3010240590833941e-03  7.3024408059274059e-03  7.3039449062509273e-03  7.3054981619947454e-03  7.3070607507913672e-03  7.3085923164048737e-03  7.3100531001780329e-03  7.3114050638058261e-03  7.3126129573036500e-03  7.3136452932190659e-03  7.3144751975049230e-03  7.3150811169098197e-03  7.3154473709805545e-03  7.3155645429930890e-03  7.3154297079596588e-03  7.3150464976563601e-03  7.3144250030435926e-03  7.3135815145075108e-03  7.3125381008386199e-03  7.3113220300066312e-03  7.3099650388101633e-03  7.3085024650372818e-03  7.3069722640063733e-03  7.3054139407611142e-03  7.3038674380162009e-03  7.3023720264644631e-03  7.3009652459782269e-03  7.2996819457093179e-03  7.2985534459724787e-03  7.2976068957976330e-03  7.2968641464101888e-03  7.2963362860039120e-03  7.2959051643289247e-03  1.4468793650024882e-02  1.4469681024669877e-02  7.2966638077179907e-03  7.2971682400646345e-03  7.2977036701547104e-03  7.2984553901251671e-03  7.2994130487142985e-03  7.3005541172160762e-03  7.3018507198698342e-03  7.3032707121798634e-03  7.3047783776889474e-03  7.3063353284858346e-03  7.3079015353813741e-03  7.3094364482314492e-03  7.3109001530750704e-03  7.3122545115777305e-03  7.3134642342427749e-03  7.3144978486590082e-03  7.3153285353189813e-03  7.3159348146150374e-03  7.3163010773868407e-03  7.3164179574249045e-03  7.3162825474286644e-03  7.3158984604294475e-03  7.3152757376738105e-03  7.3144306024205382e-03  7.3133850582129305e-03  7.3121663311088705e-03  7.3108061587988070e-03  7.3093399359819948e-03  7.3078057345266813e-03  7.3062432278112191e-03  7.3046925597741383e-03  7.3031932081686780e-03  7.3017828955656361e-03  7.3004966024165473e-03  7.2993657080404166e-03  7.2984173353316407e-03  7.2976729755251995e-03  7.2971382415502432e-03  7.2965886023958152e-03  1.4469316045950876e-02  1.4470518758313610e-02  7.2976186562270801e-03  7.2982670443059667e-03  7.2988099814326399e-03  7.2995636919919241e-03  7.3005237838086167e-03  7.3016680115048959e-03  7.3029684588664309e-03  7.3043928440051009e-03  7.3059052279347480e-03  7.3074669489208493e-03  7.3090376927388481e-03  7.3105766557697814e-03  7.3120437367206496e-03  7.3134006964934491e-03  7.3146122348599751e-03  7.3156469460401606e-03  7.3164781295282132e-03  7.3170844452107794e-03  7.3174504114083905e-03  7.3175667499544147e-03  7.3174305843405028e-03  7.3170454957958439e-03  7.3164214391052609e-03  7.3155745163336512e-03  7.3145266038224686e-03  7.3133048270882517e-03  7.3119408806477651e-03  7.3104701960418472e-03  7.3089309713406103e-03  7.3073630883587976e-03  7.3058069579076497e-03  7.3043023460753666e-03  7.3028872419281772e-03  7.3015968302566070e-03  7.3004626037310467e-03  7.2995116918314210e-03  7.2987651531891936e-03  7.2982213747114629e-03  7.2975138155673917e-03  1.4470034780280465e-02  1.4471583203846294e-02  7.2988423164863491e-03  7.2996773974140627e-03  7.3002307162252766e-03  7.3009877455902971e-03  7.3019518539877391e-03  7.3031011210631476e-03  7.3044075062159196e-03  7.3058384703740117e-03  7.3073577194624484e-03  7.3089261859884888e-03  7.3105031582351926e-03  7.3120475010413832e-03  7.3135188911896860e-03  7.3148789993842979e-03  7.3160925649376190e-03  7.3171283275798304e-03  7.3179597987799074e-03  7.3185658695505895e-03  7.3189312617492099e-03  7.3190468344830539e-03  7.3189097574636753e-03  7.3185235596924950e-03  7.3178980563013600e-03  7.3170491501652604e-03  7.3159984996015717e-03  7.3147730405826398e-03  7.3134043527109220e-03  7.3119278638552427e-03  7.3103818990578979e-03  7.3088065946604990e-03  7.3072427164835602e-03  7.3057304386157903e-03  7.3043081518213747e-03  7.3030113781052172e-03  7.3018718382556773e-03  7.3009167511041669e-03  7.3001666951513630e-03  7.2996109145636772e-03  7.2987018536811539e-03  1.4470966309506251e-02  1.4472898170762465e-02  7.3003626850688674e-03  7.3014319730424953e-03  7.3019993533864624e-03  7.3027618648999915e-03  7.3037325707862510e-03  7.3048898436920764e-03  7.3062053485632352e-03  7.3076460907826506e-03  7.3091752171036061e-03  7.3107530698249077e-03  7.3123383990470947e-03  7.3138896579537389e-03  7.3153662890514332e-03  7.3167299249230046e-03  7.3179454486219375e-03  7.3189818832446298e-03  7.3198131023478330e-03  7.3204183692104760e-03  7.3207827228164522e-03  7.3208972314811917e-03  7.3207591327877370e-03  7.3203718724303276e-03  7.3197450459139895e-03  7.3188942379293770e-03  7.3178407460347261e-03  7.3166111695322118e-03  7.3152368431012573e-03  7.3137530990416985e-03  7.3121983529244637e-03  7.3106130250730206e-03  7.3090383327512982e-03  7.3075150120974555e-03  7.3060820485965992e-03  7.3047755089887673e-03  7.3036275386493118e-03  7.3026656065821810e-03  7.3019098192409438e-03  7.3013381952461223e-03  7.3001791345736937e-03  1.4472131243779775e-02  1.4474492055807650e-02  7.3022133683155761e-03  7.3035703886496070e-03  7.3041568152447268e-03  7.3049283676913084e-03  7.3059098652345543e-03  7.3070798192472310e-03  7.3084092926521196e-03  7.3098645074368010e-03  7.3114077419342812e-03  7.3129984950799955e-03  7.3145948110896284e-03  7.3161546656146208e-03  7.3176373038638040e-03  7.3190044470772212e-03  7.3202213149714578e-03  7.3212574436278717e-03  7.3220873041760972e-03  7.3226907451541699e-03  7.3230532896241506e-03  7.3231663188419926e-03  7.3230271686599646e-03  7.3226391556625173e-03  7.3220115382510208e-03  7.3211594056286624e-03  7.3201034762333970e-03  7.3188697782115737e-03  7.3174891799492716e-03  7.3159967406999076e-03  7.3144308613717268e-03  7.3128322347105548e-03  7.3112426214169308e-03  7.3097035106506779e-03  7.3082547530689216e-03  7.3069332785422490e-03  7.3057719856281234e-03  7.3047988924943635e-03  7.3040337600202079e-03  7.3034411458454494e-03  7.3019774845860261e-03  1.4473554567686706e-02  1.4476397530402477e-02  7.3044335179302360e-03  7.3061392274865068e-03  7.3067517483047881e-03  7.3075382065397225e-03  7.3085373200041971e-03  7.3097273548010881e-03  7.3110782251172221e-03  7.3125548349594217e-03  7.3141181333453613e-03  7.3157264389367323e-03  7.3173369091458912e-03  7.3189070263162698e-03  7.3203959743409703e-03  7.3217658197329951e-03  7.3229824543086484e-03  7.3240162961006432e-03  7.3248427735692770e-03  7.3254426345363485e-03  7.3258021262443069e-03  7.3259130894646985e-03  7.3257730002774185e-03  7.3253849804391534e-03  7.3247577827821892e-03  7.3239057430041655e-03  7.3228486747114133e-03  7.3216116720025669e-03  7.3202247753099180e-03  7.3187224541059860e-03  7.3171428674294438e-03  7.3155268820558842e-03  7.3139168592907438e-03  7.3123552619406267e-03  7.3108831751998770e-03  7.3095388736538992e-03  7.3083565503018616e-03  7.3073653102486841e-03  7.3065849187117730e-03  7.3059641279198222e-03  7.3041338813599858e-03  1.4475265438390957e-02  1.4478650719129514e-02  7.3070671450957856e-03  7.3091915850229811e-03  7.3098405914923045e-03  7.3106516845289479e-03  7.3116795581036646e-03  7.3129014295030522e-03  7.3142851134423243e-03  7.3157933382142510e-03  7.3173850520818658e-03  7.3190169698662145e-03  7.3206452110659917e-03  7.3222268730837817e-03  7.3237214027418243e-03  7.3250916890360354e-03  7.3263048561812627e-03  7.3273327808563065e-03  7.3281523852302428e-03  7.3287457686315293e-03  7.3291002395696261e-03  7.3292083005250894e-03  7.3290676244833061e-03  7.3286810466863537e-03  7.3280565789658851e-03  7.3272074371887900e-03  7.3261520557950733e-03  7.3249140472121440e-03  7.3235220506006121e-03  7.3220094062272506e-03  7.3204135931411070e-03  7.3187753829625666e-03  7.3171376945494991e-03  7.3155441825366900e-03  7.3140376493592467e-03  7.3126584282363740e-03  7.3114428844901110e-03  7.3104221542004645e-03  7.3096167678627002e-03  7.3089573585291964e-03  7.3066897282236193e-03  1.4477296623827103e-02  1.4481289394889817e-02  7.3101614785933029e-03  7.3127857888459543e-03  7.3134872079519270e-03  7.3143391953896086e-03  7.3154141141601276e-03  7.3166865678831123e-03  7.3181206432141981e-03  7.3196755409534169e-03  7.3213072654216274e-03  7.3229704523649908e-03  7.3246201669405599e-03  7.3262134984779827e-03  7.3277108249191238e-03  7.3290767011600921e-03  7.3302803914128793e-03  7.3312961095615865e-03  7.3321030511782018e-03  7.3326853010262797e-03  7.3330316887737267e-03  7.3331356492938801e-03  7.3329951268844276e-03  7.3326125465226974e-03  7.3319948597734058e-03  7.3311536569783909e-03  7.3301053203859703e-03  7.3288711745527445e-03  7.3274775718781575e-03  7.3259558350696734e-03  7.3243419693309643e-03  7.3226760623440927e-03  7.3210013162586171e-03  7.3193627068860213e-03  7.3178053356875456e-03  7.3163726210591336e-03  7.3151045001308458e-03  7.3140357694959288e-03  7.3131892371529218e-03  7.3124754497433308e-03  7.3096891948177777e-03  1.4479683224239304e-02  1.4484349411999664e-02  7.3137635950250033e-03  7.3169826092019151e-03  7.3177617328624989e-03  7.3186820248540545e-03  7.3198341615104065e-03  7.3211871925919960e-03  7.3226987250092114e-03  7.3243223537190014e-03  7.3260098947426477e-03  7.3277135075949778e-03  7.3293875509542143e-03  7.3309900220692049e-03  7.3324835063606009e-03  7.3338356610089597e-03  7.3350193200712576e-03  7.3360123372729685e-03  7.3367972817659785e-03  7.3373610831536850e-03  7.3376946969713414e-03  7.3377928390048648e-03  7.3376538189666761e-03  7.3372794914002091e-03  7.3366753310210872e-03  7.3358506283891876e-03  7.3348187877708996e-03  7.3335976913621401e-03  7.3322100722362392e-03  7.3306838134704630e-03  7.3290520670334413e-03  7.3273530718000416e-03  7.3256295575070346e-03  7.3239276635626372e-03  7.3222953787812732e-03  7.3207806109396052e-03  7.3194290504745062e-03  7.3182819287024919e-03  7.3173672097184596e-03  7.3165743906596237e-03  7.3131759071690559e-03  1.4482460124635827e-02  1.4487857990799647e-02  7.3179139593476219e-03  7.3218398264536123e-03  7.3227381463232370e-03  7.3237734063851959e-03  7.3250528583466527e-03  7.3265345888319190e-03  7.3281651508063286e-03  7.3298894583628841e-03  7.3316536886403232e-03  7.3334075509542173e-03  7.3351058806910684e-03  7.3367095284536336e-03  7.3381856065194385e-03  7.3395072436331426e-03  7.3406530314996327e-03  7.3416063336464357e-03  7.3423545870308681e-03  7.3428886798527510e-03  7.3432024491208074e-03  7.3432923165651053e-03  7.3431570705155694e-03  7.3427977998221710e-03  7.3422179867670273e-03  7.3414237641193534e-03  7.3404243348328168e-03  7.3392325410615751e-03  7.3378655492543189e-03  7.3363455887487253e-03  7.3347006405142202e-03  7.3329649239430887e-03  7.3311789986466201e-03  7.3293893064706912e-03  7.3276470416006453e-03  7.3260063543291662e-03  7.3245219752962462e-03  7.3232462213493089e-03  7.3222175649289775e-03  7.3213058224950644e-03  7.3171867143705565e-03  1.4485657196574438e-02  1.4491821381035691e-02  7.3226344799223351e-03  7.3274022762976959e-03  7.3284899546729012e-03  7.3297204914560448e-03  7.3312109512012041e-03  7.3328986595817061e-03  7.3347116937578149e-03  7.3365820329617465e-03  7.3384490019920180e-03  7.3402611119683684e-03  7.3419766141235724e-03  7.3435630455326636e-03  7.3449960969247524e-03  7.3462581526485791e-03  7.3473367954970106e-03  7.3482234715489484e-03  7.3489124088827627e-03  7.3493998051696241e-03  7.3496832529211520e-03  7.3497613573085159e-03  7.3496335125652953e-03  7.3492998257152220e-03  7.3487611975828638e-03  7.3480195829828910e-03  7.3470784561353230e-03  7.3459435074577683e-03  7.3446235943096082e-03  7.3431319526283201e-03  7.3414876175071555e-03  7.3397169123499972e-03  7.3378547681758905e-03  7.3359455401469558e-03  7.3340430024957633e-03  7.3322093314883404e-03  7.3305129687385963e-03  7.3290249357584594e-03  7.3278040123957704e-03  7.3267066934180952e-03  7.3217403102536485e-03  1.4489290533111612e-02  1.4496202423333895e-02  7.3279068259097897e-03  7.3336843351981575e-03  7.3350834976405243e-03  7.3366491460167011e-03  7.3384911703030234e-03  7.3405086931604569e-03  7.3425997662135267e-03  7.3446783035042490e-03  7.3466770915657214e-03  7.3485476428754182e-03  7.3502580425163265e-03  7.3517896795070089e-03  7.3531336438800096e-03  7.3542873987640827e-03  7.3552520826184386e-03  7.3560305524345273e-03  7.3566261036243519e-03  7.3570417099573307e-03  7.3572796029685496e-03  7.3573410365611472e-03  7.3572261420072121e-03  7.3569338471843760e-03  7.3564618864395172e-03  7.3558069514479026e-03  7.3549650416514754e-03  7.3539320896271786e-03  7.3527049814176406e-03  7.3512831184886444e-03  7.3496706280005457e-03  7.3478792616219609e-03  7.3459317064097033e-03  7.3438647588912574e-03  7.3417317473459896e-03  7.3396036417025627e-03  7.3375684917911773e-03  7.3357280024200864e-03  7.3341789435047555e-03  7.3327811638606282e-03  7.3268167944424371e-03  1.4493346665588096e-02  1.4500879786567084e-02  7.3336335634618813e-03  7.3406402996396419e-03  7.3425696474794548e-03  7.3447168005695493e-03  7.3471471380137637e-03  7.3496913882319754e-03  7.3522010178229047e-03  7.3545677062947035e-03  7.3567226964904248e-03  7.3586311091547755e-03  7.3602838437003488e-03  7.3616889567787074e-03  7.3628639703976102e-03  7.3638299643261377e-03  7.3646076553224565e-03  7.3652152029368432e-03  7.3656672749710409e-03  7.3659748797776335e-03  7.3661455377438444e-03  7.3661834778568913e-03  7.3660896932854604e-03  7.3658618414118365e-03  7.3654940734363700e-03  7.3649768953487193e-03  7.3642971343145765e-03  7.3634381081186537e-03  7.3623802251601318e-03  7.3611023847210584e-03  7.3595847859758883e-03  7.3578135757462722e-03  7.3557870339882227e-03  7.3535229951717136e-03  7.3510660888229488e-03  7.3484932100209661e-03  7.3459174562902300e-03  7.3434885425393108e-03  7.3413723806969398e-03  7.3394698538240526e-03  7.3323212258299764e-03  1.4497754274704101e-02  1.4505574751653996e-02  7.3395689539667176e-03  7.3481166790270126e-03  7.3509791512053032e-03  7.3541467630367568e-03  7.3575633165193118e-03  7.3609418782206032e-03  7.3640677724863095e-03  7.3668129598464405e-03  7.3691236594527441e-03  7.3710021422119165e-03  7.3724869337678063e-03  7.3736347221367076e-03  7.3745064467547628e-03  7.3751584595347225e-03  7.3756381379510684e-03  7.3759826472695926e-03  7.3762195559712168e-03  7.3763682777714078e-03  7.3764415818747039e-03  7.3764466554851471e-03  7.3763854872332980e-03  7.3762546499557633e-03  7.3760447508290864e-03  7.3757397665891395e-03  7.3753162831201764e-03  7.3747425993647142e-03  7.3739778990523884e-03  7.3729723050166823e-03  7.3716693697930061e-03  7.3700115717549733e-03  7.3679508991635291e-03  7.3654644532714572e-03  7.3625698935361906e-03  7.3593380238980381e-03  7.3559060590848574e-03  7.3524916545235838e-03  7.3493819336446550e-03  7.3465994591862694e-03  7.3380190168457933e-03  1.4502333569250687e-02  1.4509712004643668e-02  7.3451956675833529e-03  7.3557844083065368e-03  7.3603461159696473e-03  7.3653220002148105e-03  7.3703843626182278e-03  7.3750600039462696e-03  7.3790574640252805e-03  7.3822522505438519e-03  7.3846467976196942e-03  7.3863285310924202e-03  7.3874289105791118e-03  7.3880891790206859e-03  7.3884380221986368e-03  7.3885810807837928e-03  7.3885988446897753e-03  7.3885491445691495e-03  7.3884715584607843e-03  7.3883921354248464e-03  7.3883273968614596e-03  7.3882868634993241e-03  7.3882737952270751e-03  7.3882844913906107e-03  7.3883069553541524e-03  7.3883194918142091e-03  7.3882890185006057e-03  7.3881683636794803e-03  7.3878922892398283e-03  7.3873736866448556e-03  7.3865019771299180e-03  7.3851474610697118e-03  7.3831816525352697e-03  7.3805002595607634e-03  7.3770546838558635e-03  7.3728807055215397e-03  7.3681175761038508e-03  7.3630556063024964e-03  7.3581813618915212e-03  7.3538073868109309e-03  7.3434230500506962e-03  1.4506705280631886e-02  1.4512201835145379e-02  7.3495431862049551e-03  7.3630837161663869e-03  7.3708291558544185e-03  7.3790140823245939e-03  7.3867768814952469e-03  7.3933970139029651e-03  7.3985433400079988e-03  7.4021651560219025e-03  7.4044060522287045e-03  7.4055307805853182e-03  7.4058438314269148e-03  7.4056264094411782e-03  7.4051056815817012e-03  7.4044491367708555e-03  7.4037719691161770e-03  7.4031486454352070e-03  7.4026245624296385e-03  7.4022263951339790e-03  7.4019702686954347e-03  7.4018665924467462e-03  7.4019208321480781e-03  7.4021311217333016e-03  7.4024851187276339e-03  7.4029579292917156e-03  7.4035102584057520e-03  7.4040837923313573e-03  7.4045917312366809e-03  7.4049058390208101e-03  7.4048433068548362e-03  7.4041700668286067e-03  7.4026146063196647e-03  7.3998896136715222e-03  7.3958160297937876e-03  7.3903731815506499e-03  7.3836283960568459e-03  7.3758570095162120e-03  7.3678202333312204e-03  7.3604533070891183e-03  7.3475982607198271e-03  1.4510126077790066e-02  1.4511029297777953e-02  7.3508107277235144e-03  7.3691932846132050e-03  7.3831768217188717e-03  7.3971074243915592e-03  7.4091484786958893e-03  7.4184931916419696e-03  7.4249999646529329e-03  7.428798216