<?xml version="1.0"?>
<VTKFile type="UnstructuredGrid"  version="0.1"  >
<UnstructuredGrid>
<Piece  NumberOfPoints="1681" NumberOfCells="3200">
<Points>
<DataArray  type="Float64"  NumberOfComponents="3"  format="ascii">0 0 0  0.025 0 0  0.05 0 0  0.075 0 0  0.1 0 0  0.125 0 0  0.15 0 0  0.175 0 0  0.2 0 0  0.225 0 0  0.25 0 0  0.275 0 0  0.3 0 0  0.325 0 0  0.35 0 0  0.375 0 0  0.4 0 0  0.425 0 0  0.45 0 0  0.475 0 0  0.5 0 0  0.525 0 0  0.55 0 0  0.575 0 0  0.6 0 0  0.625 0 0  0.65 0 0  0.675 0 0  0.7 0 0  0.725 0 0  0.75 0 0  0.775 0 0  0.8 0 0  0.825 0 0  0.85 0 0  0.875 0 0  0.9 0 0  0.925 0 0  0.95 0 0  0.975 0 0  1 0 0  0 0.025 0  0.025 0.025 0  0.05 0.025 0  0.075 0.025 0  0.1 0.025 0  0.125 0.025 0  0.15 0.025 0  0.175 0.025 0  0.2 0.025 0  0.225 0.025 0  0.25 0.025 0  0.275 0.025 0  0.3 0.025 0  0.325 0.025 0  0.35 0.025 0  0.375 0.025 0  0.4 0.025 0  0.425 0.025 0  0.45 0.025 0  0.475 0.025 0  0.5 0.025 0  0.525 0.025 0  0.55 0.025 0  0.575 0.025 0  0.6 0.025 0  0.625 0.025 0  0.65 0.025 0  0.675 0.025 0  0.7 0.025 0  0.725 0.025 0  0.75 0.025 0  0.775 0.025 0  0.8 0.025 0  0.825 0.025 0  0.85 0.025 0  0.875 0.025 0  0.9 0.025 0  0.925 0.025 0  0.95 0.025 0  0.975 0.025 0  1 0.025 0  0 0.05 0  0.025 0.05 0  0.05 0.05 0  0.075 0.05 0  0.1 0.05 0  0.125 0.05 0  0.15 0.05 0  0.175 0.05 0  0.2 0.05 0  0.225 0.05 0  0.25 0.05 0  0.275 0.05 0  0.3 0.05 0  0.325 0.05 0  0.35 0.05 0  0.375 0.05 0  0.4 0.05 0  0.425 0.05 0  0.45 0.05 0  0.475 0.05 0  0.5 0.05 0  0.525 0.05 0  0.55 0.05 0  0.575 0.05 0  0.6 0.05 0  0.625 0.05 0  0.65 0.05 0  0.675 0.05 0  0.7 0.05 0  0.725 0.05 0  0.75 0.05 0  0.775 0.05 0  0.8 0.05 0  0.825 0.05 0  0.85 0.05 0  0.875 0.05 0  0.9 0.05 0  0.925 0.05 0  0.95 0.05 0  0.975 0.05 0  1 0.05 0  0 0.075 0  0.025 0.075 0  0.05 0.075 0  0.075 0.075 0  0.1 0.075 0  0.125 0.075 0  0.15 0.075 0  0.175 0.075 0  0.2 0.075 0  0.225 0.075 0  0.25 0.075 0  0.275 0.075 0  0.3 0.075 0  0.325 0.075 0  0.35 0.075 0  0.375 0.075 0  0.4 0.075 0  0.425 0.075 0  0.45 0.075 0  0.475 0.075 0  0.5 0.075 0  0.525 0.075 0  0.55 0.075 0  0.575 0.075 0  0.6 0.075 0  0.625 0.075 0  0.65 0.075 0  0.675 0.075 0  0.7 0.075 0  0.725 0.075 0  0.75 0.075 0  0.775 0.075 0  0.8 0.075 0  0.825 0.075 0  0.85 0.075 0  0.875 0.075 0  0.9 0.075 0  0.925 0.075 0  0.95 0.075 0  0.975 0.075 0  1 0.075 0  0 0.1 0  0.025 0.1 0  0.05 0.1 0  0.075 0.1 0  0.1 0.1 0  0.125 0.1 0  0.15 0.1 0  0.175 0.1 0  0.2 0.1 0  0.225 0.1 0  0.25 0.1 0  0.275 0.1 0  0.3 0.1 0  0.325 0.1 0  0.35 0.1 0  0.375 0.1 0  0.4 0.1 0  0.425 0.1 0  0.45 0.1 0  0.475 0.1 0  0.5 0.1 0  0.525 0.1 0  0.55 0.1 0  0.575 0.1 0  0.6 0.1 0  0.625 0.1 0  0.65 0.1 0  0.675 0.1 0  0.7 0.1 0  0.725 0.1 0  0.75 0.1 0  0.775 0.1 0  0.8 0.1 0  0.825 0.1 0  0.85 0.1 0  0.875 0.1 0  0.9 0.1 0  0.925 0.1 0  0.95 0.1 0  0.975 0.1 0  1 0.1 0  0 0.125 0  0.025 0.125 0  0.05 0.125 0  0.075 0.125 0  0.1 0.125 0  0.125 0.125 0  0.15 0.125 0  0.175 0.125 0  0.2 0.125 0  0.225 0.125 0  0.25 0.125 0  0.275 0.125 0  0.3 0.125 0  0.325 0.125 0  0.35 0.125 0  0.375 0.125 0  0.4 0.125 0  0.425 0.125 0  0.45 0.125 0  0.475 0.125 0  0.5 0.125 0  0.525 0.125 0  0.55 0.125 0  0.575 0.125 0  0.6 0.125 0  0.625 0.125 0  0.65 0.125 0  0.675 0.125 0  0.7 0.125 0  0.725 0.125 0  0.75 0.125 0  0.775 0.125 0  0.8 0.125 0  0.825 0.125 0  0.85 0.125 0  0.875 0.125 0  0.9 0.125 0  0.925 0.125 0  0.95 0.125 0  0.975 0.125 0  1 0.125 0  0 0.15 0  0.025 0.15 0  0.05 0.15 0  0.075 0.15 0  0.1 0.15 0  0.125 0.15 0  0.15 0.15 0  0.175 0.15 0  0.2 0.15 0  0.225 0.15 0  0.25 0.15 0  0.275 0.15 0  0.3 0.15 0  0.325 0.15 0  0.35 0.15 0  0.375 0.15 0  0.4 0.15 0  0.425 0.15 0  0.45 0.15 0  0.475 0.15 0  0.5 0.15 0  0.525 0.15 0  0.55 0.15 0  0.575 0.15 0  0.6 0.15 0  0.625 0.15 0  0.65 0.15 0  0.675 0.15 0  0.7 0.15 0  0.725 0.15 0  0.75 0.15 0  0.775 0.15 0  0.8 0.15 0  0.825 0.15 0  0.85 0.15 0  0.875 0.15 0  0.9 0.15 0  0.925 0.15 0  0.95 0.15 0  0.975 0.15 0  1 0.15 0  0 0.175 0  0.025 0.175 0  0.05 0.175 0  0.075 0.175 0  0.1 0.175 0  0.125 0.175 0  0.15 0.175 0  0.175 0.175 0  0.2 0.175 0  0.225 0.175 0  0.25 0.175 0  0.275 0.175 0  0.3 0.175 0  0.325 0.175 0  0.35 0.175 0  0.375 0.175 0  0.4 0.175 0  0.425 0.175 0  0.45 0.175 0  0.475 0.175 0  0.5 0.175 0  0.525 0.175 0  0.55 0.175 0  0.575 0.175 0  0.6 0.175 0  0.625 0.175 0  0.65 0.175 0  0.675 0.175 0  0.7 0.175 0  0.725 0.175 0  0.75 0.175 0  0.775 0.175 0  0.8 0.175 0  0.825 0.175 0  0.85 0.175 0  0.875 0.175 0  0.9 0.175 0  0.925 0.175 0  0.95 0.175 0  0.975 0.175 0  1 0.175 0  0 0.2 0  0.025 0.2 0  0.05 0.2 0  0.075 0.2 0  0.1 0.2 0  0.125 0.2 0  0.15 0.2 0  0.175 0.2 0  0.2 0.2 0  0.225 0.2 0  0.25 0.2 0  0.275 0.2 0  0.3 0.2 0  0.325 0.2 0  0.35 0.2 0  0.375 0.2 0  0.4 0.2 0  0.425 0.2 0  0.45 0.2 0  0.475 0.2 0  0.5 0.2 0  0.525 0.2 0  0.55 0.2 0  0.575 0.2 0  0.6 0.2 0  0.625 0.2 0  0.65 0.2 0  0.675 0.2 0  0.7 0.2 0  0.725 0.2 0  0.75 0.2 0  0.775 0.2 0  0.8 0.2 0  0.825 0.2 0  0.85 0.2 0  0.875 0.2 0  0.9 0.2 0  0.925 0.2 0  0.95 0.2 0  0.975 0.2 0  1 0.2 0  0 0.225 0  0.025 0.225 0  0.05 0.225 0  0.075 0.225 0  0.1 0.225 0  0.125 0.225 0  0.15 0.225 0  0.175 0.225 0  0.2 0.225 0  0.225 0.225 0  0.25 0.225 0  0.275 0.225 0  0.3 0.225 0  0.325 0.225 0  0.35 0.225 0  0.375 0.225 0  0.4 0.225 0  0.425 0.225 0  0.45 0.225 0  0.475 0.225 0  0.5 0.225 0  0.525 0.225 0  0.55 0.225 0  0.575 0.225 0  0.6 0.225 0  0.625 0.225 0  0.65 0.225 0  0.675 0.225 0  0.7 0.225 0  0.725 0.225 0  0.75 0.225 0  0.775 0.225 0  0.8 0.225 0  0.825 0.225 0  0.85 0.225 0  0.875 0.225 0  0.9 0.225 0  0.925 0.225 0  0.95 0.225 0  0.975 0.225 0  1 0.225 0  0 0.25 0  0.025 0.25 0  0.05 0.25 0  0.075 0.25 0  0.1 0.25 0  0.125 0.25 0  0.15 0.25 0  0.175 0.25 0  0.2 0.25 0  0.225 0.25 0  0.25 0.25 0  0.275 0.25 0  0.3 0.25 0  0.325 0.25 0  0.35 0.25 0  0.375 0.25 0  0.4 0.25 0  0.425 0.25 0  0.45 0.25 0  0.475 0.25 0  0.5 0.25 0  0.525 0.25 0  0.55 0.25 0  0.575 0.25 0  0.6 0.25 0  0.625 0.25 0  0.65 0.25 0  0.675 0.25 0  0.7 0.25 0  0.725 0.25 0  0.75 0.25 0  0.775 0.25 0  0.8 0.25 0  0.825 0.25 0  0.85 0.25 0  0.875 0.25 0  0.9 0.25 0  0.925 0.25 0  0.95 0.25 0  0.975 0.25 0  1 0.25 0  0 0.275 0  0.025 0.275 0  0.05 0.275 0  0.075 0.275 0  0.1 0.275 0  0.125 0.275 0  0.15 0.275 0  0.175 0.275 0  0.2 0.275 0  0.225 0.275 0  0.25 0.275 0  0.275 0.275 0  0.3 0.275 0  0.325 0.275 0  0.35 0.275 0  0.375 0.275 0  0.4 0.275 0  0.425 0.275 0  0.45 0.275 0  0.475 0.275 0  0.5 0.275 0  0.525 0.275 0  0.55 0.275 0  0.575 0.275 0  0.6 0.275 0  0.625 0.275 0  0.65 0.275 0  0.675 0.275 0  0.7 0.275 0  0.725 0.275 0  0.75 0.275 0  0.775 0.275 0  0.8 0.275 0  0.825 0.275 0  0.85 0.275 0  0.875 0.275 0  0.9 0.275 0  0.925 0.275 0  0.95 0.275 0  0.975 0.275 0  1 0.275 0  0 0.3 0  0.025 0.3 0  0.05 0.3 0  0.075 0.3 0  0.1 0.3 0  0.125 0.3 0  0.15 0.3 0  0.175 0.3 0  0.2 0.3 0  0.225 0.3 0  0.25 0.3 0  0.275 0.3 0  0.3 0.3 0  0.325 0.3 0  0.35 0.3 0  0.375 0.3 0  0.4 0.3 0  0.425 0.3 0  0.45 0.3 0  0.475 0.3 0  0.5 0.3 0  0.525 0.3 0  0.55 0.3 0  0.575 0.3 0  0.6 0.3 0  0.625 0.3 0  0.65 0.3 0  0.675 0.3 0  0.7 0.3 0  0.725 0.3 0  0.75 0.3 0  0.775 0.3 0  0.8 0.3 0  0.825 0.3 0  0.85 0.3 0  0.875 0.3 0  0.9 0.3 0  0.925 0.3 0  0.95 0.3 0  0.975 0.3 0  1 0.3 0  0 0.325 0  0.025 0.325 0  0.05 0.325 0  0.075 0.325 0  0.1 0.325 0  0.125 0.325 0  0.15 0.325 0  0.175 0.325 0  0.2 0.325 0  0.225 0.325 0  0.25 0.325 0  0.275 0.325 0  0.3 0.325 0  0.325 0.325 0  0.35 0.325 0  0.375 0.325 0  0.4 0.325 0  0.425 0.325 0  0.45 0.325 0  0.475 0.325 0  0.5 0.325 0  0.525 0.325 0  0.55 0.325 0  0.575 0.325 0  0.6 0.325 0  0.625 0.325 0  0.65 0.325 0  0.675 0.325 0  0.7 0.325 0  0.725 0.325 0  0.75 0.325 0  0.775 0.325 0  0.8 0.325 0  0.825 0.325 0  0.85 0.325 0  0.875 0.325 0  0.9 0.325 0  0.925 0.325 0  0.95 0.325 0  0.975 0.325 0  1 0.325 0  0 0.35 0  0.025 0.35 0  0.05 0.35 0  0.075 0.35 0  0.1 0.35 0  0.125 0.35 0  0.15 0.35 0  0.175 0.35 0  0.2 0.35 0  0.225 0.35 0  0.25 0.35 0  0.275 0.35 0  0.3 0.35 0  0.325 0.35 0  0.35 0.35 0  0.375 0.35 0  0.4 0.35 0  0.425 0.35 0  0.45 0.35 0  0.475 0.35 0  0.5 0.35 0  0.525 0.35 0  0.55 0.35 0  0.575 0.35 0  0.6 0.35 0  0.625 0.35 0  0.65 0.35 0  0.675 0.35 0  0.7 0.35 0  0.725 0.35 0  0.75 0.35 0  0.775 0.35 0  0.8 0.35 0  0.825 0.35 0  0.85 0.35 0  0.875 0.35 0  0.9 0.35 0  0.925 0.35 0  0.95 0.35 0  0.975 0.35 0  1 0.35 0  0 0.375 0  0.025 0.375 0  0.05 0.375 0  0.075 0.375 0  0.1 0.375 0  0.125 0.375 0  0.15 0.375 0  0.175 0.375 0  0.2 0.375 0  0.225 0.375 0  0.25 0.375 0  0.275 0.375 0  0.3 0.375 0  0.325 0.375 0  0.35 0.375 0  0.375 0.375 0  0.4 0.375 0  0.425 0.375 0  0.45 0.375 0  0.475 0.375 0  0.5 0.375 0  0.525 0.375 0  0.55 0.375 0  0.575 0.375 0  0.6 0.375 0  0.625 0.375 0  0.65 0.375 0  0.675 0.375 0  0.7 0.375 0  0.725 0.375 0  0.75 0.375 0  0.775 0.375 0  0.8 0.375 0  0.825 0.375 0  0.85 0.375 0  0.875 0.375 0  0.9 0.375 0  0.925 0.375 0  0.95 0.375 0  0.975 0.375 0  1 0.375 0  0 0.4 0  0.025 0.4 0  0.05 0.4 0  0.075 0.4 0  0.1 0.4 0  0.125 0.4 0  0.15 0.4 0  0.175 0.4 0  0.2 0.4 0  0.225 0.4 0  0.25 0.4 0  0.275 0.4 0  0.3 0.4 0  0.325 0.4 0  0.35 0.4 0  0.375 0.4 0  0.4 0.4 0  0.425 0.4 0  0.45 0.4 0  0.475 0.4 0  0.5 0.4 0  0.525 0.4 0  0.55 0.4 0  0.575 0.4 0  0.6 0.4 0  0.625 0.4 0  0.65 0.4 0  0.675 0.4 0  0.7 0.4 0  0.725 0.4 0  0.75 0.4 0  0.775 0.4 0  0.8 0.4 0  0.825 0.4 0  0.85 0.4 0  0.875 0.4 0  0.9 0.4 0  0.925 0.4 0  0.95 0.4 0  0.975 0.4 0  1 0.4 0  0 0.425 0  0.025 0.425 0  0.05 0.425 0  0.075 0.425 0  0.1 0.425 0  0.125 0.425 0  0.15 0.425 0  0.175 0.425 0  0.2 0.425 0  0.225 0.425 0  0.25 0.425 0  0.275 0.425 0  0.3 0.425 0  0.325 0.425 0  0.35 0.425 0  0.375 0.425 0  0.4 0.425 0  0.425 0.425 0  0.45 0.425 0  0.475 0.425 0  0.5 0.425 0  0.525 0.425 0  0.55 0.425 0  0.575 0.425 0  0.6 0.425 0  0.625 0.425 0  0.65 0.425 0  0.675 0.425 0  0.7 0.425 0  0.725 0.425 0  0.75 0.425 0  0.775 0.425 0  0.8 0.425 0  0.825 0.425 0  0.85 0.425 0  0.875 0.425 0  0.9 0.425 0  0.925 0.425 0  0.95 0.425 0  0.975 0.425 0  1 0.425 0  0 0.45 0  0.02
[...]
<PointData  Scalars="ControlVisualisation"> 
<DataArray  type="Float64"  Name="ControlVisualisation"  format="ascii">2.1567047119824333e-02  1.4486693114115238e-02  1.4486944319939830e-02  1.4487364340363499e-02  1.4487941830884489e-02  1.4488663176331591e-02  1.4489510692140233e-02  1.4490463421549606e-02  1.4491497562504205e-02  1.4492587011502042e-02  1.4493704021743872e-02  1.4494819930622117e-02  1.4495905936523477e-02  1.4496933894152596e-02  1.4497877096464013e-02  1.4498711013450558e-02  1.4499413962405526e-02  1.4499967689795499e-02  1.4500357850801116e-02  1.4500574377716647e-02  1.4500611732452149e-02  1.4500469041084655e-02  1.4500150109927270e-02  1.4499663323362073e-02  1.4499021424413021e-02  1.4498241180218693e-02  1.4497342936696583e-02  1.4496350070163666e-02  1.4495288348388416e-02  1.4494185218965217e-02  1.4493069048579655e-02  1.4491968341276669e-02  1.4490910966778745e-02  1.4489923428446388e-02  1.4489030202549958e-02  1.4488253155506007e-02  1.4487611100807974e-02  1.4487119181995132e-02  1.4486790592906638e-02  1.4486626356028091e-02  4.2074738330541268e-02  1.4486693620825882e-02  7.2972607801460266e-03  7.2975244551026852e-03  7.2979867686070862e-03  7.2986425862387409e-03  7.2994761402217440e-03  7.3004670168107929e-03  7.3015908521655553e-03  7.3028196819009310e-03  7.3041226000487751e-03  7.3054665207782331e-03  7.3068170348760033e-03  7.3081393360854511e-03  7.3093991796796213e-03  7.3105638348847958e-03  7.3116029942112866e-03  7.3124896073329167e-03  7.3132006136066791e-03  7.3137175543874691e-03  7.3140270527364739e-03  7.3141211534186214e-03  7.3139975197398606e-03  7.3136594860422951e-03  7.3131159658972643e-03  7.3123812169664055e-03  7.3114744649619154e-03  7.3104193914756577e-03  7.3092434943718690e-03  7.3079773348873308e-03  7.3066536919809246e-03  7.3053066513244823e-03  7.3039706622227306e-03  7.3026795995591257e-03  7.3014658680654139e-03  7.3003595867955533e-03  7.2993878643646815e-03  7.2985742338511125e-03  7.2979381307658282e-03  7.2974943305074312e-03  7.2972372290891459e-03  1.4486626428118972e-02  1.4486950274283789e-02  7.2975291407335399e-03  7.2978648053262261e-03  7.2983973376652888e-03  7.2991546758223473e-03  7.3001196141760328e-03  7.3012687418211207e-03  7.3025738339575165e-03  7.3040024357695034e-03  7.3055186314189609e-03  7.3070839167906406e-03  7.3086582012872959e-03  7.3102008929703238e-03  7.3116720223501295e-03  7.3130333586349005e-03  7.3142494742471503e-03  7.3152887194121545e-03  7.3161240768431276e-03  7.3167338752331444e-03  7.3171023480845645e-03  7.3172200305694629e-03  7.3170839913025516e-03  7.3166978981399396e-03  7.3160719181933637e-03  7.3152224528740557e-03  7.3141717098980123e-03  7.3129471167126658e-03  7.3115805840729122e-03  7.3101076348737731e-03  7.3085664211697716e-03  7.3069966607672721e-03  7.3054385324811937e-03  7.3039315744859385e-03  7.3025136312337346e-03  7.3012198937575041e-03  7.3000820527118768e-03  7.2991276687798942e-03  7.2983791887940765e-03  7.2978516597668750e-03  7.2974981711237917e-03  1.4486792450332261e-02  1.4487392819001287e-02  7.2980129864922806e-03  7.2984214595443533e-03  7.2989604083782264e-03  7.2997232026014930e-03  7.3006951409966513e-03  7.3018529723799562e-03  7.3031682719688481e-03  7.3046083383621367e-03  7.3061369326587683e-03  7.3077151747390186e-03  7.3093025704065451e-03  7.3108581224428787e-03  7.3123414791932328e-03  7.3137140702899056e-03  7.3149401831929164e-03  7.3159879419201247e-03  7.3168301590018177e-03  7.3174450415273255e-03  7.3178167405421593e-03  7.3179357391698020e-03  7.3177990785913876e-03  7.3174104224314456e-03  7.3167799601230798e-03  7.3159241494696187e-03  7.3148652986508448e-03  7.3136309897134525e-03  7.3122533495492094e-03  7.3107681807826714e-03  7.3092139734875078e-03  7.3076308283681482e-03  7.3060593312879478e-03  7.3045394260516736e-03  7.3031093346074766e-03  7.3018045741608389e-03  7.3006570936677171e-03  7.2996946073224092e-03  7.2989393954728029e-03  7.2984024939406643e-03  7.2979610818144913e-03  1.4487132254290776e-02  1.4488030485977984e-02  7.2987298227085128e-03  7.2992479978608252e-03  7.2997927407445536e-03  7.3005569237699604e-03  7.3015304865585683e-03  7.3026904907420448e-03  7.3040084951859242e-03  7.3054517241803642e-03  7.3069837911394295e-03  7.3085656250280219e-03  7.3101565243283602e-03  7.3117152986527387e-03  7.3132014435016131e-03  7.3145762928880859e-03  7.3158041010079758e-03  7.3168530145122541e-03  7.3176959086400659e-03  7.3183110718942623e-03  7.3186827329562850e-03  7.3188014295253387e-03  7.3186642216173884e-03  7.3182747521524554e-03  7.3176431560113900e-03  7.3167858167707605e-03  7.3157249689289458e-03  7.3144881439542349e-03  7.3131074617580200e-03  7.3116187756454487e-03  7.3100606881339918e-03  7.3084734663653268e-03  7.3068978974417352e-03  7.3053741335677175e-03  7.3039405812972491e-03  7.3026328908140873e-03  7.3014830703705975e-03  7.3005188028171051e-03  7.2997619645539498e-03  7.2992177319596424e-03  7.2986526285535383e-03  1.4487660444189096e-02  1.4488878622175801e-02  7.2996967158910709e-03  7.3003651956924749e-03  7.3009179347745656e-03  7.3016840476422670e-03  7.3026598969281754e-03  7.3038228776045053e-03  7.3051445144750706e-03  7.3065918964169679e-03  7.3081284155941733e-03  7.3097147291899100e-03  7.3113098540653230e-03  7.3128723518865414e-03  7.3143615389168826e-03  7.3157386591458217e-03  7.3169679690655003e-03  7.3180176964355572e-03  7.3188608502020780e-03  7.3194758718698382e-03  7.3198471284262505e-03  7.3199652524925281e-03  7.3198273369668087e-03  7.3194369899390157e-03  7.3188042519992270e-03  7.3179453737833569e-03  7.3168824482635359e-03  7.3156428910399465e-03  7.3142587640829164e-03  7.3127659446195212e-03  7.3112031511548678e-03  7.3096108520648165e-03  7.3080300969282702e-03  7.3065013240842117e-03  7.3050632057260565e-03  7.3037515959236037e-03  7.3025986148876577e-03  7.3016319446200639e-03  7.3008729723924512e-03  7.3003191434584530e-03  7.2995892198138715e-03  1.4488387721666871e-02  1.4489956772339187e-02  7.3009361860001684e-03  7.3017995153611646e-03  7.3023632488564676e-03  7.3031325920177416e-03  7.3041122514869447e-03  7.3052800113550783e-03  7.3066072800407169e-03  7.3080608907906885e-03  7.3096038822020740e-03  7.3111965087138062e-03  7.3127973952177997e-03  7.3143647807589985e-03  7.3158577725382298e-03  7.3172375411526850e-03  7.3184684027340378e-03  7.3195187526508276e-03  7.3203618341121804e-03  7.3209763400995690e-03  7.3213468574481830e-03  7.3214641664663509e-03  7.3213254095598323e-03  7.3209341382661748e-03  7.3203002419965505e-03  7.3194397547236755e-03  7.3183745298977523e-03  7.3171317703548244e-03  7.3157434005072901e-03  7.3142452738017170e-03  7.3126762194953183e-03  7.3110769487298340e-03  7.3094888586352734e-03  7.3079527916413188e-03  7.3065078201766560e-03  7.3051901352617285e-03  7.3040320843151905e-03  7.3030614301354208e-03  7.3022990098646264e-03  7.3017325002649467e-03  7.3007923163834780e-03  1.4489330852667731e-02  1.4491289239140108e-02  7.3024767018007664e-03  7.3035843289693701e-03  7.3041628598197357e-03  7.3049375664164459e-03  7.3059235508658353e-03  7.3070989690348998e-03  7.3084349446261706e-03  7.3098978566646213e-03  7.3114501860691719e-03  7.3130516009354968e-03  7.3146601956681516e-03  7.3162338103880823e-03  7.3177313364558624e-03  7.3191139304376440e-03  7.3203460809632822e-03  7.3213964983112959e-03  7.3222388195272100e-03  7.3228521388494601e-03  7.3232213834901775e-03  7.3233375579258679e-03  7.3231978772986626e-03  7.3228058039207988e-03  7.3221709913649366e-03  7.3213091306375769e-03  7.3202416837597232e-03  7.3189954835936573e-03  7.3176021770040307e-03  7.3160974927823684e-03  7.3145203271541863e-03  7.3129116581291450e-03  7.3113133234566476e-03  7.3097667221087717e-03  7.3083115195536324e-03  7.3069844519580030e-03  7.3058182911724954e-03  7.3048410399410109e-03  7.3040729790959562e-03  7.3034898160860362e-03  7.3022888769006039e-03  1.4490510861438103e-02  1.4492905045421351e-02  7.3043526028025319e-03  7.3057601377945402e-03  7.3063585720308244e-03  7.3071421659662685e-03  7.3081385912086684e-03  7.3093262361091970e-03  7.3106756343526078e-03  7.3121523825368760e-03  7.3137180944057691e-03  7.3153315995099699e-03  7.3169502968182323e-03  7.3185315666370017e-03  7.3200341289155688e-03  7.3214192627299819e-03  7.3226518337318851e-03  7.3237011093562664e-03  7.3245413686067098e-03  7.3251523314907937e-03  7.3255194418665520e-03  7.3256340382540416e-03  7.3254934411967013e-03  7.3251009759697974e-03  7.3244659366610435e-03  7.3236034842161990e-03  7.3225344584545099e-03  7.3212850740565190e-03  7.3198864653416067e-03  7.3183740467079716e-03  7.3167866661923257e-03  7.3151655499188060e-03  7.3135530638642277e-03  7.3119913525914217e-03  7.3105209450495265e-03  7.3091794421440573e-03  7.3080003700262582e-03  7.3070122687085562e-03  7.3062349752828588e-03  7.3056298795656461e-03  7.3041114229624249e-03  1.4491953269736629e-02  1.4494837640404967e-02  7.3066039622292616e-03  7.3083746239823765e-03  7.3090001277693346e-03  7.3097984343695136e-03  7.3108120326485582e-03  7.3120191736702721e-03  7.3133892563960121e-03  7.3148865593222123e-03  7.3164713673257034e-03  7.3181013354205252e-03  7.3197329897999276e-03  7.3213232420424332e-03  7.3228307870863161e-03  7.3242172968313998e-03  7.3254483655710648e-03  7.3264942043587749e-03  7.3273301113048360e-03  7.3279367620238079e-03  7.3283003699554511e-03  7.3284127628366535e-03  7.3282714119378067e-03  7.3278794373430644e-03  7.3272455969121608e-03  7.3263842500602295e-03  7.3253152713895764e-03  7.3240638751789636e-03  7.3226603022191507e-03  7.3211393183290861e-03  7.3195394820023607e-03  7.3179021589703224e-03  7.3162702945930181e-03  7.3146869972533909e-03  7.3131940291536416e-03  7.3118303397239851e-03  7.3106307531674531e-03  7.3096248837153403e-03  7.3088324623868644e-03  7.3081981130070101e-03  7.3062978032404306e-03  1.4493687905538949e-02  1.4497124100550794e-02  7.3092759320582054e-03  7.3114822289109477e-03  7.3121453093725752e-03  7.3129680174859402e-03  7.3140098293027998e-03  7.3152480669745109e-03  7.3166500448870820e-03  7.3181778629991239e-03  7.3197898037309856e-03  7.3214419244800964e-03  7.3230897321304219e-03  7.3246897875872156e-03  7.3262011000514446e-03  7.3275862312423166e-03  7.3288120875498984e-03  7.3298504250472818e-03  7.3306781216148486e-03  7.3312772826847200e-03  7.3316352462942675e-03  7.3317445438521416e-03  7.3316028592677607e-03  7.3312130129433413e-03  7.3305829799762308e-03  7.3297259332044317e-03  7.3286602830927557e-03  7.3274096680366833e-03  7.3260028338771538e-03  7.3244733329550019e-03  7.3228589754609948e-03  7.3212009829910218e-03  7.3195428288779863e-03  7.3179288006191166e-03  7.3164023777050266e-03  7.3150045760795200e-03  7.3137724006966942e-03  7.3127374853865813e-03  7.3119202076620963e-03  7.3112460225622485e-03  7.3088904934982745e-03  1.4495748359382311e-02  1.4499803348744657e-02  7.3124171349086735e-03  7.3151429102707374e-03  7.3158596115045502e-03  7.3167229490284352e-03  7.3178111514439065e-03  7.3190990540810226e-03  7.3205502562649740e-03  7.3221233216240666e-03  7.3237735818089547e-03  7.3254550204021676e-03  7.3271221142626724e-03  7.3287314644771310e-03  7.3302430851121779e-03  7.3316213005087177e-03  7.3328352705837674e-03  7.3338592103333079e-03  7.3346723912364161e-03  7.3352590131019225e-03  7.3356080236314323e-03  7.3357129463641497e-03  7.3355717606512615e-03  7.3351868607769632e-03  7.3345651050786120e-03  7.3337179479020737e-03  7.3326616270864547e-03  7.3314173580319572e-03  7.3300114643813337e-03  7.3284753585921942e-03  7.3268452779511137e-03  7.3251616897723262e-03  7.3234683094578357e-03  7.3218107298246302e-03  7.3202347327172099e-03  7.3187844345314560e-03  7.3175004293700536e-03  7.3164180059711427e-03  7.3155596999669066e-03  7.3148297646297329e-03  7.3119349621981675e-03  1.4498170722733676e-02  1.4502912612523209e-02  7.3160763282654265e-03  7.3194193916664959e-03  7.3202151349313965e-03  7.3211465077572119e-03  7.3223111789572862e-03  7.3236785543561245e-03  7.3252057589572881e-03  7.3268457291776976e-03  7.3285495901192332e-03  7.3302688496214036e-03  7.3319573091228602e-03  7.3335725468379803e-03  7.3350768927741075e-03  7.3364379153708975e-03  7.3376285083777614e-03  7.3386266993074262e-03  7.3394153012586684e-03  7.3399815101914496e-03  7.3403165233939128e-03  7.3404152311335510e-03  7.3402760163542779e-03  7.3399006858369462e-03  7.3392945456775965e-03  7.3384666206794619e-03  7.3374299984264452e-03  7.3362022556187241e-03  7.3348058978282438e-03  7.3332687174686509e-03  7.3316239526878086e-03  7.3299101197459122e-03  7.3281704042383773e-03  7.3264515442259147e-03  7.3248022195773425e-03  7.3232710645356521e-03  7.3219044595264505e-03  7.3207441362640856e-03  7.3198176808536176e-03  7.3190071511489716e-03  7.3154763809178394e-03  1.4500991055445129e-02  1.4506480732452308e-02  7.3202959730926387e-03  7.3243717652242257e-03  7.3252882090810677e-03  7.3263343412260382e-03  7.3276255348504651e-03  7.3291203385963191e-03  7.3307648112055828e-03  7.3325031617291750e-03  7.3342808331153713e-03  7.3360468694167917e-03  7.3377555869051803e-03  7.3393675194967107e-03  7.3408496891640496e-03  7.3421753495427882e-03  7.3433233929065230e-03  7.3442776028926088e-03  7.3450258944039682e-03  7.3455596305725436e-03  7.3458730624882829e-03  7.3459629108269349e-03  7.3458280998327172e-03  7.3454696574440925e-03  7.3448907992970831e-03  7.3440972111530048e-03  7.3430975302088012e-03  7.3419040034687372e-03  7.3405332731609589e-03  7.3390072069601572e-03  7.3373536530120052e-03  7.3356069570494811e-03  7.3338080548874607e-03  7.3320039694954745e-03  7.3302466128289424e-03  7.3285909133215836e-03  7.3270923505572337e-03  7.3258037771284168e-03  7.3247632205967151e-03  7.3238319344595213e-03  7.3195533970846485e-03  1.4504240595744653e-02  1.4510515841717279e-02  7.3251002984961290e-03  7.3300475559165881e-03  7.3311551224997185e-03  7.3323965191473108e-03  7.3338980061756114e-03  7.3355974356654613e-03  7.3374223449762912e-03  7.3393039123307762e-03  7.3411806295835200e-03  7.3430002922428485e-03  7.3447206761747229e-03  7.3463091607949412e-03  7.3477416100736596e-03  7.3490008665435345e-03  7.3500751740251972e-03  7.3509567506230226e-03  7.3516406239467003e-03  7.3521237485106227e-03  7.3524043681873858e-03  7.3524815696131155e-03  7.3523549903323797e-03  7.3520246813289685e-03  7.3514911558524038e-03  7.3507556691074253e-03  7.3498207647171975e-03  7.3486911030058661e-03  7.3473745659065294e-03  7.3458836127201143e-03  7.3442368094738010e-03  7.3424603774457017e-03  7.3405895136760060e-03  7.3386691483408291e-03  7.3367538359737890e-03  7.3349066235640524e-03  7.3331967996594456e-03  7.3316960019184346e-03  7.3304625781151827e-03  7.3293434396670539e-03  7.3241867287920266e-03  1.4507936987871508e-02  1.4514982919782237e-02  7.3304735824698090e-03  7.3364641850157753e-03  7.3378854725220785e-03  7.3394624358697879e-03  7.3413151024735940e-03  7.3433431219677566e-03  7.3454439120580863e-03  7.3475303920393443e-03  7.3495342886947682e-03  7.3514062555598090e-03  7.3531139468954489e-03  7.3546388612663691e-03  7.3559727094702080e-03  7.3571139549353064e-03  7.3580649470917489e-03  7.3588298142804051e-03  7.3594130795522879e-03  7.3598188387800712e-03  7.3600502931757874e-03  7.3601094490932314e-03  7.3599968739910772e-03  7.3597114984113648e-03  7.3592505366064679e-03  7.3586096304627570e-03  7.3577833050979145e-03  7.3567657963346167e-03  7.3555523163243352e-03  7.3541408423860380e-03  7.3525345032088773e-03  7.3507445904126617e-03  7.3487939021384396e-03  7.3467198441545872e-03  7.3445766732625085e-03  7.3424363978624825e-03  7.3403880597116633e-03  7.3385341173939659e-03  7.3369710635603231e-03  7.3355483789765523e-03  7.3293586279418767e-03  1.4512068456571140e-02  1.4519762940126940e-02  7.3363211361983068e-03  7.3435792354259880e-03  7.3455338998073948e-03  7.3476938135136702e-03  7.3501351993354030e-03  7.3526892728867522e-03  7.3552067410261983e-03  7.3575778966642399e-03  7.3597323805128624e-03  7.3616340740362100e-03  7.3632734859436933e-03  7.3646592839340672e-03  7.3658104280952515e-03  7.3667499207637193e-03  7.3675005421409588e-03  7.3680824155663198e-03  7.3685119677407273e-03  7.3688017602451710e-03  7.3689606875051942e-03  7.3689941389943258e-03  7.3689039079573686e-03  7.3686878548920899e-03  7.3683395104069327e-03  7.3678478494130697e-03  7.3671973936690199e-03  7.3663687159101375e-03  7.3653394489491429e-03  7.3640860467444422e-03  7.3625868631347945e-03  7.3608269871913877e-03  7.3588045644287104e-03  7.3565381903267224e-03  7.3540738001144574e-03  7.3514896467957143e-03  7.3488999793419408e-03  7.3464554202608929e-03  7.3443219826792522e-03  7.3423898703728801e-03  7.3349761833859323e-03  1.4516565395433239e-02  1.4524579362201643e-02  7.3423997019223305e-03  7.3512424513957498e-03  7.3541354812135269e-03  7.3573192999077663e-03  7.3607488635024547e-03  7.3641378591111578e-03  7.3672709170814268e-03  7.3700177935552853e-03  7.3723216989739397e-03  7.3741826711823397e-03  7.3756389158682193e-03  7.3767488089249026e-03  7.3775763341285194e-03  7.3781813975330587e-03  7.3786147685152405e-03  7.3789164845008163e-03  7.3791164292428355e-03  7.3792359670520240e-03  7.3792896949083199e-03  7.3792865846873546e-03  7.3792301451313094e-03  7.3791177077231415e-03  7.3789393187837834e-03  7.3786767707291314e-03  7.3783030188124665e-03  7.3777819006651440e-03  7.3770680644400857e-03  7.3761076159097258e-03  7.3748408841593999e-03  7.3732081691669253e-03  7.3711608407772645e-03  7.3686772239235287e-03  7.3657773141615765e-03  7.3625339653705154e-03  7.3590855300563144e-03  7.3556504506776237e-03  7.3525166086064906e-03  7.3496965501640395e-03  7.3408061322152189e-03  1.4521249434076533e-02  1.4528858069592289e-02  7.3481929922175953e-03  7.3591270303311820e-03  7.3637293472490414e-03  7.3687291033796374e-03  7.3738088450130603e-03  7.3784976387377453e-03  7.3825048939128680e-03  7.3857018165423066e-03  7.3880838120380559e-03  7.3897335361571082e-03  7.3907825425091151e-03  7.3913763920317324e-03  7.3916501466287747e-03  7.3917159329056920e-03  7.3916596659006828e-03  7.3915430988529679e-03  7.3914084300174500e-03  7.3912837095330541e-03  7.3911876322339349e-03  7.3911324713507101e-03  7.3911244880870124e-03  7.3911621669311778e-03  7.3912335227997580e-03  7.3913138080985794e-03  7.3913640425113444e-03  7.3913296198585641e-03  7.3911379621937473e-03  7.3906956131321458e-03  7.3898865154875260e-03  7.3885767264599720e-03  7.3866357845490819e-03  7.3839614078268752e-03  7.3805104788306555e-03  7.3763229442379685e-03  7.3715381572034824e-03  7.3664454207436310e-03  7.3615329358249944e-03  7.3571061756727589e-03  7.3463606795854059e-03  1.4525741679274944e-02  1.4531506519189044e-02  7.3527273486044837e-03  7.3666732356611683e-03  7.3744820691852130e-03  7.3827070182309763e-03  7.3904925016226993e-03  7.3971307211166092e-03  7.4022980674344494e-03  7.4059328807456947e-03  7.4081596872000504e-03  7.4092319409043211e-03  7.4094567643586823e-03  7.4091267787470255e-03  7.4084825286233422e-03  7.4077031188809509e-03  7.4069121205446314e-03  7.4061887835285287e-03  7.4055804243931128e-03  7.4051145810640710e-03  7.4048092996569495e-03  7.4046792323303658e-03  7.4047359790063117e-03  7.4049834258329344e-03  7.4054112926496473e-03  7.4059905356522382e-03  7.4066716743970964e-03  7.4073833233841303e-03  7.4080266617965896e-03  7.4084640584565521e-03  7.4085050047915805e-03  7.4079073134854382e-03  7.4063907180038800e-03  7.4036701999490410e-03  7.3995844198053336e-03  7.3941246828625349e-03  7.3873516795446639e-03  7.3795309618078552e-03  7.3714264834427654e-03  7.3639752598513575e-03  7.3506991881412383e-03  1.4529296266349268e-02  1.4530498882879623e-02  7.3541892558108722e-03  7.3730508780681780e-03  7.3871508567950796e-03  7.4011586618643287e-03  7.4132236914746597e-03  7.4225848218650121e-03  7.4291423104490759e-03  7.432999209