<?xml version="1.0"?>
<VTKFile type="UnstructuredGrid"  version="0.1"  >
<UnstructuredGrid>
<Piece  NumberOfPoints="1681" NumberOfCells="3200">
<Points>
<DataArray  type="Float64"  NumberOfComponents="3"  format="ascii">0 0 0  0.025 0 0  0.05 0 0  0.075 0 0  0.1 0 0  0.125 0 0  0.15 0 0  0.175 0 0  0.2 0 0  0.225 0 0  0.25 0 0  0.275 0 0  0.3 0 0  0.325 0 0  0.35 0 0  0.375 0 0  0.4 0 0  0.425 0 0  0.45 0 0  0.475 0 0  0.5 0 0  0.525 0 0  0.55 0 0  0.575 0 0  0.6 0 0  0.625 0 0  0.65 0 0  0.675 0 0  0.7 0 0  0.725 0 0  0.75 0 0  0.775 0 0  0.8 0 0  0.825 0 0  0.85 0 0  0.875 0 0  0.9 0 0  0.925 0 0  0.95 0 0  0.975 0 0  1 0 0  0 0.025 0  0.025 0.025 0  0.05 0.025 0  0.075 0.025 0  0.1 0.025 0  0.125 0.025 0  0.15 0.025 0  0.175 0.025 0  0.2 0.025 0  0.225 0.025 0  0.25 0.025 0  0.275 0.025 0  0.3 0.025 0  0.325 0.025 0  0.35 0.025 0  0.375 0.025 0  0.4 0.025 0  0.425 0.025 0  0.45 0.025 0  0.475 0.025 0  0.5 0.025 0  0.525 0.025 0  0.55 0.025 0  0.575 0.025 0  0.6 0.025 0  0.625 0.025 0  0.65 0.025 0  0.675 0.025 0  0.7 0.025 0  0.725 0.025 0  0.75 0.025 0  0.775 0.025 0  0.8 0.025 0  0.825 0.025 0  0.85 0.025 0  0.875 0.025 0  0.9 0.025 0  0.925 0.025 0  0.95 0.025 0  0.975 0.025 0  1 0.025 0  0 0.05 0  0.025 0.05 0  0.05 0.05 0  0.075 0.05 0  0.1 0.05 0  0.125 0.05 0  0.15 0.05 0  0.175 0.05 0  0.2 0.05 0  0.225 0.05 0  0.25 0.05 0  0.275 0.05 0  0.3 0.05 0  0.325 0.05 0  0.35 0.05 0  0.375 0.05 0  0.4 0.05 0  0.425 0.05 0  0.45 0.05 0  0.475 0.05 0  0.5 0.05 0  0.525 0.05 0  0.55 0.05 0  0.575 0.05 0  0.6 0.05 0  0.625 0.05 0  0.65 0.05 0  0.675 0.05 0  0.7 0.05 0  0.725 0.05 0  0.75 0.05 0  0.775 0.05 0  0.8 0.05 0  0.825 0.05 0  0.85 0.05 0  0.875 0.05 0  0.9 0.05 0  0.925 0.05 0  0.95 0.05 0  0.975 0.05 0  1 0.05 0  0 0.075 0  0.025 0.075 0  0.05 0.075 0  0.075 0.075 0  0.1 0.075 0  0.125 0.075 0  0.15 0.075 0  0.175 0.075 0  0.2 0.075 0  0.225 0.075 0  0.25 0.075 0  0.275 0.075 0  0.3 0.075 0  0.325 0.075 0  0.35 0.075 0  0.375 0.075 0  0.4 0.075 0  0.425 0.075 0  0.45 0.075 0  0.475 0.075 0  0.5 0.075 0  0.525 0.075 0  0.55 0.075 0  0.575 0.075 0  0.6 0.075 0  0.625 0.075 0  0.65 0.075 0  0.675 0.075 0  0.7 0.075 0  0.725 0.075 0  0.75 0.075 0  0.775 0.075 0  0.8 0.075 0  0.825 0.075 0  0.85 0.075 0  0.875 0.075 0  0.9 0.075 0  0.925 0.075 0  0.95 0.075 0  0.975 0.075 0  1 0.075 0  0 0.1 0  0.025 0.1 0  0.05 0.1 0  0.075 0.1 0  0.1 0.1 0  0.125 0.1 0  0.15 0.1 0  0.175 0.1 0  0.2 0.1 0  0.225 0.1 0  0.25 0.1 0  0.275 0.1 0  0.3 0.1 0  0.325 0.1 0  0.35 0.1 0  0.375 0.1 0  0.4 0.1 0  0.425 0.1 0  0.45 0.1 0  0.475 0.1 0  0.5 0.1 0  0.525 0.1 0  0.55 0.1 0  0.575 0.1 0  0.6 0.1 0  0.625 0.1 0  0.65 0.1 0  0.675 0.1 0  0.7 0.1 0  0.725 0.1 0  0.75 0.1 0  0.775 0.1 0  0.8 0.1 0  0.825 0.1 0  0.85 0.1 0  0.875 0.1 0  0.9 0.1 0  0.925 0.1 0  0.95 0.1 0  0.975 0.1 0  1 0.1 0  0 0.125 0  0.025 0.125 0  0.05 0.125 0  0.075 0.125 0  0.1 0.125 0  0.125 0.125 0  0.15 0.125 0  0.175 0.125 0  0.2 0.125 0  0.225 0.125 0  0.25 0.125 0  0.275 0.125 0  0.3 0.125 0  0.325 0.125 0  0.35 0.125 0  0.375 0.125 0  0.4 0.125 0  0.425 0.125 0  0.45 0.125 0  0.475 0.125 0  0.5 0.125 0  0.525 0.125 0  0.55 0.125 0  0.575 0.125 0  0.6 0.125 0  0.625 0.125 0  0.65 0.125 0  0.675 0.125 0  0.7 0.125 0  0.725 0.125 0  0.75 0.125 0  0.775 0.125 0  0.8 0.125 0  0.825 0.125 0  0.85 0.125 0  0.875 0.125 0  0.9 0.125 0  0.925 0.125 0  0.95 0.125 0  0.975 0.125 0  1 0.125 0  0 0.15 0  0.025 0.15 0  0.05 0.15 0  0.075 0.15 0  0.1 0.15 0  0.125 0.15 0  0.15 0.15 0  0.175 0.15 0  0.2 0.15 0  0.225 0.15 0  0.25 0.15 0  0.275 0.15 0  0.3 0.15 0  0.325 0.15 0  0.35 0.15 0  0.375 0.15 0  0.4 0.15 0  0.425 0.15 0  0.45 0.15 0  0.475 0.15 0  0.5 0.15 0  0.525 0.15 0  0.55 0.15 0  0.575 0.15 0  0.6 0.15 0  0.625 0.15 0  0.65 0.15 0  0.675 0.15 0  0.7 0.15 0  0.725 0.15 0  0.75 0.15 0  0.775 0.15 0  0.8 0.15 0  0.825 0.15 0  0.85 0.15 0  0.875 0.15 0  0.9 0.15 0  0.925 0.15 0  0.95 0.15 0  0.975 0.15 0  1 0.15 0  0 0.175 0  0.025 0.175 0  0.05 0.175 0  0.075 0.175 0  0.1 0.175 0  0.125 0.175 0  0.15 0.175 0  0.175 0.175 0  0.2 0.175 0  0.225 0.175 0  0.25 0.175 0  0.275 0.175 0  0.3 0.175 0  0.325 0.175 0  0.35 0.175 0  0.375 0.175 0  0.4 0.175 0  0.425 0.175 0  0.45 0.175 0  0.475 0.175 0  0.5 0.175 0  0.525 0.175 0  0.55 0.175 0  0.575 0.175 0  0.6 0.175 0  0.625 0.175 0  0.65 0.175 0  0.675 0.175 0  0.7 0.175 0  0.725 0.175 0  0.75 0.175 0  0.775 0.175 0  0.8 0.175 0  0.825 0.175 0  0.85 0.175 0  0.875 0.175 0  0.9 0.175 0  0.925 0.175 0  0.95 0.175 0  0.975 0.175 0  1 0.175 0  0 0.2 0  0.025 0.2 0  0.05 0.2 0  0.075 0.2 0  0.1 0.2 0  0.125 0.2 0  0.15 0.2 0  0.175 0.2 0  0.2 0.2 0  0.225 0.2 0  0.25 0.2 0  0.275 0.2 0  0.3 0.2 0  0.325 0.2 0  0.35 0.2 0  0.375 0.2 0  0.4 0.2 0  0.425 0.2 0  0.45 0.2 0  0.475 0.2 0  0.5 0.2 0  0.525 0.2 0  0.55 0.2 0  0.575 0.2 0  0.6 0.2 0  0.625 0.2 0  0.65 0.2 0  0.675 0.2 0  0.7 0.2 0  0.725 0.2 0  0.75 0.2 0  0.775 0.2 0  0.8 0.2 0  0.825 0.2 0  0.85 0.2 0  0.875 0.2 0  0.9 0.2 0  0.925 0.2 0  0.95 0.2 0  0.975 0.2 0  1 0.2 0  0 0.225 0  0.025 0.225 0  0.05 0.225 0  0.075 0.225 0  0.1 0.225 0  0.125 0.225 0  0.15 0.225 0  0.175 0.225 0  0.2 0.225 0  0.225 0.225 0  0.25 0.225 0  0.275 0.225 0  0.3 0.225 0  0.325 0.225 0  0.35 0.225 0  0.375 0.225 0  0.4 0.225 0  0.425 0.225 0  0.45 0.225 0  0.475 0.225 0  0.5 0.225 0  0.525 0.225 0  0.55 0.225 0  0.575 0.225 0  0.6 0.225 0  0.625 0.225 0  0.65 0.225 0  0.675 0.225 0  0.7 0.225 0  0.725 0.225 0  0.75 0.225 0  0.775 0.225 0  0.8 0.225 0  0.825 0.225 0  0.85 0.225 0  0.875 0.225 0  0.9 0.225 0  0.925 0.225 0  0.95 0.225 0  0.975 0.225 0  1 0.225 0  0 0.25 0  0.025 0.25 0  0.05 0.25 0  0.075 0.25 0  0.1 0.25 0  0.125 0.25 0  0.15 0.25 0  0.175 0.25 0  0.2 0.25 0  0.225 0.25 0  0.25 0.25 0  0.275 0.25 0  0.3 0.25 0  0.325 0.25 0  0.35 0.25 0  0.375 0.25 0  0.4 0.25 0  0.425 0.25 0  0.45 0.25 0  0.475 0.25 0  0.5 0.25 0  0.525 0.25 0  0.55 0.25 0  0.575 0.25 0  0.6 0.25 0  0.625 0.25 0  0.65 0.25 0  0.675 0.25 0  0.7 0.25 0  0.725 0.25 0  0.75 0.25 0  0.775 0.25 0  0.8 0.25 0  0.825 0.25 0  0.85 0.25 0  0.875 0.25 0  0.9 0.25 0  0.925 0.25 0  0.95 0.25 0  0.975 0.25 0  1 0.25 0  0 0.275 0  0.025 0.275 0  0.05 0.275 0  0.075 0.275 0  0.1 0.275 0  0.125 0.275 0  0.15 0.275 0  0.175 0.275 0  0.2 0.275 0  0.225 0.275 0  0.25 0.275 0  0.275 0.275 0  0.3 0.275 0  0.325 0.275 0  0.35 0.275 0  0.375 0.275 0  0.4 0.275 0  0.425 0.275 0  0.45 0.275 0  0.475 0.275 0  0.5 0.275 0  0.525 0.275 0  0.55 0.275 0  0.575 0.275 0  0.6 0.275 0  0.625 0.275 0  0.65 0.275 0  0.675 0.275 0  0.7 0.275 0  0.725 0.275 0  0.75 0.275 0  0.775 0.275 0  0.8 0.275 0  0.825 0.275 0  0.85 0.275 0  0.875 0.275 0  0.9 0.275 0  0.925 0.275 0  0.95 0.275 0  0.975 0.275 0  1 0.275 0  0 0.3 0  0.025 0.3 0  0.05 0.3 0  0.075 0.3 0  0.1 0.3 0  0.125 0.3 0  0.15 0.3 0  0.175 0.3 0  0.2 0.3 0  0.225 0.3 0  0.25 0.3 0  0.275 0.3 0  0.3 0.3 0  0.325 0.3 0  0.35 0.3 0  0.375 0.3 0  0.4 0.3 0  0.425 0.3 0  0.45 0.3 0  0.475 0.3 0  0.5 0.3 0  0.525 0.3 0  0.55 0.3 0  0.575 0.3 0  0.6 0.3 0  0.625 0.3 0  0.65 0.3 0  0.675 0.3 0  0.7 0.3 0  0.725 0.3 0  0.75 0.3 0  0.775 0.3 0  0.8 0.3 0  0.825 0.3 0  0.85 0.3 0  0.875 0.3 0  0.9 0.3 0  0.925 0.3 0  0.95 0.3 0  0.975 0.3 0  1 0.3 0  0 0.325 0  0.025 0.325 0  0.05 0.325 0  0.075 0.325 0  0.1 0.325 0  0.125 0.325 0  0.15 0.325 0  0.175 0.325 0  0.2 0.325 0  0.225 0.325 0  0.25 0.325 0  0.275 0.325 0  0.3 0.325 0  0.325 0.325 0  0.35 0.325 0  0.375 0.325 0  0.4 0.325 0  0.425 0.325 0  0.45 0.325 0  0.475 0.325 0  0.5 0.325 0  0.525 0.325 0  0.55 0.325 0  0.575 0.325 0  0.6 0.325 0  0.625 0.325 0  0.65 0.325 0  0.675 0.325 0  0.7 0.325 0  0.725 0.325 0  0.75 0.325 0  0.775 0.325 0  0.8 0.325 0  0.825 0.325 0  0.85 0.325 0  0.875 0.325 0  0.9 0.325 0  0.925 0.325 0  0.95 0.325 0  0.975 0.325 0  1 0.325 0  0 0.35 0  0.025 0.35 0  0.05 0.35 0  0.075 0.35 0  0.1 0.35 0  0.125 0.35 0  0.15 0.35 0  0.175 0.35 0  0.2 0.35 0  0.225 0.35 0  0.25 0.35 0  0.275 0.35 0  0.3 0.35 0  0.325 0.35 0  0.35 0.35 0  0.375 0.35 0  0.4 0.35 0  0.425 0.35 0  0.45 0.35 0  0.475 0.35 0  0.5 0.35 0  0.525 0.35 0  0.55 0.35 0  0.575 0.35 0  0.6 0.35 0  0.625 0.35 0  0.65 0.35 0  0.675 0.35 0  0.7 0.35 0  0.725 0.35 0  0.75 0.35 0  0.775 0.35 0  0.8 0.35 0  0.825 0.35 0  0.85 0.35 0  0.875 0.35 0  0.9 0.35 0  0.925 0.35 0  0.95 0.35 0  0.975 0.35 0  1 0.35 0  0 0.375 0  0.025 0.375 0  0.05 0.375 0  0.075 0.375 0  0.1 0.375 0  0.125 0.375 0  0.15 0.375 0  0.175 0.375 0  0.2 0.375 0  0.225 0.375 0  0.25 0.375 0  0.275 0.375 0  0.3 0.375 0  0.325 0.375 0  0.35 0.375 0  0.375 0.375 0  0.4 0.375 0  0.425 0.375 0  0.45 0.375 0  0.475 0.375 0  0.5 0.375 0  0.525 0.375 0  0.55 0.375 0  0.575 0.375 0  0.6 0.375 0  0.625 0.375 0  0.65 0.375 0  0.675 0.375 0  0.7 0.375 0  0.725 0.375 0  0.75 0.375 0  0.775 0.375 0  0.8 0.375 0  0.825 0.375 0  0.85 0.375 0  0.875 0.375 0  0.9 0.375 0  0.925 0.375 0  0.95 0.375 0  0.975 0.375 0  1 0.375 0  0 0.4 0  0.025 0.4 0  0.05 0.4 0  0.075 0.4 0  0.1 0.4 0  0.125 0.4 0  0.15 0.4 0  0.175 0.4 0  0.2 0.4 0  0.225 0.4 0  0.25 0.4 0  0.275 0.4 0  0.3 0.4 0  0.325 0.4 0  0.35 0.4 0  0.375 0.4 0  0.4 0.4 0  0.425 0.4 0  0.45 0.4 0  0.475 0.4 0  0.5 0.4 0  0.525 0.4 0  0.55 0.4 0  0.575 0.4 0  0.6 0.4 0  0.625 0.4 0  0.65 0.4 0  0.675 0.4 0  0.7 0.4 0  0.725 0.4 0  0.75 0.4 0  0.775 0.4 0  0.8 0.4 0  0.825 0.4 0  0.85 0.4 0  0.875 0.4 0  0.9 0.4 0  0.925 0.4 0  0.95 0.4 0  0.975 0.4 0  1 0.4 0  0 0.425 0  0.025 0.425 0  0.05 0.425 0  0.075 0.425 0  0.1 0.425 0  0.125 0.425 0  0.15 0.425 0  0.175 0.425 0  0.2 0.425 0  0.225 0.425 0  0.25 0.425 0  0.275 0.425 0  0.3 0.425 0  0.325 0.425 0  0.35 0.425 0  0.375 0.425 0  0.4 0.425 0  0.425 0.425 0  0.45 0.425 0  0.475 0.425 0  0.5 0.425 0  0.525 0.425 0  0.55 0.425 0  0.575 0.425 0  0.6 0.425 0  0.625 0.425 0  0.65 0.425 0  0.675 0.425 0  0.7 0.425 0  0.725 0.425 0  0.75 0.425 0  0.775 0.425 0  0.8 0.425 0  0.825 0.425 0  0.85 0.425 0  0.875 0.425 0  0.9 0.425 0  0.925 0.425 0  0.95 0.425 0  0.975 0.425 0  1 0.425 0  0 0.45 0  0.02
[...]
<PointData  Scalars="ControlVisualisation"> 
<DataArray  type="Float64"  Name="ControlVisualisation"  format="ascii">-9.2065633467498005e-09  -9.4710283807455085e-09  -9.4709872181353990e-09  -9.4709174950540235e-09  -9.4708199059741082e-09  -9.4706950644603368e-09  -9.4705438483017720e-09  -9.4703673453448891e-09  -9.4701668599817580e-09  -9.4699439200325278e-09  -9.4697002792989037e-09  -9.4694379203589027e-09  -9.4691590581762838e-09  -9.4688661464183144e-09  -9.4685618896287032e-09  -9.4682492653652985e-09  -9.4679315617048336e-09  -9.4676124367143003e-09  -9.4672960064528225e-09  -9.4669869676187730e-09  -9.4666907521529306e-09  -9.4664137011912523e-09  -9.4661632302583091e-09  -9.4659479675481645e-09  -9.4657778346039086e-09  -9.4656641179348232e-09  -9.4656194783411108e-09  -9.4656580255694551e-09  -9.4657953924723548e-09  -9.4660473698873819e-09  -9.4664302017414121e-09  -9.4669558288325801e-09  -9.4676270608462554e-09  -9.4684145575432567e-09  -9.4692369082758392e-09  -9.4699770157689087e-09  -9.4705308106716194e-09  -9.4708578171072815e-09  -9.4709988136844249e-09  -9.4710390707079547e-09  -8.4131326636068356e-09  -9.4710283568834985e-09  -9.7354997824302996e-09  -9.7354596509286501e-09  -9.7353881771806103e-09  -9.7352850610401214e-09  -9.7351509518814539e-09  -9.7349867504517522e-09  -9.7347935681935071e-09  -9.7345727569691351e-09  -9.7343259150619409e-09  -9.7340548933839983e-09  -9.7337618017237632e-09  -9.7334490154330720e-09  -9.7331191846754685e-09  -9.7327752492102217e-09  -9.7324204630855638e-09  -9.7320584350004597e-09  -9.7316931917619500e-09  -9.7313292728216810e-09  -9.7309718634222956e-09  -9.7306269657236453e-09  -9.7303016059482743e-09  -9.7300040382581470e-09  -9.7297439094796995e-09  -9.7295322847016617e-09  -9.7293817045186824e-09  -9.7293061708901186e-09  -9.7293215768557435e-09  -9.7294448595092279e-09  -9.7296936186647548e-09  -9.7300852228627617e-09  -9.7306304554932122e-09  -9.7313429665001279e-09  -9.7322067408904432e-09  -9.7331455693806791e-09  -9.7340347262663668e-09  -9.7347470815070155e-09  -9.7352050019708703e-09  -9.7354271155422601e-09  -9.7355025086625767e-09  -9.4710401757735744e-09  -9.4709869381302684e-09  -9.7354594458755906e-09  -9.7354094003122315e-09  -9.7353280723994971e-09  -9.7352105231124356e-09  -9.7350573179982036e-09  -9.7348694474848231e-09  -9.7346481612458400e-09  -9.7343949829907544e-09  -9.7341117157921258e-09  -9.7338004509352763e-09  -9.7334635745903739e-09  -9.7331037743165352e-09  -9.7327240474880733e-09  -9.7323277145650071e-09  -9.7319184418925881e-09  -9.7315002806431914e-09  -9.7310777299457360e-09  -9.7306558348810259e-09  -9.7302403302525466e-09  -9.7298378446222380e-09  -9.7294561689047228e-09  -9.7291044928293508e-09  -9.7287935901517077e-09  -9.7285357510688785e-09  -9.7283449077425713e-09  -9.7282362047614604e-09  -9.7282268240368204e-09  -9.7283323434918724e-09  -9.7285738956263740e-09  -9.7289647426399704e-09  -9.7295100236538130e-09  -9.7302374301528125e-09  -9.7311750288783980e-09  -9.7322669042488428e-09  -9.7333666026202960e-09  -9.7343094643851141e-09  -9.7349693184874115e-09  -9.7353360484654869e-09  -9.7354830227064214e-09  -9.4710303762121788e-09  -9.4709161558071204e-09  -9.7353870278006852e-09  -9.7353270256670513e-09  -9.7352446887634737e-09  -9.7351262605861786e-09  -9.7349719051521641e-09  -9.7347825748029231e-09  -9.7345595203202602e-09  -9.7343042658296246e-09  -9.7340186168236582e-09  -9.7337046668671266e-09  -9.7333648014891706e-09  -9.7330017009069497e-09  -9.7326183426767468e-09  -9.7322180065991997e-09  -9.7318042854398473e-09  -9.7313811078009140e-09  -9.7309527800360963e-09  -9.7305240657827195e-09  -9.7301003058105524e-09  -9.7296876357303840e-09  -9.7292932184600555e-09  -9.7289256492613898e-09  -9.7285953449913650e-09  -9.7283145572909450e-09  -9.7280957588519305e-09  -9.7279506667289961e-09  -9.7278924626759878e-09  -9.7279364041818074e-09  -9.7281091742998735e-09  -9.7284097228123371e-09  -9.7288466564287308e-09  -9.7292662292370258e-09  -9.7300041911816357e-09  -9.7310792060729913e-09  -9.7322570313471276e-09  -9.7333982751338388e-09  -9.7344052215100078e-09  -9.7351059675223578e-09  -9.7354883173132105e-09  -9.4710504440200661e-09  -9.4708157352630437e-09  -9.7352812301668165e-09  -9.7352064674463422e-09  -9.7351232351484018e-09  -9.7350045617388292e-09  -9.7348499154395273e-09  -9.7346602001495080e-09  -9.7344366560937113e-09  -9.7341807966232811e-09  -9.7338944170162756e-09  -9.7335795976220936e-09  -9.7332387042605296e-09  -9.7328743857936890e-09  -9.7324895690385764e-09  -9.7320874515791222e-09  -9.7316714937339714e-09  -9.7312454184977107e-09  -9.7308132253953742e-09  -9.7303792368765573e-09  -9.7299481262258392e-09  -9.7295251447630783e-09  -9.7291162653026416e-09  -9.7287296303850377e-09  -9.7283746949142188e-09  -9.7280636589710243e-09  -9.7278036288487012e-09  -9.7276096175809687e-09  -9.7274893943618762e-09  -9.7274745492459239e-09  -9.7274900093856303e-09  -9.7276017574814259e-09  -9.7278390654451498e-09  -9.7270155932595534e-09  -9.7267464721226372e-09  -9.7268158692586159e-09  -9.7270051385227722e-09  -9.7288080682124390e-09  -9.7319060664153824e-09  -9.7339853445253373e-09  -9.7346401968621121e-09  -9.4710282334024216e-09  -9.4706849243469477e-09  -9.7351412512024000e-09  -9.7350466305203697e-09  -9.7349621987823028e-09  -9.7348432170576790e-09  -9.7346882038455799e-09  -9.7344980085276279e-09  -9.7342738582109092e-09  -9.7340172554987801e-09  -9.7337299847725509e-09  -9.7334141117562630e-09  -9.7330719799415981e-09  -9.7327062024579614e-09  -9.7323196485797698e-09  -9.7319154213828871e-09  -9.7314968289488357e-09  -9.7310673523549637e-09  -9.7306306144737658e-09  -9.7301903473099098e-09  -9.7297503710120113e-09  -9.7293148445143409e-09  -9.7288880559832014e-09  -9.7284764436387346e-09  -9.7280839606431350e-09  -9.7277324771708344e-09  -9.7274301735929420e-09  -9.7272008408078284e-09  -9.7269376894803703e-09  -9.7267320407324519e-09  -9.7261197197598185e-09  -9.7255719965357756e-09  -9.7237070766623175e-09  -9.7083914262499372e-09  -9.6869598277686663e-09  -9.6671699502771702e-09  -9.6382669532320030e-09  -9.6290598969906845e-09  -9.6521518571778670e-09  -9.6985583439408279e-09  -9.7226353004743484e-09  -9.4551214297064132e-09  -9.4705228443822907e-09  -9.7349660890296527e-09  -9.7348463176741992e-09  -9.7347603120754875e-09  -9.7346408853712386e-09  -9.7344853446196679e-09  -9.7342944718739361e-09  -9.7340694828364361e-09  -9.7338118729727975e-09  -9.7335234186892674e-09  -9.7332061728362537e-09  -9.7328624569452237e-09  -9.7324948480578515e-09  -9.7321061618681068e-09  -9.7316994135914435e-09  -9.7312777658539947e-09  -9.7308444047992734e-09  -9.7304025338990107e-09  -9.7299552859129164e-09  -9.7295059675193419e-09  -9.7290564315633035e-09  -9.7286079125398626e-09  -9.7281606049582540e-09  -9.7277219068480068e-09  -9.7273290074952281e-09  -9.7269658507541090e-09  -9.7265506570933119e-09  -9.7258421794758092e-09  -9.7250262150028141e-09  -9.7180206196331696e-09  -9.6932262213502187e-09  -9.6482602666147374e-09  -9.4846504028566613e-09  -3.2826149295714455e-09  1.6216472283813996e-01  3.1275662718968239e-01  4.0823181735247810e-01  3.9940421652980579e-01  2.1037723587746099e-01  -9.4734150343758741e-09  -9.4306280351408500e-09  -9.4703284491460992e-09  -9.7347545084839766e-09  -9.7346040681327366e-09  -9.7345160637214933e-09  -9.7343959983799173e-09  -9.7342397007646888e-09  -9.7340478781222441e-09  -9.7338217422406090e-09  -9.7335627897236119e-09  -9.7332727957298880e-09  -9.7329538041076734e-09  -9.7326081155379717e-09  -9.7322382747542134e-09  -9.7318470583771914e-09  -9.7314374099069884e-09  -9.7310123800584971e-09  -9.7305748529011695e-09  -9.7301278326291793e-09  -9.7296735164788873e-09  -9.7292148293185975e-09  -9.7287483677127037e-09  -9.7282824940702518e-09  -9.7277963396235353e-09  -9.7273113794704658e-09  -9.7266560353663366e-09  -9.7261560715852829e-09  -9.7251085139711360e-09  -9.7191753895964573e-09  -9.6927785301144681e-09  -9.6253452400378439e-09  -9.1936747369930539e-09  1.4042527977093072e-01  4.7912367123755567e-01  8.9425601299489288e-01  1.0000000090135317e+00  1.0000000095523554e+00  1.0000000096962891e+00  1.0000000097542394e+00  1.0000000097714028e+00  1.0000000097181989e+00  9.4015658603991281e-01  -9.4701005581946843e-09  -9.7345050906751419e-09  -9.7343181870657260e-09  -9.7342276784318771e-09  -9.7341066905102819e-09  -9.7339493034427638e-09  -9.7337561506749187e-09  -9.7335284561749834e-09  -9.7332677336128096e-09  -9.7329757691480681e-09  -9.7326546044646620e-09  -9.7323065146881758e-09  -9.7319340068479913e-09  -9.7315398084602094e-09  -9.7311268894190831e-09  -9.7306983905243378e-09  -9.7302570241016766e-09  -9.7298048602524917e-09  -9.7293416512665338e-09  -9.7288750132107250e-09  -9.7283983292936906e-09  -9.7279297685940899e-09  -9.7273260704577190e-09  -9.7267176889345082e-09  -9.7250809116417999e-09  -9.7227178411086859e-09  -9.7003426183720661e-09  -9.6391849952960378e-09  -9.2827458134025936e-09  1.5393052768049881e-01  5.9112517238554030e-01  1.0000000078657121e+00  1.0000000095692536e+00  1.0000000097593840e+00  1.0000000098374844e+00  1.0000000098834272e+00  1.0000000099121436e+00  1.0000000099321111e+00  1.0000000099469195e+00  1.0000000099572095e+00  1.0000000099003812e+00  -9.4698379130817764e-09  -9.7342162794566196e-09  -9.7339867847954149e-09  -9.7338931425990541e-09  -9.7337708053705837e-09  -9.7336118357348344e-09  -9.7334168101458755e-09  -9.7331869967892888e-09  -9.7329239563039219e-09  -9.7326295056370468e-09  -9.7323056862550100e-09  -9.7319547168252965e-09  -9.7315790585543807e-09  -9.7311813598398911e-09  -9.7307649330911643e-09  -9.7303326864065343e-09  -9.7298879595232394e-09  -9.7294297661495660e-09  -9.7289609473371490e-09  -9.7284878924005539e-09  -9.7279874168574318e-09  -9.7274016194829744e-09  -9.7265584652234360e-09  -9.7252592379015788e-09  -9.7073495905604972e-09  -9.6639025591453329e-09  -9.4907263994100358e-09  8.1714854704726517e-02  5.2589294497649508e-01  1.0000000074783233e+00  1.0000000095822219e+00  1.0000000097743285e+00  1.0000000098536530e+00  1.0000000098972606e+00  1.0000000099224353e+00  1.0000000099395567e+00  1.0000000099527493e+00  1.0000000099636626e+00  1.0000000099725201e+00  1.0000000099786519e+00  1.0000000099589048e+00  -9.4695392658920298e-09  -9.7338864626984854e-09  -9.7336078511282756e-09  -9.7335102481487399e-09  -9.7333859011925190e-09  -9.7332246000618308e-09  -9.7330269118581607e-09  -9.7327942087171245e-09  -9.7325281421240241e-09  -9.7322305826522803e-09  -9.7319035860012037e-09  -9.7315493178732465e-09  -9.7311701141510627e-09  -9.7307681060530316e-09  -9.7303469595625659e-09  -9.7299087797446356e-09  -9.7294667657092812e-09  -9.7290054024968487e-09  -9.7285266455871977e-09  -9.7279269242770588e-09  -9.7273842437468794e-09  -9.7261386082973528e-09  -9.7196331316329376e-09  -9.6903130403897221e-09  -9.5809661474077498e-09  1.9886256234296433e-08  3.6864568415697246e-01  9.6143313858913426e-01  1.0000000094880117e+00  1.0000000097507982e+00  1.0000000098441824e+00  1.0000000098921527e+00  1.0000000099179509e+00  1.0000000099343116e+00  1.0000000099460962e+00  1.0000000099555950e+00  1.0000000099639450e+00  1.0000000099715018e+00  1.0000000099779505e+00  1.0000000099825506e+00  1.0000000099685658e+00  -9.4692035287966707e-09  -9.7335141112526510e-09  -9.7331793786243224e-09  -9.7330766619868635e-09  -9.7329492564379233e-09  -9.7327844637820749e-09  -9.7325829401343529e-09  -9.7323462578103513e-09  -9.7320762300677061e-09  -9.7317748759082986e-09  -9.7314442971581290e-09  -9.7310864908996309e-09  -9.7307028999805439e-09  -9.7302953561845341e-09  -9.7298678884218713e-09  -9.7294227022666400e-09  -9.7289848673760851e-09  -9.7284918645047824e-09  -9.7279410202866299e-09  -9.7268423742895418e-09  -9.7247461480250388e-09  -9.7031568556675112e-09  -9.6415920370059813e-09  -9.2299051582980866e-09  1.9438608682866756e-01  7.5692695107481844e-01  1.0000000092568777e+00  1.0000000096975488e+00  1.0000000098217383e+00  1.0000000098806308e+00  1.0000000099101261e+00  1.0000000099273825e+00  1.0000000099387005e+00  1.0000000099468827e+00  1.0000000099534156e+00  1.0000000099591952e+00  1.0000000099647481e+00  1.0000000099702187e+00  1.0000000099753314e+00  1.0000000099793032e+00  1.0000000099643946e+00  -9.4688300254824261e-09  -9.7330980141015418e-09  -9.7326995698255700e-09  -9.7325900420794621e-09  -9.7324578744005379e-09  -9.7322877420798968e-09  -9.7320805867805751e-09  -9.7318384085063636e-09  -9.7315633115246001e-09  -9.7312574373898348e-09  -9.7309225319813019e-09  -9.7305610896622643e-09  -9.7301733947690727e-09  -9.7297643431715317e-09  -9.7293192334188592e-09  -9.7288375640112759e-09  -9.7282908748491148e-09  -9.7278114654143087e-09  -9.7266009482163035e-09  -9.7145159518765453e-09  -9.6766895783183619e-09  -9.5243151529356393e-09  6.0779400499804195e-02  5.1827220216285119e-01  1.0000000080285436e+00  1.0000000096093458e+00  1.0000000097905908e+00  1.0000000098641222e+00  1.0000000099006381e+00  1.0000000099205129e+00  1.0000000099325921e+00  1.0000000099404469e+00  1.0000000099458088e+00  1.0000000099496438e+00  1.0000000099525583e+00  1.0000000099549646e+00  1.0000000099571111e+00  1.0000000099590551e+00  1.0000000099606032e+00  1.0000000099609054e+00  1.0000000099345474e+00  -9.4684189155246981e-09  -9.7326376815112433e-09  -9.7321671927177280e-09  -9.7320482174600551e-09  -9.7319084354644569e-09  -9.7317299609674668e-09  -9.7315144872298929e-09  -9.7312647621412020e-09  -9.7309829197240050e-09  -9.7306710146524976e-09  -9.7303314322450834e-09  -9.7299707182686170e-09  -9.7295787432543940e-09  -9.7291585749352792e-09  -9.7286387877061816e-09  -9.7280902809223168e-09  -9.7268803540082202e-09  -9.7236192817759680e-09  -9.6984054786318391e-09  -9.6139345205245380e-09  -8.3761086620105656e-09  2.9952511759459111e-01  8.9872448639770175e-01  1.0000000094415160e+00  1.0000000097408772e+00  1.0000000098404656e+00  1.0000000098888970e+00  1.0000000099133088e+00  1.0000000099273167e+00  1.0000000099358686e+00  1.0000000099411348e+00  1.0000000099441892e+00  1.0000000099455846e+00  1.0000000099455666e+00  1.0000000099441304e+00  1.0000000099409245e+00  1.0000000099348669e+00  1.0000000099229740e+00  1.0000000099041804e+00  1.0000000098356623e+00  1.0000000095807333e+00  -9.4679719286257615e-09  -9.7321340338068555e-09  -9.7315821532995150e-09  -9.7314494501531986e-09  -9.7312972986004353e-09  -9.7311056372812190e-09  -9.7308774482462260e-09  -9.7306165851761242e-09  -9.7303266213679099e-09  -9.7300097724889902e-09  -9.7296664140430267e-09  -9.7292972987424947e-09  -9.7288754578418126e-09  -9.7284048469439121e-09  -9.7277520884158119e-09  -9.7261340939163979e-09  -9.7076072112148077e-09  -9.6605948774028695e-09  -9.4425787727559730e-09  1.2241541879886578e-01  6.4980276504939216e-01  1.0000000089838945e+00  1.0000000096641168e+00  1.0000000098091131e+00  1.0000000098734640e+00  1.0000000099047806e+00  1.0000000099219319e+00  1.0000000099320350e+00  1.0000000099380193e+00  1.0000000099412507e+00  1.0000000099423605e+00  1.0000000099415520e+00  1.0000000099386732e+00  1.0000000099331003e+00  1.0000000099233133e+00  1.0000000099054298e+00  1.0000000098685633e+00  1.0000000097907078e+00  1.0000000093676531e+00  2.4159880330807204e-01  -9.2370343992536015e-09  -9.4674935780712234e-09  -9.7315905455952302e-09  -9.7309465108319060e-09  -9.7307930522669321e-09  -9.7306203594920929e-09  -9.7304065941660000e-09  -9.7301579313146633e-09  -9.7298826879290186e-09  -9.7295890175590639e-09  -9.7292586494394374e-09  -9.7288798759266540e-09  -9.7284538897019805e-09  -9.7280460405627081e-09  -9.7269573122649838e-09  -9.7203323382033734e-09  -9.6904800648738450e-09  -9.5758995468838761e-09  8.0287787078817934e-03  4.0318039428045027e-01  9.9999999711480558e-01  1.0000000095361055e+00  1.0000000097684392e+00  1.0000000098528983e+00  1.0000000098942741e+00  1.0000000099157496e+00  1.0000000099280799e+00  1.0000000099353383e+00  1.0000000099393243e+00  1.0000000099408619e+00  1.0000000099402426e+00  1.0000000099373465e+00  1.0000000099315731e+00  1.0000000099214854e+00  1.0000000099036968e+00  1.0000000098690660e+00  1.0000000097987820e+00  1.0000000095934236e+00  9.3647868593813699e-01  1.0499361163662800e-01  -9.6464747681218736e-09  -9.4436002201456033e-09  -9.4669932907402499e-09  -9.7310153685506671e-09  -9.7302662406316119e-09  -9.7300795491286842e-09  -9.7298716194678948e-09  -9.7296223265263940e-09  -9.7293447392430758e-09  -9.7290453539513154e-09  -9.7287370287249547e-09  -9.7283740915058341e-09  -9.7279496157835457e-09  -9.7272260037331878e-09  -9.7250320500150436e-09  -9.7034908130745377e-09  -9.6424596325521235e-09  -9.2217076178920267e-09  2.0013576688381926e-01  7.7357743424379843e-01  1.0000000092925705e+00  1.0000000097036701e+00  1.0000000098240733e+00  1.0000000098809274e+00  1.0000000099083710e+00  1.0000000099236090e+00  1.0000000099325279e+00  1.0000000099375828e+00  1.0000000099398896e+00  1.0000000099398965e+00  1.0000000099376010e+00  1.0000000099325415e+00  1.0000000099235413e+00  1.0000000099079625e+00  1.0000000098792552e+00  1.0000000098201094e+00  1.0000000096856343e+00  1.0000000089493220e+00  5.6591830834563739e-01  9.5011864032577414e-03  -9.6318568004990650e-09  -9.7207601727825214e-09  -9.4698192400816752e-09  -9.4664893388044246e-09  -9.7304245728588903e-09  -9.7295528661265071e-09  -9.7293116506451230e-09  -9.7290470753858553e-09  -9.7287405968616824e-09  -9.7283948101396308e-09  -9.7280105167922193e-09  -9.7276849357568837e-09  -9.7273875051324500e-09  -9.7260684558791631e-09  -9.7143270164325866e-09  -9.6775644632570615e-09  -9.5266406563859008e-09  5.9620450335115101e-02  5.1836571178429636e-01  1.0000000080571145e+00  1.0000000096091013e+00  1.0000000097901680e+00  1.0000000098634336e+00  1.0000000098992534e+00  1.0000000099183228e+00  1.0000000099293309e+00  1.0000000099356949e+00  1.0000000099389463e+00  1.0000000099397470e+00  1.0000000099382478e+00  1.0000000099341553e+00  1.0000000099265909e+00  1.0000000099135720e+00  1.0000000098904100e+00  1.0000000098440716e+00  1.0000000097485702e+00  1.0000000094583441e+00  8.8484994921146953e-01  2.4911154082268316e-01  -9.2111768591457703e-09  -9.6554456099666637e-09  -9.7112846026237737e-09  -9.7295442848428818e-09  -9.4681379871031939e-09  -9.4660136930375046e-09  -9.7298474655399066e-09  -9.7288306107626500e-09  -9.7285000087965034e-09  -9.7281280633555951e-09  -9.7277059128936514e-09  -9.7272565771654152e-09  -9.7267684143791294e-09  -9.7260455165758989e-09  -9.7228667285538687e-09  -9.6977370289130849e-09  -9.6149825918397026e-09  -8.4423681922787276e-09  2.9586629499463618e-01  8.9467218843750962e-01  1.0000000094369910e+00  1.0000000097392281e+00  1.0000000098392832e+00  1.0000000098877326e+00  1.0000000099119326e+00  1.0000000099255451e+00  1.0000000099334807e+00  1.0000000099378255e+00  1.0000000099395128e+00  1.0000000099388713e+00  1.0000000099357778e+00  1.0000000099295991e+00  1.0000000099188489e+00  1.0000000099001956e+00  1.0000000098651638e+00  1.0000000097936070e+00  1.0000000096171653e+00  1.0000000080995981e+00  5.0931902996201273e-01  4.4399180585762553e-02  -9.5523494213837014e-09  -9.6861074771291139e-09  -9.7186915752723721e-09  -9.7264607710382712e-09  -9.7293635731738089e-09  -9.4665636589606097e-09  -9.4656262633337041e-09  -9.7293405215229930e-09  -9.7281379707443212e-09  -9.7276293495896800e-09  -9.7270469845009234e-09  -9.7264989173408894e-09  -9.7258838326636682e-09  -9.7238002769897883e-09  -9.7057567713109010e-09  -9.6609356675037801e-09  -9.4478529160821074e-09  1.1993355683802183e-01  6.4533336179647294e-01  1.0000000089681742e+00  1.0000000096622668e+00  1.0000000098080646e+00  1.0000000098725894e+00  1.0000000099039115e+00  1.0000000099209341e+00  1.0000000099307973e+00  1.0000000099364033e+00  1.0000000099390611e+00  1.0000000099393065e+00  1.0000000099371871e+00  1.0000000099322865e+00  1.0000000099235140e