<?xml version="1.0"?>
<VTKFile type="UnstructuredGrid"  version="0.1"  >
<UnstructuredGrid>
<Piece  NumberOfPoints="1681" NumberOfCells="3200">
<Points>
<DataArray  type="Float64"  NumberOfComponents="3"  format="ascii">0 0 0  0.025 0 0  0.05 0 0  0.075 0 0  0.1 0 0  0.125 0 0  0.15 0 0  0.175 0 0  0.2 0 0  0.225 0 0  0.25 0 0  0.275 0 0  0.3 0 0  0.325 0 0  0.35 0 0  0.375 0 0  0.4 0 0  0.425 0 0  0.45 0 0  0.475 0 0  0.5 0 0  0.525 0 0  0.55 0 0  0.575 0 0  0.6 0 0  0.625 0 0  0.65 0 0  0.675 0 0  0.7 0 0  0.725 0 0  0.75 0 0  0.775 0 0  0.8 0 0  0.825 0 0  0.85 0 0  0.875 0 0  0.9 0 0  0.925 0 0  0.95 0 0  0.975 0 0  1 0 0  0 0.025 0  0.025 0.025 0  0.05 0.025 0  0.075 0.025 0  0.1 0.025 0  0.125 0.025 0  0.15 0.025 0  0.175 0.025 0  0.2 0.025 0  0.225 0.025 0  0.25 0.025 0  0.275 0.025 0  0.3 0.025 0  0.325 0.025 0  0.35 0.025 0  0.375 0.025 0  0.4 0.025 0  0.425 0.025 0  0.45 0.025 0  0.475 0.025 0  0.5 0.025 0  0.525 0.025 0  0.55 0.025 0  0.575 0.025 0  0.6 0.025 0  0.625 0.025 0  0.65 0.025 0  0.675 0.025 0  0.7 0.025 0  0.725 0.025 0  0.75 0.025 0  0.775 0.025 0  0.8 0.025 0  0.825 0.025 0  0.85 0.025 0  0.875 0.025 0  0.9 0.025 0  0.925 0.025 0  0.95 0.025 0  0.975 0.025 0  1 0.025 0  0 0.05 0  0.025 0.05 0  0.05 0.05 0  0.075 0.05 0  0.1 0.05 0  0.125 0.05 0  0.15 0.05 0  0.175 0.05 0  0.2 0.05 0  0.225 0.05 0  0.25 0.05 0  0.275 0.05 0  0.3 0.05 0  0.325 0.05 0  0.35 0.05 0  0.375 0.05 0  0.4 0.05 0  0.425 0.05 0  0.45 0.05 0  0.475 0.05 0  0.5 0.05 0  0.525 0.05 0  0.55 0.05 0  0.575 0.05 0  0.6 0.05 0  0.625 0.05 0  0.65 0.05 0  0.675 0.05 0  0.7 0.05 0  0.725 0.05 0  0.75 0.05 0  0.775 0.05 0  0.8 0.05 0  0.825 0.05 0  0.85 0.05 0  0.875 0.05 0  0.9 0.05 0  0.925 0.05 0  0.95 0.05 0  0.975 0.05 0  1 0.05 0  0 0.075 0  0.025 0.075 0  0.05 0.075 0  0.075 0.075 0  0.1 0.075 0  0.125 0.075 0  0.15 0.075 0  0.175 0.075 0  0.2 0.075 0  0.225 0.075 0  0.25 0.075 0  0.275 0.075 0  0.3 0.075 0  0.325 0.075 0  0.35 0.075 0  0.375 0.075 0  0.4 0.075 0  0.425 0.075 0  0.45 0.075 0  0.475 0.075 0  0.5 0.075 0  0.525 0.075 0  0.55 0.075 0  0.575 0.075 0  0.6 0.075 0  0.625 0.075 0  0.65 0.075 0  0.675 0.075 0  0.7 0.075 0  0.725 0.075 0  0.75 0.075 0  0.775 0.075 0  0.8 0.075 0  0.825 0.075 0  0.85 0.075 0  0.875 0.075 0  0.9 0.075 0  0.925 0.075 0  0.95 0.075 0  0.975 0.075 0  1 0.075 0  0 0.1 0  0.025 0.1 0  0.05 0.1 0  0.075 0.1 0  0.1 0.1 0  0.125 0.1 0  0.15 0.1 0  0.175 0.1 0  0.2 0.1 0  0.225 0.1 0  0.25 0.1 0  0.275 0.1 0  0.3 0.1 0  0.325 0.1 0  0.35 0.1 0  0.375 0.1 0  0.4 0.1 0  0.425 0.1 0  0.45 0.1 0  0.475 0.1 0  0.5 0.1 0  0.525 0.1 0  0.55 0.1 0  0.575 0.1 0  0.6 0.1 0  0.625 0.1 0  0.65 0.1 0  0.675 0.1 0  0.7 0.1 0  0.725 0.1 0  0.75 0.1 0  0.775 0.1 0  0.8 0.1 0  0.825 0.1 0  0.85 0.1 0  0.875 0.1 0  0.9 0.1 0  0.925 0.1 0  0.95 0.1 0  0.975 0.1 0  1 0.1 0  0 0.125 0  0.025 0.125 0  0.05 0.125 0  0.075 0.125 0  0.1 0.125 0  0.125 0.125 0  0.15 0.125 0  0.175 0.125 0  0.2 0.125 0  0.225 0.125 0  0.25 0.125 0  0.275 0.125 0  0.3 0.125 0  0.325 0.125 0  0.35 0.125 0  0.375 0.125 0  0.4 0.125 0  0.425 0.125 0  0.45 0.125 0  0.475 0.125 0  0.5 0.125 0  0.525 0.125 0  0.55 0.125 0  0.575 0.125 0  0.6 0.125 0  0.625 0.125 0  0.65 0.125 0  0.675 0.125 0  0.7 0.125 0  0.725 0.125 0  0.75 0.125 0  0.775 0.125 0  0.8 0.125 0  0.825 0.125 0  0.85 0.125 0  0.875 0.125 0  0.9 0.125 0  0.925 0.125 0  0.95 0.125 0  0.975 0.125 0  1 0.125 0  0 0.15 0  0.025 0.15 0  0.05 0.15 0  0.075 0.15 0  0.1 0.15 0  0.125 0.15 0  0.15 0.15 0  0.175 0.15 0  0.2 0.15 0  0.225 0.15 0  0.25 0.15 0  0.275 0.15 0  0.3 0.15 0  0.325 0.15 0  0.35 0.15 0  0.375 0.15 0  0.4 0.15 0  0.425 0.15 0  0.45 0.15 0  0.475 0.15 0  0.5 0.15 0  0.525 0.15 0  0.55 0.15 0  0.575 0.15 0  0.6 0.15 0  0.625 0.15 0  0.65 0.15 0  0.675 0.15 0  0.7 0.15 0  0.725 0.15 0  0.75 0.15 0  0.775 0.15 0  0.8 0.15 0  0.825 0.15 0  0.85 0.15 0  0.875 0.15 0  0.9 0.15 0  0.925 0.15 0  0.95 0.15 0  0.975 0.15 0  1 0.15 0  0 0.175 0  0.025 0.175 0  0.05 0.175 0  0.075 0.175 0  0.1 0.175 0  0.125 0.175 0  0.15 0.175 0  0.175 0.175 0  0.2 0.175 0  0.225 0.175 0  0.25 0.175 0  0.275 0.175 0  0.3 0.175 0  0.325 0.175 0  0.35 0.175 0  0.375 0.175 0  0.4 0.175 0  0.425 0.175 0  0.45 0.175 0  0.475 0.175 0  0.5 0.175 0  0.525 0.175 0  0.55 0.175 0  0.575 0.175 0  0.6 0.175 0  0.625 0.175 0  0.65 0.175 0  0.675 0.175 0  0.7 0.175 0  0.725 0.175 0  0.75 0.175 0  0.775 0.175 0  0.8 0.175 0  0.825 0.175 0  0.85 0.175 0  0.875 0.175 0  0.9 0.175 0  0.925 0.175 0  0.95 0.175 0  0.975 0.175 0  1 0.175 0  0 0.2 0  0.025 0.2 0  0.05 0.2 0  0.075 0.2 0  0.1 0.2 0  0.125 0.2 0  0.15 0.2 0  0.175 0.2 0  0.2 0.2 0  0.225 0.2 0  0.25 0.2 0  0.275 0.2 0  0.3 0.2 0  0.325 0.2 0  0.35 0.2 0  0.375 0.2 0  0.4 0.2 0  0.425 0.2 0  0.45 0.2 0  0.475 0.2 0  0.5 0.2 0  0.525 0.2 0  0.55 0.2 0  0.575 0.2 0  0.6 0.2 0  0.625 0.2 0  0.65 0.2 0  0.675 0.2 0  0.7 0.2 0  0.725 0.2 0  0.75 0.2 0  0.775 0.2 0  0.8 0.2 0  0.825 0.2 0  0.85 0.2 0  0.875 0.2 0  0.9 0.2 0  0.925 0.2 0  0.95 0.2 0  0.975 0.2 0  1 0.2 0  0 0.225 0  0.025 0.225 0  0.05 0.225 0  0.075 0.225 0  0.1 0.225 0  0.125 0.225 0  0.15 0.225 0  0.175 0.225 0  0.2 0.225 0  0.225 0.225 0  0.25 0.225 0  0.275 0.225 0  0.3 0.225 0  0.325 0.225 0  0.35 0.225 0  0.375 0.225 0  0.4 0.225 0  0.425 0.225 0  0.45 0.225 0  0.475 0.225 0  0.5 0.225 0  0.525 0.225 0  0.55 0.225 0  0.575 0.225 0  0.6 0.225 0  0.625 0.225 0  0.65 0.225 0  0.675 0.225 0  0.7 0.225 0  0.725 0.225 0  0.75 0.225 0  0.775 0.225 0  0.8 0.225 0  0.825 0.225 0  0.85 0.225 0  0.875 0.225 0  0.9 0.225 0  0.925 0.225 0  0.95 0.225 0  0.975 0.225 0  1 0.225 0  0 0.25 0  0.025 0.25 0  0.05 0.25 0  0.075 0.25 0  0.1 0.25 0  0.125 0.25 0  0.15 0.25 0  0.175 0.25 0  0.2 0.25 0  0.225 0.25 0  0.25 0.25 0  0.275 0.25 0  0.3 0.25 0  0.325 0.25 0  0.35 0.25 0  0.375 0.25 0  0.4 0.25 0  0.425 0.25 0  0.45 0.25 0  0.475 0.25 0  0.5 0.25 0  0.525 0.25 0  0.55 0.25 0  0.575 0.25 0  0.6 0.25 0  0.625 0.25 0  0.65 0.25 0  0.675 0.25 0  0.7 0.25 0  0.725 0.25 0  0.75 0.25 0  0.775 0.25 0  0.8 0.25 0  0.825 0.25 0  0.85 0.25 0  0.875 0.25 0  0.9 0.25 0  0.925 0.25 0  0.95 0.25 0  0.975 0.25 0  1 0.25 0  0 0.275 0  0.025 0.275 0  0.05 0.275 0  0.075 0.275 0  0.1 0.275 0  0.125 0.275 0  0.15 0.275 0  0.175 0.275 0  0.2 0.275 0  0.225 0.275 0  0.25 0.275 0  0.275 0.275 0  0.3 0.275 0  0.325 0.275 0  0.35 0.275 0  0.375 0.275 0  0.4 0.275 0  0.425 0.275 0  0.45 0.275 0  0.475 0.275 0  0.5 0.275 0  0.525 0.275 0  0.55 0.275 0  0.575 0.275 0  0.6 0.275 0  0.625 0.275 0  0.65 0.275 0  0.675 0.275 0  0.7 0.275 0  0.725 0.275 0  0.75 0.275 0  0.775 0.275 0  0.8 0.275 0  0.825 0.275 0  0.85 0.275 0  0.875 0.275 0  0.9 0.275 0  0.925 0.275 0  0.95 0.275 0  0.975 0.275 0  1 0.275 0  0 0.3 0  0.025 0.3 0  0.05 0.3 0  0.075 0.3 0  0.1 0.3 0  0.125 0.3 0  0.15 0.3 0  0.175 0.3 0  0.2 0.3 0  0.225 0.3 0  0.25 0.3 0  0.275 0.3 0  0.3 0.3 0  0.325 0.3 0  0.35 0.3 0  0.375 0.3 0  0.4 0.3 0  0.425 0.3 0  0.45 0.3 0  0.475 0.3 0  0.5 0.3 0  0.525 0.3 0  0.55 0.3 0  0.575 0.3 0  0.6 0.3 0  0.625 0.3 0  0.65 0.3 0  0.675 0.3 0  0.7 0.3 0  0.725 0.3 0  0.75 0.3 0  0.775 0.3 0  0.8 0.3 0  0.825 0.3 0  0.85 0.3 0  0.875 0.3 0  0.9 0.3 0  0.925 0.3 0  0.95 0.3 0  0.975 0.3 0  1 0.3 0  0 0.325 0  0.025 0.325 0  0.05 0.325 0  0.075 0.325 0  0.1 0.325 0  0.125 0.325 0  0.15 0.325 0  0.175 0.325 0  0.2 0.325 0  0.225 0.325 0  0.25 0.325 0  0.275 0.325 0  0.3 0.325 0  0.325 0.325 0  0.35 0.325 0  0.375 0.325 0  0.4 0.325 0  0.425 0.325 0  0.45 0.325 0  0.475 0.325 0  0.5 0.325 0  0.525 0.325 0  0.55 0.325 0  0.575 0.325 0  0.6 0.325 0  0.625 0.325 0  0.65 0.325 0  0.675 0.325 0  0.7 0.325 0  0.725 0.325 0  0.75 0.325 0  0.775 0.325 0  0.8 0.325 0  0.825 0.325 0  0.85 0.325 0  0.875 0.325 0  0.9 0.325 0  0.925 0.325 0  0.95 0.325 0  0.975 0.325 0  1 0.325 0  0 0.35 0  0.025 0.35 0  0.05 0.35 0  0.075 0.35 0  0.1 0.35 0  0.125 0.35 0  0.15 0.35 0  0.175 0.35 0  0.2 0.35 0  0.225 0.35 0  0.25 0.35 0  0.275 0.35 0  0.3 0.35 0  0.325 0.35 0  0.35 0.35 0  0.375 0.35 0  0.4 0.35 0  0.425 0.35 0  0.45 0.35 0  0.475 0.35 0  0.5 0.35 0  0.525 0.35 0  0.55 0.35 0  0.575 0.35 0  0.6 0.35 0  0.625 0.35 0  0.65 0.35 0  0.675 0.35 0  0.7 0.35 0  0.725 0.35 0  0.75 0.35 0  0.775 0.35 0  0.8 0.35 0  0.825 0.35 0  0.85 0.35 0  0.875 0.35 0  0.9 0.35 0  0.925 0.35 0  0.95 0.35 0  0.975 0.35 0  1 0.35 0  0 0.375 0  0.025 0.375 0  0.05 0.375 0  0.075 0.375 0  0.1 0.375 0  0.125 0.375 0  0.15 0.375 0  0.175 0.375 0  0.2 0.375 0  0.225 0.375 0  0.25 0.375 0  0.275 0.375 0  0.3 0.375 0  0.325 0.375 0  0.35 0.375 0  0.375 0.375 0  0.4 0.375 0  0.425 0.375 0  0.45 0.375 0  0.475 0.375 0  0.5 0.375 0  0.525 0.375 0  0.55 0.375 0  0.575 0.375 0  0.6 0.375 0  0.625 0.375 0  0.65 0.375 0  0.675 0.375 0  0.7 0.375 0  0.725 0.375 0  0.75 0.375 0  0.775 0.375 0  0.8 0.375 0  0.825 0.375 0  0.85 0.375 0  0.875 0.375 0  0.9 0.375 0  0.925 0.375 0  0.95 0.375 0  0.975 0.375 0  1 0.375 0  0 0.4 0  0.025 0.4 0  0.05 0.4 0  0.075 0.4 0  0.1 0.4 0  0.125 0.4 0  0.15 0.4 0  0.175 0.4 0  0.2 0.4 0  0.225 0.4 0  0.25 0.4 0  0.275 0.4 0  0.3 0.4 0  0.325 0.4 0  0.35 0.4 0  0.375 0.4 0  0.4 0.4 0  0.425 0.4 0  0.45 0.4 0  0.475 0.4 0  0.5 0.4 0  0.525 0.4 0  0.55 0.4 0  0.575 0.4 0  0.6 0.4 0  0.625 0.4 0  0.65 0.4 0  0.675 0.4 0  0.7 0.4 0  0.725 0.4 0  0.75 0.4 0  0.775 0.4 0  0.8 0.4 0  0.825 0.4 0  0.85 0.4 0  0.875 0.4 0  0.9 0.4 0  0.925 0.4 0  0.95 0.4 0  0.975 0.4 0  1 0.4 0  0 0.425 0  0.025 0.425 0  0.05 0.425 0  0.075 0.425 0  0.1 0.425 0  0.125 0.425 0  0.15 0.425 0  0.175 0.425 0  0.2 0.425 0  0.225 0.425 0  0.25 0.425 0  0.275 0.425 0  0.3 0.425 0  0.325 0.425 0  0.35 0.425 0  0.375 0.425 0  0.4 0.425 0  0.425 0.425 0  0.45 0.425 0  0.475 0.425 0  0.5 0.425 0  0.525 0.425 0  0.55 0.425 0  0.575 0.425 0  0.6 0.425 0  0.625 0.425 0  0.65 0.425 0  0.675 0.425 0  0.7 0.425 0  0.725 0.425 0  0.75 0.425 0  0.775 0.425 0  0.8 0.425 0  0.825 0.425 0  0.85 0.425 0  0.875 0.425 0  0.9 0.425 0  0.925 0.425 0  0.95 0.425 0  0.975 0.425 0  1 0.425 0  0 0.45 0  0.02
[...]
<PointData  Scalars="ControlVisualisation"> 
<DataArray  type="Float64"  Name="ControlVisualisation"  format="ascii">1.8000369803177274e-01  1.7996256456722229e-01  1.7996383103720046e-01  1.7996665024166369e-01  1.7997098604170964e-01  1.7997676875579396e-01  1.7998393487449024e-01  1.7999241716384082e-01  1.8000214386907842e-01  1.8001304108489155e-01  1.8002503647986143e-01  1.8003806256478019e-01  1.8005205945124658e-01  1.8006697694604148e-01  1.8008277583807961e-01  1.8009942823642591e-01  1.8011691677832883e-01  1.8013523245571497e-01  1.8015437069097506e-01  1.8017432511526116e-01  1.8019507824944400e-01  1.8021658794291504e-01  1.8023876797635444e-01  1.8026146068718915e-01  1.8028439888485603e-01  1.8030715385336729e-01  1.8032906628828357e-01  1.8034915845127555e-01  1.8036603027593281e-01  1.8037775270956474e-01  1.8038179298702192e-01  1.8037504258864026e-01  1.8035408223991126e-01  1.8031586141924827e-01  1.8025900931875213e-01  1.8018582374020223e-01  1.8010431090703505e-01  1.8002905082009663e-01  1.7997859417659973e-01  1.7996238517022614e-01  1.8004502322737140e-01  1.7996256457418106e-01  1.7984229052297609e-01  1.7985403049025775e-01  1.7987742905675999e-01  1.7991344711863552e-01  1.7996174174940696e-01  1.8002176444807941e-01  1.8009293697682394e-01  1.8017464148059278e-01  1.8026624190576609e-01  1.8036711270541911e-01  1.8047666560760103e-01  1.8059437291493619e-01  1.8071978544270972e-01  1.8085254395856210e-01  1.8099238298023432e-01  1.8113912555668807e-01  1.8129266716929995e-01  1.8145294604031206e-01  1.8161989583949004e-01  1.8179337492567149e-01  1.8197306372825786e-01  1.8215831857057455e-01  1.8234796618270882e-01  1.8254001868098937e-01  1.8273128496811913e-01  1.8291685392544901e-01  1.8308943304304767e-01  1.8323855413210247e-01  1.8334972615971254e-01  1.8340375404237080e-01  1.8337669708157958e-01  1.8324135656194779e-01  1.8297159199485796e-01  1.8255130592088206e-01  1.8198857956305425e-01  1.8133269336063160e-01  1.8068510078322975e-01  1.8017931936090584e-01  1.7989953555588040e-01  1.7996234351785725e-01  1.7996383679854455e-01  1.7985409367380475e-01  1.7988041393356183e-01  1.7992147053672192e-01  1.7998250668687138e-01  1.8006412774318131e-01  1.8016560801020590e-01  1.8028597531450216e-01  1.8042416141002277e-01  1.8057907055199168e-01  1.8074962599628880e-01  1.8093481546552687e-01  1.8113373082650397e-01  1.8134559906127545e-01  1.8156980268781028e-01  1.8180588777047132e-01  1.8205355746979468e-01  1.8231264838403799e-01  1.8258308567458886e-01  1.8286481101649446e-01  1.8315767460886598e-01  1.8346127863607012e-01  1.8377475453215650e-01  1.8409645015229317e-01  1.8442349589160811e-01  1.8475121227438973e-01  1.8507231897708679e-01  1.8537591413581442e-01  1.8564622796832275e-01  1.8586124439143739e-01  1.8599147154526791e-01  1.8599950601416138e-01  1.8584160844776637e-01  1.8547330456287042e-01  1.8486203755083230e-01  1.8400795814888243e-01  1.8297392337505500e-01  1.8190253839380865e-01  1.8096694863990778e-01  1.8020949403902772e-01  1.7997935608902002e-01  1.7996669779617022e-01  1.7987786921916299e-01  1.7992209411449167e-01  1.7997091876569032e-01  1.8003855469679914e-01  1.8012815742490579e-01  1.8023941112724498e-01  1.8037130419144107e-01  1.8052265167501086e-01  1.8069223004709412e-01  1.8087883943975433e-01  1.8108135748517362e-01  1.8129878425160045e-01  1.8153027789575010e-01  1.8177517912888330e-01  1.8203302285239553e-01  1.8230353523289386e-01  1.8258661389026298e-01  1.8288228774055335e-01  1.8319065123579570e-01  1.8351176513319328e-01  1.8384551233822680e-01  1.8419139263569242e-01  1.8454823417999686e-01  1.8491379269008162e-01  1.8528420234323689e-01  1.8565323792747557e-01  1.8601135161253041e-01  1.8634447135605808e-01  1.8663261402917361e-01  1.8684851131000427e-01  1.8695674412149602e-01  1.8691434822339664e-01  1.8667478220587952e-01  1.8619780923626447e-01  1.8546785718162917e-01  1.8452439695051870e-01  1.8346556076314022e-01  1.8236323425829712e-01  1.8094616775825620e-01  1.8004359788906824e-01  1.7997117669017493e-01  1.7991511492594631e-01  1.7998518718387610e-01  1.8004078279657471e-01  1.8011045842931869e-01  1.8020145454635353e-01  1.8031417310835338e-01  1.8044767618304070e-01  1.8060075013801519e-01  1.8077212607773832e-01  1.8096056349521952e-01  1.8116491032886722e-01  1.8138415161568772e-01  1.8161744847272140e-01  1.8186416601148134e-01  1.8212388930086865e-01  1.8239642640702838e-01  1.8268179718433630e-01  1.8298020568537932e-01  1.8329199272032626e-01  1.8361756314335981e-01  1.8395727976721118e-01  1.8431131229711056e-01  1.8467942527657871e-01  1.8506068387162572e-01  1.8545305095059728e-01  1.8585284487475107e-01  1.8625402812360781e-01  1.8664730947274763e-01  1.8701908064323416e-01  1.8735029531677433e-01  1.8761558237929940e-01  1.8778317860010701e-01  1.8781697932007033e-01  1.8768191484289820e-01  1.8735661981413282e-01  1.8684761868417293e-01  1.8616238583050090e-01  1.8509042940501430e-01  1.8249052903306490e-01  1.8018959774334076e-01  1.7997730449691565e-01  1.7996632900877807e-01  1.8007171203246694e-01  1.8013572304395539e-01  1.8020684224901437e-01  1.8029799390739720e-01  1.8041055256917207e-01  1.8054369354024608e-01  1.8069618368500720e-01  1.8086671775130389e-01  1.8105402577688534e-01  1.8125693931790285e-01  1.8147444425456397e-01  1.8170572315677508e-01  1.8195018695103618e-01  1.8220749588128407e-01  1.8247756980179777e-01  1.8276058779353005e-01  1.8305697669666998e-01  1.8336738742940434e-01  1.8369265690925443e-01  1.8403375201348854e-01  1.8439169034019912e-01  1.8476743066563955e-01  1.8516172420960811e-01  1.8557491674701684e-01  1.8600669257289892e-01  1.8645575695169267e-01  1.8691946917503297e-01  1.8739347263080694e-01  1.8787143849751228e-01  1.8834517652192684e-01  1.8880558635536884e-01  1.8924541478497550e-01  1.8966455768796817e-01  1.9008116358679630e-01  1.9052513510753985e-01  1.9094862521682629e-01  1.9044620138480625e-01  1.8558820119751654e-01  1.8045271067547580e-01  1.7998515444788127e-01  1.8003210915593321e-01  1.8018287794094670e-01  1.8025752979993462e-01  1.8033020477124376e-01  1.8042117027137594e-01  1.8053306022385840e-01  1.8066519850584306e-01  1.8081632925068825e-01  1.8098510731459017e-01  1.8117023259788834e-01  1.8137052315148419e-01  1.8158497203275281e-01  1.8181279293955233e-01  1.8205345562902883e-01  1.8230671200518181e-01  1.8257261410483708e-01  1.8285152546194239e-01  1.8314412738575708e-01  1.8345142166121015e-01  1.8377473117285781e-01  1.8411570014086789e-01  1.8447629630646337e-01  1.8485881896542014e-01  1.8526592000857908e-01  1.8570065149045548e-01  1.8616656523639674e-01  1.8666791220755546e-01  1.8721003037761894e-01  1.8780008499121575e-01  1.8844846799317580e-01  1.8917142770224585e-01  1.8999601702643695e-01  1.9096953928020236e-01  1.9217733806905346e-01  1.9377786142696438e-01  1.9604545082280234e-01  1.9932945537698202e-01  2.0231676025389900e-01  1.9502506747923251e-01  1.8130726486699766e-01  1.7999483387178747e-01  1.8011334209440050e-01  1.8032018158244992e-01  1.8040787329776795e-01  1.8048228408450104e-01  1.8057277413522860e-01  1.8068354614267174e-01  1.8081411362884969e-01  1.8096319848090542e-01  1.8112941364002552e-01  1.8131142952975801e-01  1.8150805485986399e-01  1.8171829704369544e-01  1.8194141057465571e-01  1.8217693560484319e-01  1.8242472861944548e-01  1.8268498770720992e-01  1.8295827544510943e-01  1.8324554292525980e-01  1.8354815912589867e-01  1.8386795091619626e-01  1.8420726086322384e-01  1.8456903326272706e-01  1.8495694440261293e-01  1.8537560262771016e-01  1.8583086018295228e-01  1.8633030724746605e-01  1.8688406863736221e-01  1.8750611366278222e-01  1.8821645571484996e-01  1.8904493851992393e-01  1.9003793111221778e-01  1.9127062418590957e-01  1.9287056235433084e-01  1.9506515738426736e-01  1.9828511863786016e-01  2.0338796094062137e-01  2.1205658154261109e-01  2.2548788361277272e-01  2.2858406532365425e-01  1.9007660122277847e-01  1.8000648680790388e-01  1.8021122099207507e-01  1.8048559931587935e-01  1.8058886001663449e-01  1.8066512867625203e-01  1.8075473499481262e-01  1.8086378536832276e-01  1.8099203420410054e-01  1.8113818896306388e-01  1.8130082452272314e-01  1.8147858802709879e-01  1.8167028782269073e-01  1.8187495662748265e-01  1.8209190159746980e-01  1.8232074488274802e-01  1.8256145769615409e-01  1.8281439165097260e-01  1.8308031186011656e-01  1.8336043718315614e-01  1.8365649430915648e-01  1.8397079447098802e-01  1.8430634508649046e-01  1.8466701443825012e-01  1.8505777717637273e-01  1.8548508461717431e-01  1.8595743125622033e-01  1.8648623632347969e-01  1.8708724310660232e-01  1.8778279159523520e-01  1.8860560860313097e-01  1.8960532685740153e-01  1.9086010767115880e-01  1.9249833861518803e-01  1.9474110211581586e-01  1.9799154984676204e-01  2.0303597724995348e-01  2.1152324042450746e-01  2.2707733378527878e-01  2.5602024787328570e-01  2.9300911472654567e-01  2.2941392435456134e-01  1.8002030230102473e-01  1.8032731457011164e-01  1.8068173138414417e-01  1.8080323937800735e-01  1.8088137307261568e-01  1.8096948771536875e-01  1.8107596417904501e-01  1.8120086138616256e-01  1.8134288977757990e-01  1.8150059932264193e-01  1.8167262874325055e-01  1.8185780242338218e-01  1.8205519505516188e-01  1.8226418180153159e-01  1.8248447914328109e-01  1.8271618061238498e-01  1.8295979233447895e-01  1.8321627415561539e-01  1.8348709327923599e-01  1.8377429911906298e-01  1.8408063100126065e-01  1.8440967518351767e-01  1.8476609562023255e-01  1.8515597604240394e-01  1.8558733282510625e-01  1.8607089525378595e-01  1.8662131420969585e-01  1.8725907513171108e-01  1.8801360260792119e-01  1.8892844845525769e-01  1.9007026081215714e-01  1.9154492177294535e-01  1.9352797711574371e-01  1.9632504802736084e-01  2.0050065364619557e-01  2.0716667779649317e-01  2.1868238976973928e-01  2.4030787503824258e-01  2.8268101540361246e-01  3.5224349617039397e-01  2.7976858578611602e-01  1.8003652784345039e-01  1.8046367396769092e-01  1.8091197274831766e-01  1.8105458762633908e-01  1.8113442290730056e-01  1.8122015367432015e-01  1.8132285625190941e-01  1.8144297617610605e-01  1.8157925871008448e-01  1.8173025571961271e-01  1.8189462471510587e-01  1.8207123286776614e-01  1.8225922123199204e-01  1.8245805294367107e-01  1.8266755234426515e-01  1.8288794036764255e-01  1.8311987209256120e-01  1.8336448319171064e-01  1.8362345325621501e-01  1.8389909602920557e-01  1.8419449002821087e-01  1.8451366873707437e-01  1.8486189889824803e-01  1.8524609079689494e-01  1.8567540994827655e-01  1.8616220279331830e-01  1.8672342390165583e-01  1.8738288584922666e-01  1.8817489958478323e-01  1.8915034562495714e-01  1.9038716055399654e-01  1.9200920535992164e-01  1.9422183085438413e-01  1.9738266977126612e-01  2.0215159304420091e-01  2.0982389005575969e-01  2.2313183702281020e-01  2.4799857866603228e-01  2.9613004541310989e-01  3.7623801756984265e-01  3.0525680503914915e-01  1.8005548785396408e-01  1.8062298195182058e-01  1.8118075397232905e-01  1.8134755451548498e-01  1.8142867936537158e-01  1.8151073347123861e-01  1.8160798047213414e-01  1.8172136285048074e-01  1.8184971445785436e-01  1.8199163576479435e-01  1.8214584757974259e-01  1.8231130041216073e-01  1.8248723579013026e-01  1.8267323021979692e-01  1.8286923060806018e-01  1.8307558745190491e-01  1.8329309235859079e-01  1.8352302712329008e-01  1.8376723277979268e-01  1.8402820914983359e-01  1.8430925903531586e-01  1.8461469719478138e-01  1.8495015402722803e-01  1.8532301983679544e-01  1.8574310185023107e-01  1.8622361033556642e-01  1.8678266619169376e-01  1.8744565698163859e-01  1.8824901458354729e-01  1.8924645471319074e-01  1.9051964216078654e-01  1.9219715707469284e-01  1.9448979451133344e-01  1.9775990282040154e-01  2.0266551665727231e-01  2.1047920563117956e-01  2.2383105970356934e-01  2.4817816862807671e-01  2.9298984079777773e-01  3.5556217276396751e-01  2.9227581080442250e-01  1.8007760963249711e-01  1.8080876287966827e-01  1.8149387875939632e-01  1.8168820248461132e-01  1.8176984003157881e-01  1.8184635695762816e-01  1.8193579597539847e-01  1.8203975012938448e-01  1.8215722913310814e-01  1.8228695770454567e-01  1.8242778811844315e-01  1.8257881232657416e-01  1.8273941768262886e-01  1.8290932474090180e-01  1.8308861770223825e-01  1.8327777440483697e-01  1.8347770259590560e-01  1.8368978962904861e-01  1.8391597375428287e-01  1.8415884715001218e-01  1.8442180431448171e-01  1.8470925516485873e-01  1.8502693144088894e-01  1.8538232989535819e-01  1.8578535994786138e-01  1.8624930350060476e-01  1.8679226233660767e-01  1.8743938619037578e-01  1.8822638526508823e-01  1.8920522115263197e-01  1.9045362067617366e-01  1.9209156374403494e-01  1.9431107854476873e-01  1.9743277113814911e-01  2.0201897820215833e-01  2.0911517450314954e-01  2.2076980775687108e-01  2.4095124379579747e-01  2.7459824659295989e-01  3.0222569262146931e-01  2.4826340438306357e-01  1.8010346039729175e-01  1.8102568135557576e-01  1.8185900162999358e-01  1.8208448162389698e-01  1.8216531236191200e-01  1.8223361731591739e-01  1.8231195294331823e-01  1.8240278314872910e-01  1.8250543159819219e-01  1.8261886424013021e-01  1.8274216422507489e-01  1.8287464389182220e-01  1.8301589295953569e-01  1.8316580973506247e-01  1.8332462713874814e-01  1.8349294034924801e-01  1.8367174229165073e-01  1.8386247338171274e-01  1.8406709278649280e-01  1.8428818021904983e-01  1.8452908036338916e-01  1.8479410703766747e-01  1.8508883213624736e-01  1.8542049688778706e-01  1.8579860281366953e-01  1.8623577177389478e-01  1.8674901709914649e-01  1.8736165624462950e-01  1.8810624777491139e-01  1.8902920528315323e-01  1.9019823313991732e-01  1.9171465867029452e-01  1.9373455962755151e-01  1.9650629065324310e-01  2.0043979075541471e-01  2.0623805891533808e-01  2.1512240109047032e-01  2.2894987668614272e-01  2.4715724709715398e-01  2.4555591015686201e-01  2.0236752265399457e-01  1.8013380116811026e-01  1.8127997501151008e-01  1.8228631542083618e-01  1.8254690415001584e-01  1.8262478808359872e-01  1.8268102081733584e-01  1.8274361575989845e-01  1.8281623112513323e-01  1.8289871887739753e-01  1.8299046072787331e-01  1.8309090914344725e-01  1.8319969764070054e-01  1.8331668235939000e-01  1.8344196983087530e-01  1.8357594274758401e-01  1.8371928932212844e-01  1.8387304110788708e-01  1.8403862435483337e-01  1.8421793077898421e-01  1.8441341516385149e-01  1.8462822977287757e-01  1.8486640956028205e-01  1.8513312830131981e-01  1.8543505511061084e-01  1.8578085514578499e-01  1.8618190048978897e-01  1.8665329202319877e-01  1.8721534843637014e-01  1.8789580759583310e-01  1.8873313037839015e-01  1.8978153455768851e-01  1.9111877551158921e-01  1.9285831434725126e-01  1.9516843534505540e-01  1.9830170987205273e-01  2.0263445714814035e-01  2.0867504995982078e-01  2.1669391784595143e-01  2.2367443087050853e-01  2.1278622315738938e-01  1.8527733503234581e-01  1.8016966697828637e-01  1.8158009557329044e-01  1.8278956093392568e-01  1.8308951883358138e-01  1.8316105150210779e-01  1.8319959589125653e-01  1.8323987688259999e-01  1.8328723075886491e-01  1.8334236484032537e-01  1.8340532799133497e-01  1.8347612458260748e-01  1.8355482693875366e-01  1.8364161828403416e-01  1.8373682737291286e-01  1.8384096435468628e-01  1.8395476074344955e-01  1.8407921623048168e-01  1.8421565577752988e-01  1.8436580144359316e-01  1.8453186479199446e-01  1.8471666771424611e-01  1.8492380238146722e-01  1.8515784519960068e-01  1.8542464568748471e-01  1.8573171996932161e-01  1.8608879129693928e-01  1.8650853838284823e-01  1.8700763848961499e-01  1.8760822841997191e-01  1.8833995349166133e-01  1.8924282629706660e-01  1.9037114531384713e-01  1.9179863135295297e-01  1.9362441082142354e-01  1.9597733415610327e-01  1.9900741556783699e-01  2.0281260872710782e-01  2.0703286172039367e-01  2.0889556440992763e-01  1.9893818572265193e-01  1.8229637077812649e-01  1.8021248944713086e-01  1.8193768311475694e-01  1.8338754529478848e-01  1.8373134718667319e-01  1.8379113283731482e-01  1.8380372131809289e-01  1.8381227998713681e-01  1.8382455663932876e-01  1.8384260348415557e-01  1.8386748335367573e-01  1.8389997492257903e-01  1.8394070562121762e-01  1.8399021885955832e-01  1.8404903855491869e-01  1.8411773494468600e-01  1.8419699043967178e-01  1.8428766601570262e-01  1.8439087049277603e-01  1.8450803649373801e-01  1.8464100811114811e-01  1.8479214663635443e-01  1.8496446237646305e-01  1.8516178283718321e-01  1.8538897060186812e-01  1.8565220828002529e-01  1.8595937301093554e-01  1.8632052892175310e-01  1.8674857146493282e-01  1.8726005923978584e-01  1.8787625791971493e-01  1.8862437602585402e-01  1.8953884360717657e-01  1.9066215563881617e-01  1.9204398457699945e-01  1.9373516290337098e-01  1.9576690690199350e-01  1.9808086631787816e-01  2.0025763811218644e-01  2.0040661880217711e-01  1.9271853820151030e-01  1.8156220290059150e-01  1.8026429005871636e-01  1.8236909171073903e-01  1.8410648828429463e-01  1.8449854844448849e-01  1.8453797770327851e-01  1.8451225330173526e-01  1.8447546432018028e-01  1.8443889084900833e-01  1.8440664322775360e-01  1.8438124656825172e-01  1.8436448766416944e-01  1.8435761971348391e-01  1.8436150497018844e-01  1.8437675262320904e-01  1.8440384718683947e-01  1.8444326237525624e-01  1.8449556064109132e-01  1.8456148192231997e-01  1.8464202679456884e-01  1.8473853992060990e-01  1.8485280002318025e-01  1.8498712292959935e-01  1.8514448470704845e-01  1.8532867252343932e-01  1.8554447143749275e-01  1.8579789532826940e-01  1.8609646848590766e-01  1.8644955863292684e-01  1.8686874751434254e-01  1.8736819207102676e-01  1.8796485876221930e-01  1.8867836968704269e-01  1.8952991388892931e-01  1.9053912038265722e-01  1.9171665577358854e-01  1.9304728339909405e-01  1.9444506133023420e-01  1.9558993653988224e-01  1.9519341265440798e-01  1.8929500443660649e-01  1.8111745065628074e-01  1.8032799601365079e-01  1.8289785852285298e-01  1.8498376450989701e-01  1.8542776589012125e-01  1.8543289714784897e-01  1.8535004996063953e-01  1.8524791765638213e-01  1.8514302464491908e-01  1.8504253261742376e-01  1.8495094218032726e-01  1.8487121152976305e-01  1.8480515218208027e-01  1.8475374634476788e-01  1.8471743008514768e-01  1.8469633056178270e-01  1.8469045434683831e-01  1.8469983301366982e-01  1.8472463594199584e-01  1.8476526074932920e-01  1.8482241073833386e-01  1.8489716732132885e-01  1.8499106400624335e-01  1.8510616729598880e-01  1.8524516861225931e-01  1.8541148972203120e-01  1.8560940141770918e-01  1.8584415013939540e-01  1.8612207764958660e-01  1.8645070098024019e-01  1.8683868721895858e-01  1.8729559982694918e-01  1.8783119445959315e-01  1.8845388282101880e-01  1.8916774020563734e-01  1.8996702899163637e-01  1.9082589307040021e-01  1.9167246188009004e-01  1.9227982772203658e-01  1.9172539406952913e-01  1.8706261882862474e-01  1.8083778020523350e-01  1.8040797350713983e-01  1.8355887723818040e-01  1.8607409531390015e-01  1.8657144017912158e-01  1.8651920485507570e-01  1.8634999200851651e-01  1.8615275822773056e-01  1.8595184758240266e-01  1.8575873837608189e-01  1.8558033517029113e-01  1.8542066920119918e-01  1.8528172990927963e-01  1.8516412713448652e-01  1.8506762203124558e-01  1.8499152606718774e-01  1.8493498537215342e-01  1.8489717639221512e-01  1.8487743828118625e-01  1.8487536312252562e-01  1.8489086001560809e-01  1.8492420456880948e-01  1.8497608171278465e-01  1.8504762682007650e-01  1.8514046751986929e-01  1.8525676581280953e-01  1.8539925642141236e-01  1.8557127175856089e-01  1.8577673498765457e-01  1.8602008823212715e-01  1.8630610012618529e-01  1.8663946220206537e-01  1.8702403491509351e-01  1.8746154496572676e-01  1.8794947753503438e-01  1.8847781426422852e-01  1.8902347265016423e-01  1.8953439883762427e-01  1.8984910933372851e-01  1.8927220187542210e-01  1.8552461244183083e-01  1.8064811950259460e-01  1.8051100424701719e-01  1.8440582956678397e-01  1.8746019377152848e-01  1.8800651018960496e-01  1.8785764479100997e-01  1.8755552638820705e-01  1.8721830351585042e-01  1.8688183357456836e-01  1.865632053