<?xml version="1.0"?>
<VTKFile type="UnstructuredGrid"  version="0.1"  >
<UnstructuredGrid>
<Piece  NumberOfPoints="1681" NumberOfCells="3200">
<Points>
<DataArray  type="Float64"  NumberOfComponents="3"  format="ascii">0 0 0  0.025 0 0  0.05 0 0  0.075 0 0  0.1 0 0  0.125 0 0  0.15 0 0  0.175 0 0  0.2 0 0  0.225 0 0  0.25 0 0  0.275 0 0  0.3 0 0  0.325 0 0  0.35 0 0  0.375 0 0  0.4 0 0  0.425 0 0  0.45 0 0  0.475 0 0  0.5 0 0  0.525 0 0  0.55 0 0  0.575 0 0  0.6 0 0  0.625 0 0  0.65 0 0  0.675 0 0  0.7 0 0  0.725 0 0  0.75 0 0  0.775 0 0  0.8 0 0  0.825 0 0  0.85 0 0  0.875 0 0  0.9 0 0  0.925 0 0  0.95 0 0  0.975 0 0  1 0 0  0 0.025 0  0.025 0.025 0  0.05 0.025 0  0.075 0.025 0  0.1 0.025 0  0.125 0.025 0  0.15 0.025 0  0.175 0.025 0  0.2 0.025 0  0.225 0.025 0  0.25 0.025 0  0.275 0.025 0  0.3 0.025 0  0.325 0.025 0  0.35 0.025 0  0.375 0.025 0  0.4 0.025 0  0.425 0.025 0  0.45 0.025 0  0.475 0.025 0  0.5 0.025 0  0.525 0.025 0  0.55 0.025 0  0.575 0.025 0  0.6 0.025 0  0.625 0.025 0  0.65 0.025 0  0.675 0.025 0  0.7 0.025 0  0.725 0.025 0  0.75 0.025 0  0.775 0.025 0  0.8 0.025 0  0.825 0.025 0  0.85 0.025 0  0.875 0.025 0  0.9 0.025 0  0.925 0.025 0  0.95 0.025 0  0.975 0.025 0  1 0.025 0  0 0.05 0  0.025 0.05 0  0.05 0.05 0  0.075 0.05 0  0.1 0.05 0  0.125 0.05 0  0.15 0.05 0  0.175 0.05 0  0.2 0.05 0  0.225 0.05 0  0.25 0.05 0  0.275 0.05 0  0.3 0.05 0  0.325 0.05 0  0.35 0.05 0  0.375 0.05 0  0.4 0.05 0  0.425 0.05 0  0.45 0.05 0  0.475 0.05 0  0.5 0.05 0  0.525 0.05 0  0.55 0.05 0  0.575 0.05 0  0.6 0.05 0  0.625 0.05 0  0.65 0.05 0  0.675 0.05 0  0.7 0.05 0  0.725 0.05 0  0.75 0.05 0  0.775 0.05 0  0.8 0.05 0  0.825 0.05 0  0.85 0.05 0  0.875 0.05 0  0.9 0.05 0  0.925 0.05 0  0.95 0.05 0  0.975 0.05 0  1 0.05 0  0 0.075 0  0.025 0.075 0  0.05 0.075 0  0.075 0.075 0  0.1 0.075 0  0.125 0.075 0  0.15 0.075 0  0.175 0.075 0  0.2 0.075 0  0.225 0.075 0  0.25 0.075 0  0.275 0.075 0  0.3 0.075 0  0.325 0.075 0  0.35 0.075 0  0.375 0.075 0  0.4 0.075 0  0.425 0.075 0  0.45 0.075 0  0.475 0.075 0  0.5 0.075 0  0.525 0.075 0  0.55 0.075 0  0.575 0.075 0  0.6 0.075 0  0.625 0.075 0  0.65 0.075 0  0.675 0.075 0  0.7 0.075 0  0.725 0.075 0  0.75 0.075 0  0.775 0.075 0  0.8 0.075 0  0.825 0.075 0  0.85 0.075 0  0.875 0.075 0  0.9 0.075 0  0.925 0.075 0  0.95 0.075 0  0.975 0.075 0  1 0.075 0  0 0.1 0  0.025 0.1 0  0.05 0.1 0  0.075 0.1 0  0.1 0.1 0  0.125 0.1 0  0.15 0.1 0  0.175 0.1 0  0.2 0.1 0  0.225 0.1 0  0.25 0.1 0  0.275 0.1 0  0.3 0.1 0  0.325 0.1 0  0.35 0.1 0  0.375 0.1 0  0.4 0.1 0  0.425 0.1 0  0.45 0.1 0  0.475 0.1 0  0.5 0.1 0  0.525 0.1 0  0.55 0.1 0  0.575 0.1 0  0.6 0.1 0  0.625 0.1 0  0.65 0.1 0  0.675 0.1 0  0.7 0.1 0  0.725 0.1 0  0.75 0.1 0  0.775 0.1 0  0.8 0.1 0  0.825 0.1 0  0.85 0.1 0  0.875 0.1 0  0.9 0.1 0  0.925 0.1 0  0.95 0.1 0  0.975 0.1 0  1 0.1 0  0 0.125 0  0.025 0.125 0  0.05 0.125 0  0.075 0.125 0  0.1 0.125 0  0.125 0.125 0  0.15 0.125 0  0.175 0.125 0  0.2 0.125 0  0.225 0.125 0  0.25 0.125 0  0.275 0.125 0  0.3 0.125 0  0.325 0.125 0  0.35 0.125 0  0.375 0.125 0  0.4 0.125 0  0.425 0.125 0  0.45 0.125 0  0.475 0.125 0  0.5 0.125 0  0.525 0.125 0  0.55 0.125 0  0.575 0.125 0  0.6 0.125 0  0.625 0.125 0  0.65 0.125 0  0.675 0.125 0  0.7 0.125 0  0.725 0.125 0  0.75 0.125 0  0.775 0.125 0  0.8 0.125 0  0.825 0.125 0  0.85 0.125 0  0.875 0.125 0  0.9 0.125 0  0.925 0.125 0  0.95 0.125 0  0.975 0.125 0  1 0.125 0  0 0.15 0  0.025 0.15 0  0.05 0.15 0  0.075 0.15 0  0.1 0.15 0  0.125 0.15 0  0.15 0.15 0  0.175 0.15 0  0.2 0.15 0  0.225 0.15 0  0.25 0.15 0  0.275 0.15 0  0.3 0.15 0  0.325 0.15 0  0.35 0.15 0  0.375 0.15 0  0.4 0.15 0  0.425 0.15 0  0.45 0.15 0  0.475 0.15 0  0.5 0.15 0  0.525 0.15 0  0.55 0.15 0  0.575 0.15 0  0.6 0.15 0  0.625 0.15 0  0.65 0.15 0  0.675 0.15 0  0.7 0.15 0  0.725 0.15 0  0.75 0.15 0  0.775 0.15 0  0.8 0.15 0  0.825 0.15 0  0.85 0.15 0  0.875 0.15 0  0.9 0.15 0  0.925 0.15 0  0.95 0.15 0  0.975 0.15 0  1 0.15 0  0 0.175 0  0.025 0.175 0  0.05 0.175 0  0.075 0.175 0  0.1 0.175 0  0.125 0.175 0  0.15 0.175 0  0.175 0.175 0  0.2 0.175 0  0.225 0.175 0  0.25 0.175 0  0.275 0.175 0  0.3 0.175 0  0.325 0.175 0  0.35 0.175 0  0.375 0.175 0  0.4 0.175 0  0.425 0.175 0  0.45 0.175 0  0.475 0.175 0  0.5 0.175 0  0.525 0.175 0  0.55 0.175 0  0.575 0.175 0  0.6 0.175 0  0.625 0.175 0  0.65 0.175 0  0.675 0.175 0  0.7 0.175 0  0.725 0.175 0  0.75 0.175 0  0.775 0.175 0  0.8 0.175 0  0.825 0.175 0  0.85 0.175 0  0.875 0.175 0  0.9 0.175 0  0.925 0.175 0  0.95 0.175 0  0.975 0.175 0  1 0.175 0  0 0.2 0  0.025 0.2 0  0.05 0.2 0  0.075 0.2 0  0.1 0.2 0  0.125 0.2 0  0.15 0.2 0  0.175 0.2 0  0.2 0.2 0  0.225 0.2 0  0.25 0.2 0  0.275 0.2 0  0.3 0.2 0  0.325 0.2 0  0.35 0.2 0  0.375 0.2 0  0.4 0.2 0  0.425 0.2 0  0.45 0.2 0  0.475 0.2 0  0.5 0.2 0  0.525 0.2 0  0.55 0.2 0  0.575 0.2 0  0.6 0.2 0  0.625 0.2 0  0.65 0.2 0  0.675 0.2 0  0.7 0.2 0  0.725 0.2 0  0.75 0.2 0  0.775 0.2 0  0.8 0.2 0  0.825 0.2 0  0.85 0.2 0  0.875 0.2 0  0.9 0.2 0  0.925 0.2 0  0.95 0.2 0  0.975 0.2 0  1 0.2 0  0 0.225 0  0.025 0.225 0  0.05 0.225 0  0.075 0.225 0  0.1 0.225 0  0.125 0.225 0  0.15 0.225 0  0.175 0.225 0  0.2 0.225 0  0.225 0.225 0  0.25 0.225 0  0.275 0.225 0  0.3 0.225 0  0.325 0.225 0  0.35 0.225 0  0.375 0.225 0  0.4 0.225 0  0.425 0.225 0  0.45 0.225 0  0.475 0.225 0  0.5 0.225 0  0.525 0.225 0  0.55 0.225 0  0.575 0.225 0  0.6 0.225 0  0.625 0.225 0  0.65 0.225 0  0.675 0.225 0  0.7 0.225 0  0.725 0.225 0  0.75 0.225 0  0.775 0.225 0  0.8 0.225 0  0.825 0.225 0  0.85 0.225 0  0.875 0.225 0  0.9 0.225 0  0.925 0.225 0  0.95 0.225 0  0.975 0.225 0  1 0.225 0  0 0.25 0  0.025 0.25 0  0.05 0.25 0  0.075 0.25 0  0.1 0.25 0  0.125 0.25 0  0.15 0.25 0  0.175 0.25 0  0.2 0.25 0  0.225 0.25 0  0.25 0.25 0  0.275 0.25 0  0.3 0.25 0  0.325 0.25 0  0.35 0.25 0  0.375 0.25 0  0.4 0.25 0  0.425 0.25 0  0.45 0.25 0  0.475 0.25 0  0.5 0.25 0  0.525 0.25 0  0.55 0.25 0  0.575 0.25 0  0.6 0.25 0  0.625 0.25 0  0.65 0.25 0  0.675 0.25 0  0.7 0.25 0  0.725 0.25 0  0.75 0.25 0  0.775 0.25 0  0.8 0.25 0  0.825 0.25 0  0.85 0.25 0  0.875 0.25 0  0.9 0.25 0  0.925 0.25 0  0.95 0.25 0  0.975 0.25 0  1 0.25 0  0 0.275 0  0.025 0.275 0  0.05 0.275 0  0.075 0.275 0  0.1 0.275 0  0.125 0.275 0  0.15 0.275 0  0.175 0.275 0  0.2 0.275 0  0.225 0.275 0  0.25 0.275 0  0.275 0.275 0  0.3 0.275 0  0.325 0.275 0  0.35 0.275 0  0.375 0.275 0  0.4 0.275 0  0.425 0.275 0  0.45 0.275 0  0.475 0.275 0  0.5 0.275 0  0.525 0.275 0  0.55 0.275 0  0.575 0.275 0  0.6 0.275 0  0.625 0.275 0  0.65 0.275 0  0.675 0.275 0  0.7 0.275 0  0.725 0.275 0  0.75 0.275 0  0.775 0.275 0  0.8 0.275 0  0.825 0.275 0  0.85 0.275 0  0.875 0.275 0  0.9 0.275 0  0.925 0.275 0  0.95 0.275 0  0.975 0.275 0  1 0.275 0  0 0.3 0  0.025 0.3 0  0.05 0.3 0  0.075 0.3 0  0.1 0.3 0  0.125 0.3 0  0.15 0.3 0  0.175 0.3 0  0.2 0.3 0  0.225 0.3 0  0.25 0.3 0  0.275 0.3 0  0.3 0.3 0  0.325 0.3 0  0.35 0.3 0  0.375 0.3 0  0.4 0.3 0  0.425 0.3 0  0.45 0.3 0  0.475 0.3 0  0.5 0.3 0  0.525 0.3 0  0.55 0.3 0  0.575 0.3 0  0.6 0.3 0  0.625 0.3 0  0.65 0.3 0  0.675 0.3 0  0.7 0.3 0  0.725 0.3 0  0.75 0.3 0  0.775 0.3 0  0.8 0.3 0  0.825 0.3 0  0.85 0.3 0  0.875 0.3 0  0.9 0.3 0  0.925 0.3 0  0.95 0.3 0  0.975 0.3 0  1 0.3 0  0 0.325 0  0.025 0.325 0  0.05 0.325 0  0.075 0.325 0  0.1 0.325 0  0.125 0.325 0  0.15 0.325 0  0.175 0.325 0  0.2 0.325 0  0.225 0.325 0  0.25 0.325 0  0.275 0.325 0  0.3 0.325 0  0.325 0.325 0  0.35 0.325 0  0.375 0.325 0  0.4 0.325 0  0.425 0.325 0  0.45 0.325 0  0.475 0.325 0  0.5 0.325 0  0.525 0.325 0  0.55 0.325 0  0.575 0.325 0  0.6 0.325 0  0.625 0.325 0  0.65 0.325 0  0.675 0.325 0  0.7 0.325 0  0.725 0.325 0  0.75 0.325 0  0.775 0.325 0  0.8 0.325 0  0.825 0.325 0  0.85 0.325 0  0.875 0.325 0  0.9 0.325 0  0.925 0.325 0  0.95 0.325 0  0.975 0.325 0  1 0.325 0  0 0.35 0  0.025 0.35 0  0.05 0.35 0  0.075 0.35 0  0.1 0.35 0  0.125 0.35 0  0.15 0.35 0  0.175 0.35 0  0.2 0.35 0  0.225 0.35 0  0.25 0.35 0  0.275 0.35 0  0.3 0.35 0  0.325 0.35 0  0.35 0.35 0  0.375 0.35 0  0.4 0.35 0  0.425 0.35 0  0.45 0.35 0  0.475 0.35 0  0.5 0.35 0  0.525 0.35 0  0.55 0.35 0  0.575 0.35 0  0.6 0.35 0  0.625 0.35 0  0.65 0.35 0  0.675 0.35 0  0.7 0.35 0  0.725 0.35 0  0.75 0.35 0  0.775 0.35 0  0.8 0.35 0  0.825 0.35 0  0.85 0.35 0  0.875 0.35 0  0.9 0.35 0  0.925 0.35 0  0.95 0.35 0  0.975 0.35 0  1 0.35 0  0 0.375 0  0.025 0.375 0  0.05 0.375 0  0.075 0.375 0  0.1 0.375 0  0.125 0.375 0  0.15 0.375 0  0.175 0.375 0  0.2 0.375 0  0.225 0.375 0  0.25 0.375 0  0.275 0.375 0  0.3 0.375 0  0.325 0.375 0  0.35 0.375 0  0.375 0.375 0  0.4 0.375 0  0.425 0.375 0  0.45 0.375 0  0.475 0.375 0  0.5 0.375 0  0.525 0.375 0  0.55 0.375 0  0.575 0.375 0  0.6 0.375 0  0.625 0.375 0  0.65 0.375 0  0.675 0.375 0  0.7 0.375 0  0.725 0.375 0  0.75 0.375 0  0.775 0.375 0  0.8 0.375 0  0.825 0.375 0  0.85 0.375 0  0.875 0.375 0  0.9 0.375 0  0.925 0.375 0  0.95 0.375 0  0.975 0.375 0  1 0.375 0  0 0.4 0  0.025 0.4 0  0.05 0.4 0  0.075 0.4 0  0.1 0.4 0  0.125 0.4 0  0.15 0.4 0  0.175 0.4 0  0.2 0.4 0  0.225 0.4 0  0.25 0.4 0  0.275 0.4 0  0.3 0.4 0  0.325 0.4 0  0.35 0.4 0  0.375 0.4 0  0.4 0.4 0  0.425 0.4 0  0.45 0.4 0  0.475 0.4 0  0.5 0.4 0  0.525 0.4 0  0.55 0.4 0  0.575 0.4 0  0.6 0.4 0  0.625 0.4 0  0.65 0.4 0  0.675 0.4 0  0.7 0.4 0  0.725 0.4 0  0.75 0.4 0  0.775 0.4 0  0.8 0.4 0  0.825 0.4 0  0.85 0.4 0  0.875 0.4 0  0.9 0.4 0  0.925 0.4 0  0.95 0.4 0  0.975 0.4 0  1 0.4 0  0 0.425 0  0.025 0.425 0  0.05 0.425 0  0.075 0.425 0  0.1 0.425 0  0.125 0.425 0  0.15 0.425 0  0.175 0.425 0  0.2 0.425 0  0.225 0.425 0  0.25 0.425 0  0.275 0.425 0  0.3 0.425 0  0.325 0.425 0  0.35 0.425 0  0.375 0.425 0  0.4 0.425 0  0.425 0.425 0  0.45 0.425 0  0.475 0.425 0  0.5 0.425 0  0.525 0.425 0  0.55 0.425 0  0.575 0.425 0  0.6 0.425 0  0.625 0.425 0  0.65 0.425 0  0.675 0.425 0  0.7 0.425 0  0.725 0.425 0  0.75 0.425 0  0.775 0.425 0  0.8 0.425 0  0.825 0.425 0  0.85 0.425 0  0.875 0.425 0  0.9 0.425 0  0.925 0.425 0  0.95 0.425 0  0.975 0.425 0  1 0.425 0  0 0.45 0  0.02
[...]
<PointData  Scalars="ControlVisualisation"> 
<DataArray  type="Float64"  Name="ControlVisualisation"  format="ascii">1.7551653600304948e-01  1.2745915283990203e-01  1.2782992471629809e-01  1.2849058270555011e-01  1.2935928598641488e-01  1.3033809684129577e-01  1.3133467108906627e-01  1.3228222317407687e-01  1.3314257320304176e-01  1.3389993059730659e-01  1.3455344954611598e-01  1.3511128230905226e-01  1.3558592811739031e-01  1.3599049405928582e-01  1.3633603664640501e-01  1.3663020696992967e-01  1.3687710984627305e-01  1.3707798901411936e-01  1.3723224950234802e-01  1.3733841965727600e-01  1.3739483763892738e-01  1.3740001188891524e-01  1.3735269468262123e-01  1.3725172420170195e-01  1.3709567056827071e-01  1.3688231051236571e-01  1.3660798730548115e-01  1.3626699301366973e-01  1.3585119727807199e-01  1.3535018272310409e-01  1.3475209205711236e-01  1.3404535205871132e-01  1.3322175471583619e-01  1.3228160632546943e-01  1.3124277293056241e-01  1.3015289131909707e-01  1.2910012461824549e-01  1.2820706225251152e-01  1.2760387346815494e-01  1.2736761562543875e-01  2.7653471929390783e-01  1.2745887053921137e-01  6.9459852602331520e-02  7.0402832233505200e-02  7.2073649915097973e-02  7.4413392933643949e-02  7.7238532358087503e-02  8.0328615669357895e-02  8.3480508448026874e-02  8.6535642954791353e-02  8.9387103602030019e-02  9.1975029630228591e-02  9.4277726331383413e-02  9.6300717261958033e-02  9.8064903543295473e-02  9.9595555335749861e-02  1.0091394759361225e-01  1.0203280619163041e-01  1.0295558533180373e-01  1.0367850523895041e-01  1.0419379260950286e-01  1.0449276986161464e-01  1.0456799211816632e-01  1.0441414700975621e-01  1.0402773657169720e-01  1.0340570295851442e-01  1.0254330124654060e-01  1.0143178282740165e-01  1.0005678197244378e-01  9.8398426104395406e-02  9.6433897048432776e-02  9.4142544185970331e-02  9.1513458393806979e-02  8.8555849313327495e-02  8.5312663568290717e-02  8.1879086341794596e-02  7.8419200239977407e-02  7.5174849524006451e-02  7.2440233042295910e-02  7.0493456916482677e-02  6.9362060208014636e-02  1.2736738508678974e-01  1.2783086000912225e-01  7.0435034877401229e-02  7.2180908819082179e-02  7.4799341390180310e-02  7.8557411330337126e-02  8.3252141389103723e-02  8.8582504455101699e-02  9.4232053661898393e-02  9.9921175543369115e-02  1.0543495098482943e-01  1.1063265794277757e-01  1.1544035205189648e-01  1.1982852802102059e-01  1.2378716379702927e-01  1.2731016446030091e-01  1.3038992679916106e-01  1.3301602828416870e-01  1.3517453150432729e-01  1.3684833766850754e-01  1.3801944405081276e-01  1.3867244448747554e-01  1.3879772960591860e-01  1.3839307625653829e-01  1.3746296895765739e-01  1.3601558001903463e-01  1.3405790517992291e-01  1.3159035426377136e-01  1.2860306059826140e-01  1.2507655591531150e-01  1.2098844894465599e-01  1.1632544595724090e-01  1.1109899546370046e-01  1.0536353563246655e-01  9.9238321494569903e-02  9.2931589112391938e-02  8.6749931917471088e-02  8.1099556643860177e-02  7.6416458225468512e-02  7.3051371802234102e-02  7.0544592300082504e-02  1.2760705844654210e-01  1.2852469792266599e-01  7.2324246764891686e-02  7.5227437806809197e-02  7.8586999567354279e-02  8.3226024627674117e-02  8.8909916646791251e-02  9.5285329839607788e-02  1.0201184074902341e-01  1.0880532611416810e-01  1.1546061102553208e-01  1.2184959208215271e-01  1.2788056637271034e-01  1.3346255501785936e-01  1.3851103074054424e-01  1.4296836314058090e-01  1.4680642827059082e-01  1.5001298704060628e-01  1.5257823037929694e-01  1.5449008853047183e-01  1.5573685634956089e-01  1.5631232922185420e-01  1.5621993640160928e-01  1.5547451530711079e-01  1.5410160426045838e-01  1.5213430971231340e-01  1.4960751710549594e-01  1.4654936957251666e-01  1.4297144546823373e-01  1.3886179609879587e-01  1.3418688464430015e-01  1.2890580274528349e-01  1.2299408914696165e-01  1.1646932270487771e-01  1.0941836502099386e-01  1.0202790637961594e-01  9.4617755568128181e-02  8.7669220025170330e-02  8.1712677793105523e-02  7.7229008136551522e-02  7.2857402426628998e-02  1.2826484567426266e-01  1.2946743593898921e-01  7.5291729667737242e-02  8.0996027379935817e-02  8.6015006310537087e-02  9.2202498924390197e-02  9.9283294940384043e-02  1.0687655366296574e-01  1.1467990285876453e-01  1.2251123875277156e-01  1.3016254192463045e-01  1.3732970494198776e-01  1.4378347550284104e-01  1.4948100600034939e-01  1.5447862116188893e-01  1.5881865476334378e-01  1.6249669193489066e-01  1.6548201364348053e-01  1.6774482473515157e-01  1.6927166044610917e-01  1.7006905898125338e-01  1.7016058476617346e-01  1.6958157022364861e-01  1.6837430369835923e-01  1.6658516541050114e-01  1.6426413475344723e-01  1.6146551730853315e-01  1.5824659968753729e-01  1.5465955088958558e-01  1.5073392792906559e-01  1.4645469451544108e-01  1.4174977533983935e-01  1.3650316842306648e-01  1.3059115719480549e-01  1.2392415015552438e-01  1.1647831331445412e-01  1.0838611799456110e-01  1.0006016916646683e-01  9.2162603381021460e-02  8.5518891451526913e-02  7.7117490096588373e-02  1.2942583297024654e-01  1.3014552051541264e-01  8.1081776812309492e-02  9.3484199590020189e-02  1.0242919987109053e-01  1.1072294347147979e-01  1.1887431943202052e-01  1.2766579923619134e-01  1.3717325478616046e-01  1.4607994203295679e-01  1.5317164480917020e-01  1.5857897773137036e-01  1.6314135819783210e-01  1.6741352698617462e-01  1.7144376760483473e-01  1.7502013329461852e-01  1.7791318066258377e-01  1.7998646779163185e-01  1.8121150620545456e-01  1.8164067769559891e-01  1.8137110531497191e-01  1.8051394483983516e-01  1.7917301392987420e-01  1.7743236809996016e-01  1.7535182329677096e-01  1.7297020430781429e-01  1.7031613975571933e-01  1.6742366708156006e-01  1.6434428361105680e-01  1.6114195411562973e-01  1.5786127621095991e-01  1.5447760491781354e-01  1.5086515612841012e-01  1.4681470775965125e-01  1.4209129599524717e-01  1.3645059182142719e-01  1.2967003806037311e-01  1.2159599022661867e-01  1.1230551091948289e-01  1.0213678422482214e-01  8.4515382021246976e-02  1.3095865909188933e-01  1.3997047890713030e-01  1.0037635955262865e-01  1.3070646014143830e-01  1.4230308219825211e-01  1.4935242009443966e-01  1.5681351861394510e-01  1.6471330775080040e-01  1.7154615696956466e-01  1.7641946639932671e-01  1.7970217320610588e-01  1.8234262080440489e-01  1.8500134974472213e-01  1.8773172322837262e-01  1.9020278538533450e-01  1.9203116617555335e-01  1.9297282736437127e-01  1.9297075250221335e-01  1.9212120812187916e-01  1.9061087794932707e-01  1.8865672391956015e-01  1.8646267644659650e-01  1.8419460238108798e-01  1.8196895873395749e-01  1.7985033884472632e-01  1.7785640715402412e-01  1.7597273735985844e-01  1.7418098854865621e-01  1.7249646749480313e-01  1.7099391852229412e-01  1.6978653560391893e-01  1.6894199619344344e-01  1.6837609134751033e-01  1.6779081654258018e-01  1.6670456147054277e-01  1.6453907593924788e-01  1.6096286209985022e-01  1.5584288862380727e-01  1.4873544764673918e-01  1.3783293998705132e-01  1.0431274098106298e-01  1.3498618490575012e-01  2.9703602357136361e-01  2.3718793747387634e-01  3.0334619802852930e-01  2.8989746553608936e-01  2.6300793236136200e-01  2.3964071266808096e-01  2.2717039677762768e-01  2.2257240307139711e-01  2.2102233830303278e-01  2.1977288887377155e-01  2.1815229518072238e-01  2.1630463299462988e-01  2.1436607859677426e-01  2.1226521740017568e-01  2.0982175714800186e-01  2.0689317308966695e-01  2.0346319911414085e-01  1.9965122342911132e-01  1.9566595357365688e-01  1.9174304628630648e-01  1.8809676920671245e-01  1.8489472230987697e-01  1.8224953286958351e-01  1.8021764551897093e-01  1.7879986483974614e-01  1.7794810417095341e-01  1.7759503731247181e-01  1.7772594926192450e-01  1.7847926600692668e-01  1.8020042459028252e-01  1.8337746239585137e-01  1.8848910797147389e-01  1.9579081270078560e-01  2.0482065489038248e-01  2.1356787236434902e-01  2.1978635198662355e-01  2.2338872547888411e-01  2.2521470184283868e-01  2.2045646505648439e-01  1.8033117195844048e-01  1.7218819551517117e-01  7.7112227964979629e-01  7.5923727029854671e-01  6.8553907310808104e-01  5.8328540558837050e-01  5.0418053850739020e-01  4.3128716712182774e-01  3.6980363288865670e-01  3.2858123032920383e-01  3.0237582061338825e-01  2.8347056183011138e-01  2.6798711882005738e-01  2.5476839183313427e-01  2.4350981255461066e-01  2.3391945555547597e-01  2.2557609628385636e-01  2.1804240709540312e-01  2.1100718973921542e-01  2.0435425515613351e-01  1.9813581512688327e-01  1.9249285698881213e-01  1.8758007102196914e-01  1.8352335833079855e-01  1.8040512274136769e-01  1.7825936005969895e-01  1.7706247335360795e-01  1.7672230049041462e-01  1.7709969438093265e-01  1.7812519837791679e-01  1.8001799943609542e-01  1.8345926361506298e-01  1.8958067299208811e-01  1.9991241797327375e-01  2.1639152352222649e-01  2.4034571698386120e-01  2.6842986656078499e-01  2.9347163415238486e-01  3.1716494124020433e-01  3.4783968185937741e-01  3.7858572457441458e-01  4.1084753866313733e-01  3.9208987053778599e-01  8.6388864357174000e-01  8.9643176063255470e-01  8.5457910302155471e-01  7.6155432186996308e-01  6.3041436903884063e-01  5.3561207529045896e-01  4.7301203727383001e-01  4.2228641814268880e-01  3.7940759967598464e-01  3.4267989885690536e-01  3.1166022559224260e-01  2.8622115771617024e-01  2.6590093085819905e-01  2.4985344175659843e-01  2.3703213582515384e-01  2.2639648197289444e-01  2.1711023100302676e-01  2.0867876154845777e-01  2.0094921061533380e-01  1.9398812847644781e-01  1.8793530129524813e-01  1.8291040108831458e-01  1.7897934065983734e-01  1.7614914424177947e-01  1.7436327531419799e-01  1.7349569053549391e-01  1.7338610221670100e-01  1.7399330883571132e-01  1.7566199846465108e-01  1.7930382499954597e-01  1.8637737924636524e-01  1.9900126018010036e-01  2.2045673496730939e-01  2.5423109068686534e-01  2.9560733141425449e-01  3.2945055526763134e-01  3.6235697394258631e-01  4.1244514648232528e-01  4.8004228916664726e-01  5.7979312654897475e-01  5.8794060988686214e-01  8.8267113659120788e-01  9.2971548959664840e-01  9.5621033047660409e-01  9.3568918342286889e-01  7.3514354880855781e-01  5.9362444754509214e-01  5.1173857167225223e-01  4.5909045121747183e-01  4.1365265479323382e-01  3.7190628312007656e-01  3.3611714657539404e-01  3.0668818191728159e-01  2.8292903127338154e-01  2.6409293231107073e-01  2.4917433480041862e-01  2.3690691859350727e-01  2.2610548936591240e-01  2.1602643903934193e-01  2.0647816138912528e-01  1.9763742925719474e-01  1.8977248025215468e-01  1.8307052635982790e-01  1.7759943794888211e-01  1.7333557865690824e-01  1.7020017079419075e-01  1.6809148460397483e-01  1.6693795148310381e-01  1.6681025594314308e-01  1.6808184575445539e-01  1.7154061017673958e-01  1.7843197649582046e-01  1.9071249171360122e-01  2.1178459442650022e-01  2.4620524006702371e-01  2.9084035333577096e-01  3.2656718520382261e-01  3.6038411578319346e-01  4.1507404769109862e-01  4.9715951875479170e-01  6.2154797273953888e-01  6.3737020251014265e-01  8.5290769101223485e-01  9.0482015118834469e-01  8.9452823429168782e-01  8.9571666547773332e-01  7.8144699794965389e-01  6.3448613693906564e-01  5.4384314977208237e-01  4.8565997596439670e-01  4.3370456243513689e-01  3.8635224106015503e-01  3.5069119876906946e-01  3.2558891030053122e-01  3.0510841600347005e-01  2.8622604293098808e-01  2.6881933223643506e-01  2.5289962715392983e-01  2.3801372050462849e-01  2.2386150806084859e-01  2.1060910018566986e-01  1.9866531995721556e-01  1.8834792576735940e-01  1.7975287325529155e-01  1.7280538994845349e-01  1.6735801900729416e-01  1.6326224830800212e-01  1.6040909036390716e-01  1.5876025410939154e-01  1.5839000818011023e-01  1.5954170199275128e-01  1.6268710943983689e-01  1.6860783738268378e-01  1.7862579598332096e-01  1.9513353737842490e-01  2.2181484388790626e-01  2.5953184081689706e-01  2.9681583731565031e-01  3.3042234254234604e-01  3.7780514088893818e-01  4.5799968210372549e-01  5.5943225654362949e-01  5.9390063409526495e-01  7.2869489065412829e-01  8.1300405862044067e-01  7.9403423209260682e-01  7.6005340329005300e-01  6.9528633722325761e-01  6.1880717718394318e-01  5.5645876629708557e-01  5.0521635873465787e-01  4.5380888780380130e-01  4.0539048228202662e-01  3.7105291406515856e-01  3.5138457276625173e-01  3.3518858416996677e-01  3.1393404967566019e-01  2.8901819413898427e-01  2.6461410332324764e-01  2.4263915440849415e-01  2.2342277976080205e-01  2.0694803077881904e-01  1.9315441187400775e-01  1.8186819438954735e-01  1.7279541955437078e-01  1.6560210359787708e-01  1.5999126337368927e-01  1.5573866269810938e-01  1.5269876354075312e-01  1.5080284274904615e-01  1.5006211424063259e-01  1.5057700941876484e-01  1.5254944386058406e-01  1.5630754205664427e-01  1.6238029950164828e-01  1.7165182408773050e-01  1.8542391291048410e-01  2.0459753546171350e-01  2.2750818159558667e-01  2.5270673591150761e-01  2.8393963888739682e-01  3.3775618915399436e-01  3.7147459091366808e-01  4.3075162850921145e-01  2.3560669424187741e-01  4.2810442708379265e-01  5.8649426784600367e-01  6.3291903091684698e-01  6.2194111596342350e-01  5.8850790267627917e-01  5.5109526172846290e-01  5.1130663910699314e-01  4.6776956559385230e-01  4.2540380766620722e-01  3.9379800420902039e-01  3.7363133838528662e-01  3.5333818629861935e-01  3.2455627871043202e-01  2.9165451563934741e-01  2.6144845278061546e-01  2.3630155424125415e-01  2.1586308640805532e-01  1.9928732685649617e-01  1.8588314455510091e-01  1.7509466377986815e-01  1.6643612833220220e-01  1.5949615468084716e-01  1.5395729938363623e-01  1.4959498583481437e-01  1.4625966308798274e-01  1.4385739111664608e-01  1.4233676911801504e-01  1.4168010415070900e-01  1.4189256879258333e-01  1.4298775628248478e-01  1.4497723951085767e-01  1.4787070648548439e-01  1.5166354041153951e-01  1.5625324155087406e-01  1.6133563260203201e-01  1.6677877831216772e-01  1.7288639929231844e-01  1.7945646086429909e-01  1.5268165186108310e-01  1.9927846474152816e-01  1.4266096488235239e-01  1.5862975139437599e-01  3.0712181434915803e-01  4.0919004802120096e-01  4.7465949099001264e-01  5.0026131871566626e-01  4.9837837139440994e-01  4.8119233937036449e-01  4.5386946495511565e-01  4.2257926965652437e-01  3.9422546427938671e-01  3.6946309264937616e-01  3.4248708607460199e-01  3.1073623610787643e-01  2.7846182300657807e-01  2.5011013009014688e-01  2.2686692257679661e-01  2.0807900665819207e-01  1.9281976368237524e-01  1.8037089723689931e-01  1.7019385016763666e-01  1.6185163048897883e-01  1.5499168549963385e-01  1.4935041215457256e-01  1.4474284428409465e-01  1.4103721228388361e-01  1.3812869481045828e-01  1.3592166502696920e-01  1.3432020285556820e-01  1.3322170537649661e-01  1.3250983777451680e-01  1.3204739775074895e-01  1.3167141299675045e-01  1.3118974056720140e-01  1.3037783238028378e-01  1.2898201789863831e-01  1.2676039286795010e-01  1.2346022412597767e-01  1.1775355182262075e-01  9.7560097355846392e-02  1.3820090892140052e-01  1.3749958161859130e-01  1.2045941647050101e-01  2.0747958034732725e-01  2.6800308555121022e-01  3.1819868837553378e-01  3.6031258798187993e-01  3.8940487748390884e-01  4.0116985393998644e-01  3.9716093058451341e-01  3.8271336234728803e-01  3.6329526353184888e-01  3.4112013269416658e-01  3.1583329284192607e-01  2.8834879932781077e-01  2.6158333952625079e-01  2.3791682263376301e-01  2.1800264570856362e-01  2.0144843450692282e-01  1.8764298685259864e-01  1.7608317819389765e-01  1.6638446739201879e-01  1.5823278493986009e-01  1.5137152115957067e-01  1.4560410452832609e-01  1.4078211475713226e-01  1.3677850343331432e-01  1.3346207464669924e-01  1.3068534635220455e-01  1.2828653378814547e-01  1.2609851668079278e-01  1.2395631947005574e-01  1.2169802021958206e-01  1.1915918836281963e-01  1.1616667278594750e-01  1.1254491000496153e-01  1.0815295351812622e-01  1.0297064380818866e-01  9.7173446969664928e-02  9.0940189621615056e-02  8.1261612797221744e-02  1.3111574765078454e-01  1.3719983679926367e-01  1.1008921395860154e-01  1.6525032289397848e-01  2.0526306588001669e-01  2.4200143422248460e-01  2.6960801729849576e-01  2.9335274618261387e-01  3.1205293194235983e-01  3.2201765668322196e-01  3.2271191651910663e-01  3.1575007592429533e-01  3.0277141546055003e-01  2.8513825609610860e-01  2.6484037940816518e-01  2.4433862651987698e-01  2.2546165648046729e-01  2.0892792276385089e-01  1.9469254320280702e-01  1.8244578681140330e-01  1.7188576912483558e-01  1.6277698311076122e-01  1.5492900665705442e-01  1.4817979809189580e-01  1.4239041652366843e-01  1.3743323768441321e-01  1.3317209056491514e-01  1.2944788250129638e-01  1.2608045358621506e-01  1.2288489120058545e-01  1.1969085480594845e-01  1.1635331109945497e-01  1.1275176314349745e-01  1.0878554650493087e-01  1.0437751324774305e-01  9.9496867155463214e-02  9.4205769347141005e-02  8.8726376378901739e-02  8.3487530825795700e-02  7.9062907955158412e-02  7.4479053814128893e-02  1.2942230529195570e-01  1.3638927818883972e-01  1.0345213290435325e-01  1.4079953014107360e-01  1.6441767668750551e-01  1.8911587648911957e-01  2.1163158559875012e-01  2.2958405004389679e-01  2.4463706663679929e-01  2.5674169117754098e-01  2.6429433732432384e-01  2.6615245539659810e-01  2.6212548073028313e-01  2.5294469249923535e-01  2.4021605852586667e-01  2.2594588420918046e-01  2.1179700676500540e-01  1.9869631871828289e-01  1.8693661608281154e-01  1.7647726075290573e-01  1.6718442504869388e-01  1.5893726836407643e-01  1.5164171787225708e-01  1.4521447330690632e-01  1.3956807532132781e-01  1.3459898469237647e-01  1.3017765136797549e-01  1.2614682012617853e-01  1.2233359612796962e-01  1.1857153946284715e-01  1.1472119058493299e-01  1.1067909440951255e-01  1.0637580298604958e-01  1.0177308144865212e-01  9.6871018393778416e-02  9.1729238676634961e-02  8.6498661764996154e-02  8.1456647552286612e-02  7.7014261583158841e-02  7.3638001277083157e-02  7.1242550294682197e-02  1.2821739653868544e-01  1.3558712630512587e-01  9.8885893874814987e-02  1.2689118505609712e-01  1.4059489797918784e-01  1.5420381943678754e-01  1.6932631695002731e-01  1.8428917315757759e-01  1.9758727132181883e-01  2.0895882361810084e-01  2.1788287490243435e-01  2.2337219618332765e-01  2.2464855897038047e-01  2.2166736887829083e-01  2.1519902337065999e-01  2.0651196668057148e-01  1.9688239190521303e-01  1.8724009780272430e-01  1.7808770325260900e-01  1.6960974053018466e-01  1.6182871814990402e-01  1.5471823381767058e-01  1.4825063692024298e-01  1.4239881728278925e-01  1.3712137331378518e-01  1.3234922045473074e-01  1.2797986106401940e-01  1.2388155836130016e-01  1.1990806816424675e-01  1.1592014940463716e-01  1.1180528893865797e-01  1.0748780890114326e-01  1.0292910035018771e-01  9.8126099947616494e-02  9.3117278947065785e-02  8.7999450393852610e-02  8.2950197201955594e-02  7.8246663203475439e-02  7.4248979946505964e-02  7.1338062318163836e-02  6.9719201617214843e-02  1.2757248978541202e-01  1.3479676233468546e-01  9.4983051350643749e-02  1.1697200485305405e-01  1.2590364722303077e-01  1.3394788437963723e-01  1.4300753755174261e-01  1.5340595332913526e-01  1.6426097989841507e-01  1.7448400451301335e-01  1.8320874494341477e-01  1.8969862775268514e-01  1.9335784829627270e-01  1.9395034124401631e-01  1.9172695615236532e-01  1.8732979278327122e-01  1.8155334813754545e-01  1.7511350685987828e-01  1.6852341987950287e-01  1.6208348760649929e-01  1.5593806626742948e-01  1.5014587903340876e-01  1.4473020933460981e-01  1.3969866748112011e-01  1.3504062667001213e-01  1.3071753242544731e-01  1.2665789533360464e-01  1.2276163354010813e-01  1.1891294579954950e-01  1.1499770034484171e-01  1.1091984653284423e-01  1.0661257735547484e-01  1.0204413265844592e-01  9.7222612141332099e-02  9.2204438573166805e-02  8.7108208129854703e-02  8.2129915934782291e-02  7.7551604505593855e-02  7.3713265497251115e-02  7.0951439753392131e-02  6.9422980272237783e-02  1.2737717589092734e-01  1.3404548200708624e-01  9.1641583198176418e-02  1.0940023129868572e-01  1.1564598664063840e-01  1.2091305986544380e-01  1.2668388706619266e-01  1.3352940037000580e-01  1.4130617749157334e-01  1.494084911