<?xml version="1.0"?>
<VTKFile type="UnstructuredGrid"  version="0.1"  >
<UnstructuredGrid>
<Piece  NumberOfPoints="1681" NumberOfCells="3200">
<Points>
<DataArray  type="Float64"  NumberOfComponents="3"  format="ascii">0 0 0  0.025 0 0  0.05 0 0  0.075 0 0  0.1 0 0  0.125 0 0  0.15 0 0  0.175 0 0  0.2 0 0  0.225 0 0  0.25 0 0  0.275 0 0  0.3 0 0  0.325 0 0  0.35 0 0  0.375 0 0  0.4 0 0  0.425 0 0  0.45 0 0  0.475 0 0  0.5 0 0  0.525 0 0  0.55 0 0  0.575 0 0  0.6 0 0  0.625 0 0  0.65 0 0  0.675 0 0  0.7 0 0  0.725 0 0  0.75 0 0  0.775 0 0  0.8 0 0  0.825 0 0  0.85 0 0  0.875 0 0  0.9 0 0  0.925 0 0  0.95 0 0  0.975 0 0  1 0 0  0 0.025 0  0.025 0.025 0  0.05 0.025 0  0.075 0.025 0  0.1 0.025 0  0.125 0.025 0  0.15 0.025 0  0.175 0.025 0  0.2 0.025 0  0.225 0.025 0  0.25 0.025 0  0.275 0.025 0  0.3 0.025 0  0.325 0.025 0  0.35 0.025 0  0.375 0.025 0  0.4 0.025 0  0.425 0.025 0  0.45 0.025 0  0.475 0.025 0  0.5 0.025 0  0.525 0.025 0  0.55 0.025 0  0.575 0.025 0  0.6 0.025 0  0.625 0.025 0  0.65 0.025 0  0.675 0.025 0  0.7 0.025 0  0.725 0.025 0  0.75 0.025 0  0.775 0.025 0  0.8 0.025 0  0.825 0.025 0  0.85 0.025 0  0.875 0.025 0  0.9 0.025 0  0.925 0.025 0  0.95 0.025 0  0.975 0.025 0  1 0.025 0  0 0.05 0  0.025 0.05 0  0.05 0.05 0  0.075 0.05 0  0.1 0.05 0  0.125 0.05 0  0.15 0.05 0  0.175 0.05 0  0.2 0.05 0  0.225 0.05 0  0.25 0.05 0  0.275 0.05 0  0.3 0.05 0  0.325 0.05 0  0.35 0.05 0  0.375 0.05 0  0.4 0.05 0  0.425 0.05 0  0.45 0.05 0  0.475 0.05 0  0.5 0.05 0  0.525 0.05 0  0.55 0.05 0  0.575 0.05 0  0.6 0.05 0  0.625 0.05 0  0.65 0.05 0  0.675 0.05 0  0.7 0.05 0  0.725 0.05 0  0.75 0.05 0  0.775 0.05 0  0.8 0.05 0  0.825 0.05 0  0.85 0.05 0  0.875 0.05 0  0.9 0.05 0  0.925 0.05 0  0.95 0.05 0  0.975 0.05 0  1 0.05 0  0 0.075 0  0.025 0.075 0  0.05 0.075 0  0.075 0.075 0  0.1 0.075 0  0.125 0.075 0  0.15 0.075 0  0.175 0.075 0  0.2 0.075 0  0.225 0.075 0  0.25 0.075 0  0.275 0.075 0  0.3 0.075 0  0.325 0.075 0  0.35 0.075 0  0.375 0.075 0  0.4 0.075 0  0.425 0.075 0  0.45 0.075 0  0.475 0.075 0  0.5 0.075 0  0.525 0.075 0  0.55 0.075 0  0.575 0.075 0  0.6 0.075 0  0.625 0.075 0  0.65 0.075 0  0.675 0.075 0  0.7 0.075 0  0.725 0.075 0  0.75 0.075 0  0.775 0.075 0  0.8 0.075 0  0.825 0.075 0  0.85 0.075 0  0.875 0.075 0  0.9 0.075 0  0.925 0.075 0  0.95 0.075 0  0.975 0.075 0  1 0.075 0  0 0.1 0  0.025 0.1 0  0.05 0.1 0  0.075 0.1 0  0.1 0.1 0  0.125 0.1 0  0.15 0.1 0  0.175 0.1 0  0.2 0.1 0  0.225 0.1 0  0.25 0.1 0  0.275 0.1 0  0.3 0.1 0  0.325 0.1 0  0.35 0.1 0  0.375 0.1 0  0.4 0.1 0  0.425 0.1 0  0.45 0.1 0  0.475 0.1 0  0.5 0.1 0  0.525 0.1 0  0.55 0.1 0  0.575 0.1 0  0.6 0.1 0  0.625 0.1 0  0.65 0.1 0  0.675 0.1 0  0.7 0.1 0  0.725 0.1 0  0.75 0.1 0  0.775 0.1 0  0.8 0.1 0  0.825 0.1 0  0.85 0.1 0  0.875 0.1 0  0.9 0.1 0  0.925 0.1 0  0.95 0.1 0  0.975 0.1 0  1 0.1 0  0 0.125 0  0.025 0.125 0  0.05 0.125 0  0.075 0.125 0  0.1 0.125 0  0.125 0.125 0  0.15 0.125 0  0.175 0.125 0  0.2 0.125 0  0.225 0.125 0  0.25 0.125 0  0.275 0.125 0  0.3 0.125 0  0.325 0.125 0  0.35 0.125 0  0.375 0.125 0  0.4 0.125 0  0.425 0.125 0  0.45 0.125 0  0.475 0.125 0  0.5 0.125 0  0.525 0.125 0  0.55 0.125 0  0.575 0.125 0  0.6 0.125 0  0.625 0.125 0  0.65 0.125 0  0.675 0.125 0  0.7 0.125 0  0.725 0.125 0  0.75 0.125 0  0.775 0.125 0  0.8 0.125 0  0.825 0.125 0  0.85 0.125 0  0.875 0.125 0  0.9 0.125 0  0.925 0.125 0  0.95 0.125 0  0.975 0.125 0  1 0.125 0  0 0.15 0  0.025 0.15 0  0.05 0.15 0  0.075 0.15 0  0.1 0.15 0  0.125 0.15 0  0.15 0.15 0  0.175 0.15 0  0.2 0.15 0  0.225 0.15 0  0.25 0.15 0  0.275 0.15 0  0.3 0.15 0  0.325 0.15 0  0.35 0.15 0  0.375 0.15 0  0.4 0.15 0  0.425 0.15 0  0.45 0.15 0  0.475 0.15 0  0.5 0.15 0  0.525 0.15 0  0.55 0.15 0  0.575 0.15 0  0.6 0.15 0  0.625 0.15 0  0.65 0.15 0  0.675 0.15 0  0.7 0.15 0  0.725 0.15 0  0.75 0.15 0  0.775 0.15 0  0.8 0.15 0  0.825 0.15 0  0.85 0.15 0  0.875 0.15 0  0.9 0.15 0  0.925 0.15 0  0.95 0.15 0  0.975 0.15 0  1 0.15 0  0 0.175 0  0.025 0.175 0  0.05 0.175 0  0.075 0.175 0  0.1 0.175 0  0.125 0.175 0  0.15 0.175 0  0.175 0.175 0  0.2 0.175 0  0.225 0.175 0  0.25 0.175 0  0.275 0.175 0  0.3 0.175 0  0.325 0.175 0  0.35 0.175 0  0.375 0.175 0  0.4 0.175 0  0.425 0.175 0  0.45 0.175 0  0.475 0.175 0  0.5 0.175 0  0.525 0.175 0  0.55 0.175 0  0.575 0.175 0  0.6 0.175 0  0.625 0.175 0  0.65 0.175 0  0.675 0.175 0  0.7 0.175 0  0.725 0.175 0  0.75 0.175 0  0.775 0.175 0  0.8 0.175 0  0.825 0.175 0  0.85 0.175 0  0.875 0.175 0  0.9 0.175 0  0.925 0.175 0  0.95 0.175 0  0.975 0.175 0  1 0.175 0  0 0.2 0  0.025 0.2 0  0.05 0.2 0  0.075 0.2 0  0.1 0.2 0  0.125 0.2 0  0.15 0.2 0  0.175 0.2 0  0.2 0.2 0  0.225 0.2 0  0.25 0.2 0  0.275 0.2 0  0.3 0.2 0  0.325 0.2 0  0.35 0.2 0  0.375 0.2 0  0.4 0.2 0  0.425 0.2 0  0.45 0.2 0  0.475 0.2 0  0.5 0.2 0  0.525 0.2 0  0.55 0.2 0  0.575 0.2 0  0.6 0.2 0  0.625 0.2 0  0.65 0.2 0  0.675 0.2 0  0.7 0.2 0  0.725 0.2 0  0.75 0.2 0  0.775 0.2 0  0.8 0.2 0  0.825 0.2 0  0.85 0.2 0  0.875 0.2 0  0.9 0.2 0  0.925 0.2 0  0.95 0.2 0  0.975 0.2 0  1 0.2 0  0 0.225 0  0.025 0.225 0  0.05 0.225 0  0.075 0.225 0  0.1 0.225 0  0.125 0.225 0  0.15 0.225 0  0.175 0.225 0  0.2 0.225 0  0.225 0.225 0  0.25 0.225 0  0.275 0.225 0  0.3 0.225 0  0.325 0.225 0  0.35 0.225 0  0.375 0.225 0  0.4 0.225 0  0.425 0.225 0  0.45 0.225 0  0.475 0.225 0  0.5 0.225 0  0.525 0.225 0  0.55 0.225 0  0.575 0.225 0  0.6 0.225 0  0.625 0.225 0  0.65 0.225 0  0.675 0.225 0  0.7 0.225 0  0.725 0.225 0  0.75 0.225 0  0.775 0.225 0  0.8 0.225 0  0.825 0.225 0  0.85 0.225 0  0.875 0.225 0  0.9 0.225 0  0.925 0.225 0  0.95 0.225 0  0.975 0.225 0  1 0.225 0  0 0.25 0  0.025 0.25 0  0.05 0.25 0  0.075 0.25 0  0.1 0.25 0  0.125 0.25 0  0.15 0.25 0  0.175 0.25 0  0.2 0.25 0  0.225 0.25 0  0.25 0.25 0  0.275 0.25 0  0.3 0.25 0  0.325 0.25 0  0.35 0.25 0  0.375 0.25 0  0.4 0.25 0  0.425 0.25 0  0.45 0.25 0  0.475 0.25 0  0.5 0.25 0  0.525 0.25 0  0.55 0.25 0  0.575 0.25 0  0.6 0.25 0  0.625 0.25 0  0.65 0.25 0  0.675 0.25 0  0.7 0.25 0  0.725 0.25 0  0.75 0.25 0  0.775 0.25 0  0.8 0.25 0  0.825 0.25 0  0.85 0.25 0  0.875 0.25 0  0.9 0.25 0  0.925 0.25 0  0.95 0.25 0  0.975 0.25 0  1 0.25 0  0 0.275 0  0.025 0.275 0  0.05 0.275 0  0.075 0.275 0  0.1 0.275 0  0.125 0.275 0  0.15 0.275 0  0.175 0.275 0  0.2 0.275 0  0.225 0.275 0  0.25 0.275 0  0.275 0.275 0  0.3 0.275 0  0.325 0.275 0  0.35 0.275 0  0.375 0.275 0  0.4 0.275 0  0.425 0.275 0  0.45 0.275 0  0.475 0.275 0  0.5 0.275 0  0.525 0.275 0  0.55 0.275 0  0.575 0.275 0  0.6 0.275 0  0.625 0.275 0  0.65 0.275 0  0.675 0.275 0  0.7 0.275 0  0.725 0.275 0  0.75 0.275 0  0.775 0.275 0  0.8 0.275 0  0.825 0.275 0  0.85 0.275 0  0.875 0.275 0  0.9 0.275 0  0.925 0.275 0  0.95 0.275 0  0.975 0.275 0  1 0.275 0  0 0.3 0  0.025 0.3 0  0.05 0.3 0  0.075 0.3 0  0.1 0.3 0  0.125 0.3 0  0.15 0.3 0  0.175 0.3 0  0.2 0.3 0  0.225 0.3 0  0.25 0.3 0  0.275 0.3 0  0.3 0.3 0  0.325 0.3 0  0.35 0.3 0  0.375 0.3 0  0.4 0.3 0  0.425 0.3 0  0.45 0.3 0  0.475 0.3 0  0.5 0.3 0  0.525 0.3 0  0.55 0.3 0  0.575 0.3 0  0.6 0.3 0  0.625 0.3 0  0.65 0.3 0  0.675 0.3 0  0.7 0.3 0  0.725 0.3 0  0.75 0.3 0  0.775 0.3 0  0.8 0.3 0  0.825 0.3 0  0.85 0.3 0  0.875 0.3 0  0.9 0.3 0  0.925 0.3 0  0.95 0.3 0  0.975 0.3 0  1 0.3 0  0 0.325 0  0.025 0.325 0  0.05 0.325 0  0.075 0.325 0  0.1 0.325 0  0.125 0.325 0  0.15 0.325 0  0.175 0.325 0  0.2 0.325 0  0.225 0.325 0  0.25 0.325 0  0.275 0.325 0  0.3 0.325 0  0.325 0.325 0  0.35 0.325 0  0.375 0.325 0  0.4 0.325 0  0.425 0.325 0  0.45 0.325 0  0.475 0.325 0  0.5 0.325 0  0.525 0.325 0  0.55 0.325 0  0.575 0.325 0  0.6 0.325 0  0.625 0.325 0  0.65 0.325 0  0.675 0.325 0  0.7 0.325 0  0.725 0.325 0  0.75 0.325 0  0.775 0.325 0  0.8 0.325 0  0.825 0.325 0  0.85 0.325 0  0.875 0.325 0  0.9 0.325 0  0.925 0.325 0  0.95 0.325 0  0.975 0.325 0  1 0.325 0  0 0.35 0  0.025 0.35 0  0.05 0.35 0  0.075 0.35 0  0.1 0.35 0  0.125 0.35 0  0.15 0.35 0  0.175 0.35 0  0.2 0.35 0  0.225 0.35 0  0.25 0.35 0  0.275 0.35 0  0.3 0.35 0  0.325 0.35 0  0.35 0.35 0  0.375 0.35 0  0.4 0.35 0  0.425 0.35 0  0.45 0.35 0  0.475 0.35 0  0.5 0.35 0  0.525 0.35 0  0.55 0.35 0  0.575 0.35 0  0.6 0.35 0  0.625 0.35 0  0.65 0.35 0  0.675 0.35 0  0.7 0.35 0  0.725 0.35 0  0.75 0.35 0  0.775 0.35 0  0.8 0.35 0  0.825 0.35 0  0.85 0.35 0  0.875 0.35 0  0.9 0.35 0  0.925 0.35 0  0.95 0.35 0  0.975 0.35 0  1 0.35 0  0 0.375 0  0.025 0.375 0  0.05 0.375 0  0.075 0.375 0  0.1 0.375 0  0.125 0.375 0  0.15 0.375 0  0.175 0.375 0  0.2 0.375 0  0.225 0.375 0  0.25 0.375 0  0.275 0.375 0  0.3 0.375 0  0.325 0.375 0  0.35 0.375 0  0.375 0.375 0  0.4 0.375 0  0.425 0.375 0  0.45 0.375 0  0.475 0.375 0  0.5 0.375 0  0.525 0.375 0  0.55 0.375 0  0.575 0.375 0  0.6 0.375 0  0.625 0.375 0  0.65 0.375 0  0.675 0.375 0  0.7 0.375 0  0.725 0.375 0  0.75 0.375 0  0.775 0.375 0  0.8 0.375 0  0.825 0.375 0  0.85 0.375 0  0.875 0.375 0  0.9 0.375 0  0.925 0.375 0  0.95 0.375 0  0.975 0.375 0  1 0.375 0  0 0.4 0  0.025 0.4 0  0.05 0.4 0  0.075 0.4 0  0.1 0.4 0  0.125 0.4 0  0.15 0.4 0  0.175 0.4 0  0.2 0.4 0  0.225 0.4 0  0.25 0.4 0  0.275 0.4 0  0.3 0.4 0  0.325 0.4 0  0.35 0.4 0  0.375 0.4 0  0.4 0.4 0  0.425 0.4 0  0.45 0.4 0  0.475 0.4 0  0.5 0.4 0  0.525 0.4 0  0.55 0.4 0  0.575 0.4 0  0.6 0.4 0  0.625 0.4 0  0.65 0.4 0  0.675 0.4 0  0.7 0.4 0  0.725 0.4 0  0.75 0.4 0  0.775 0.4 0  0.8 0.4 0  0.825 0.4 0  0.85 0.4 0  0.875 0.4 0  0.9 0.4 0  0.925 0.4 0  0.95 0.4 0  0.975 0.4 0  1 0.4 0  0 0.425 0  0.025 0.425 0  0.05 0.425 0  0.075 0.425 0  0.1 0.425 0  0.125 0.425 0  0.15 0.425 0  0.175 0.425 0  0.2 0.425 0  0.225 0.425 0  0.25 0.425 0  0.275 0.425 0  0.3 0.425 0  0.325 0.425 0  0.35 0.425 0  0.375 0.425 0  0.4 0.425 0  0.425 0.425 0  0.45 0.425 0  0.475 0.425 0  0.5 0.425 0  0.525 0.425 0  0.55 0.425 0  0.575 0.425 0  0.6 0.425 0  0.625 0.425 0  0.65 0.425 0  0.675 0.425 0  0.7 0.425 0  0.725 0.425 0  0.75 0.425 0  0.775 0.425 0  0.8 0.425 0  0.825 0.425 0  0.85 0.425 0  0.875 0.425 0  0.9 0.425 0  0.925 0.425 0  0.95 0.425 0  0.975 0.425 0  1 0.425 0  0 0.45 0  0.02
[...]
<PointData  Scalars="ControlVisualisation"> 
<DataArray  type="Float64"  Name="ControlVisualisation"  format="ascii">1.0081293594631246e-03  6.7214770061131798e-04  6.7217570402530692e-04  6.7212789613683944e-04  6.7211931249801693e-04  6.7233270231180624e-04  6.7283613797543620e-04  6.7355693769175981e-04  6.7433896973755915e-04  6.7503362941242779e-04  6.7557043984121132e-04  6.7595095616861469e-04  6.7620222569465165e-04  6.7634732959110148e-04  6.7640237316277389e-04  6.7638108697946528e-04  6.7629635558946429e-04  6.7615982720428593e-04  6.7598184383797625e-04  6.7577166400302165e-04  6.7553756672207631e-04  6.7528683331654705e-04  6.7502573830594459e-04  6.7475961560289205e-04  6.7449298564133337e-04  6.7422969792903362e-04  6.7397305481669439e-04  6.7372590477522069e-04  6.7349070786851825e-04  6.7326958085308448e-04  6.7306432922624058e-04  6.7287647210089807e-04  6.7270726427613313e-04  6.7255771840767434e-04  6.7242862936744280e-04  6.7232060039753238e-04  6.7223407208695551e-04  6.7216933802214957e-04  6.7212675522074423e-04  6.7210574035588466e-04  2.0017190491796637e-03  6.7218788385144048e-04  3.3615199736991439e-04  3.3619165551576125e-04  3.3616500621421385e-04  3.3616074454841018e-04  3.3636864126134717e-04  3.3688646851628339e-04  3.3765970727223636e-04  3.3852937090380860e-04  3.3932098046565923e-04  3.3993915699262272e-04  3.4038385788619045e-04  3.4068677917978199e-04  3.4087048814340564e-04  3.4095005790892279e-04  3.4094037252247866e-04  3.4085619571988318e-04  3.4071088103065423e-04  3.4051631991772265e-04  3.4028325068009662e-04  3.4002136076905453e-04  3.3973921872107004e-04  3.3944421811694025e-04  3.3914263054396487e-04  3.3883975024187439e-04  3.3854006608499373e-04  3.3824741298493462e-04  3.3796508659432185e-04  3.3769592440250186e-04  3.3744236209486963e-04  3.3720647376392246e-04  3.3699000283567604e-04  3.3679438884647278e-04  3.3662079367011713e-04  3.3647012967444529e-04  3.3634308938948612e-04  3.3624018026159734e-04  3.3616175771621185e-04  3.3610799873902257e-04  3.3607745757378306e-04  6.7210574143015630e-04  6.7272489446641237e-04  3.3652687756334509e-04  3.3655650404245698e-04  3.3653876686251917e-04  3.3661588695245350e-04  3.3695471117854605e-04  3.3760023350841911e-04  3.3849187636958065e-04  3.3949951341439026e-04  3.4030371481553058e-04  3.4084650482706005e-04  3.4124435429530369e-04  3.4154207485578587e-04  3.4172567163649092e-04  3.4179512488478479e-04  3.4176694319228021e-04  3.4165777364222427e-04  3.4148141664221046e-04  3.4125030175247893e-04  3.4097619351268292e-04  3.4067005846833017e-04  3.4034168971016927e-04  3.3999946960035644e-04  3.3965042018407475e-04  3.3930042984832692e-04  3.3895449553919202e-04  3.3861690698587375e-04  3.3829137113393647e-04  3.3798109487231161e-04  3.3768884120092033e-04  3.3741696912893292e-04  3.3716746464132366e-04  3.3694196815831757e-04  3.3674180236802748e-04  3.3656800304082105e-04  3.3642135307494601e-04  3.3630242455020908e-04  3.3621157919615013e-04  3.3614874199906916e-04  3.3610805129410265e-04  6.7212678228023809e-04  6.7574451974531085e-04  3.3840344331433493e-04  3.3803769826339276e-04  3.3840713286982310e-04  3.4047894598386260e-04  3.4225715996205109e-04  3.4247272585445025e-04  3.4213903045884886e-04  3.4220339411944060e-04  3.4180052283520239e-04  3.4155322706050107e-04  3.4169453117325981e-04  3.4192735301461115e-04  3.4204910275530099e-04  3.4206396911675297e-04  3.4199740803878914e-04  3.4186085955245334e-04  3.4166290882271333e-04  3.4141357246051155e-04  3.4112364534328319e-04  3.4080401612384515e-04  3.4046452838662217e-04  3.4011330950899186e-04  3.3975691517988270e-04  3.3940078250553434e-04  3.3904957311148347e-04  3.3870735386335859e-04  3.3837769092330756e-04  3.3806370630271390e-04  3.3776811512716801e-04  3.3749325183558094e-04  3.3724109109485546e-04  3.3701326783652249e-04  3.3681109973539156e-04  3.3663561458919681e-04  3.3648758270137219e-04  3.3636755568394175e-04  3.3627584618726753e-04  3.3621189157013477e-04  3.3616207036613543e-04  6.7216952738891468e-04  6.9079997445833528e-04  3.5052250057928194e-04  3.5815845838147646e-04  3.8427368526296787e-04  4.2994366751960872e-04  4.7983749831793796e-04  4.8682328471539378e-04  4.5448811447702515e-04  4.0991306138981465e-04  3.6566344600386585e-04  3.4700210875917973e-04  3.4355479902042685e-04  3.4279340784620427e-04  3.4253050592885742e-04  3.4240055950996665e-04  3.4227558304921818e-04  3.4210103656363844e-04  3.4187444868550459e-04  3.4160121376847490e-04  3.4129013568467254e-04  3.4095297399793151e-04  3.4060024681862959e-04  3.4023945218455737e-04  3.3987605748979442e-04  3.3951464292972889e-04  3.3915931906516698e-04  3.3881380058420232e-04  3.3848142429199993e-04  3.3816516536059558e-04  3.3786764793860684e-04  3.3759115192842355e-04  3.3733761983466271e-04  3.3710866619605272e-04  3.3690559198911222e-04  3.3672940637993721e-04  3.3658085584439113e-04  3.3646046098471542e-04  3.3636846843454005e-04  3.3630363497017706e-04  3.3624124647649127e-04  6.7223478501015894e-04  7.6717187982339912e-04  3.7928357833724952e-04  8.0956640099291515e-04  1.9336012855644752e-01  3.9844297425419734e-01  4.6927141226631464e-01  4.3169430265866493e-01  3.0453673814993615e-01  1.3844566912518111e-01  2.9067186171459181e-03  6.3527861680815942e-04  4.1581770688620638e-04  3.5677002138687308e-04  3.4493264498580733e-04  3.4317001126409996e-04  3.4270289435773150e-04  3.4242166256244033e-04  3.4215473584135140e-04  3.4185123048928727e-04  3.4150897919600051e-04  3.4114633614251792e-04  3.4077628441541233e-04  3.4040381016394805e-04  3.4003195686000174e-04  3.3966408186280537e-04  3.3930367296588181e-04  3.3895403800048111e-04  3.3861823894986283e-04  3.3829907728898318e-04  3.3799907090678783e-04  3.3772043700095800e-04  3.3746508332917799e-04  3.3723460513660289e-04  3.3703028902427087e-04  3.3685312693283156e-04  3.3670384090795031e-04  3.3658291753011356e-04  3.3649052368995723e-04  3.3642454306800142e-04  3.3634582104232017e-04  6.7232253854958269e-04  1.2745381867262627e-03  3.9316715906784294e-01  9.9911767111389116e-01  9.9965075166350204e-01  9.9971776298793724e-01  9.9969880817847645e-01  9.9962800694225973e-01  9.9944413999075765e-01  9.9871442731148641e-01  9.0284797564321495e-01  4.8061445299598138e-01  1.4613182496220914e-01  1.1077534371248957e-03  4.4218069664351081e-04  3.5719509518485824e-04  3.4476392057688354e-04  3.4302651747979753e-04  3.4255817430835136e-04  3.4218718385670870e-04  3.4178185880313070e-04  3.4138154366153439e-04  3.4099259471543562e-04  3.4060807261408982e-04  3.4022675402886301e-04  3.3985133995678902e-04  3.3948490939186897e-04  3.3913029758066463e-04  3.3879025969031287e-04  3.3846742224642425e-04  3.3816419431845321e-04  3.3788272813931638e-04  3.3762490042989690e-04  3.3739229595139045e-04  3.3718619756554016e-04  3.3700758973291274e-04  3.3685717713367608e-04  3.3673541528896414e-04  3.3664238152375406e-04  3.3657489361772411e-04  3.3647597240979589e-04  6.7243293721817355e-04  9.9986206373954933e-01  9.9992155392765625e-01  9.9993318008343546e-01  9.9993107791073643e-01  9.9992549244796269e-01  9.9991470364040425e-01  9.9989780096183245e-01  9.9987076928641505e-01  9.9982242178809655e-01  9.9972153590784141e-01  9.9945204747867089e-01  9.9757685792308048e-01  6.2195845361120261e-01  1.8518196512757323e-01  1.0728089939597775e-03  4.1861436651853990e-04  3.5080328352029742e-04  3.4405541893386710e-04  3.4275903189126918e-04  3.4210072130200675e-04  3.4164787564783732e-04  3.4124929634944765e-04  3.4085408958189401e-04  3.4046171752343777e-04  3.4007786301099724e-04  3.3970474719050795e-04  3.3934437739428878e-04  3.3899926413115725e-04  3.3867192277191175e-04  3.3836465137168648e-04  3.3807953028673263e-04  3.3781841482193010e-04  3.3758289815508200e-04  3.3737428101592980e-04  3.3719356164807815e-04  3.3704144590482381e-04  3.3691837157411584e-04  3.3682432508444059e-04  3.3675487115004049e-04  3.3663181301290038e-04  6.7256606224038785e-04  9.9997164101911296e-01  9.9998155138059730e-01  9.9997787341376787e-01  9.9997263854281682e-01  9.9996627277336159e-01  9.9995874649778971e-01  9.9994971923677700e-01  9.9993828064837376e-01  9.9992249632577290e-01  9.9989834088141893e-01  9.9985618650758412e-01  9.9976545500560732e-01  9.9950476817911749e-01  9.9733283816936169e-01  5.6670484141122857e-01  1.2382504179783969e-01  6.9350087355257424e-04  3.8280937441367109e-04  3.4636118798720133e-04  3.4271651175984583e-04  3.4199289353345361e-04  3.4156996868693460e-04  3.4114555406446689e-04  3.4073711906543018e-04  3.4034534838821697e-04  3.3996549170443868e-04  3.3959850313606762e-04  3.3924739607409506e-04  3.3891469528836638e-04  3.3860248096708530e-04  3.3831273320089953e-04  3.3804731225323679e-04  3.3780785417981984e-04  3.3759571263859006e-04  3.3741193699515001e-04  3.3725727099386178e-04  3.3713216596521517e-04  3.3703653236616941e-04  3.3696450847031819e-04  3.3681329705563198e-04  6.7272186275777639e-04  9.9998425504736810e-01  9.9999052748366368e-01  9.9998770186338837e-01  9.9998361752310638e-01  9.9997866179469641e-01  9.9997307394993429e-01  9.9996689940566119e-01  9.9995988610943620e-01  9.9995141658080944e-01  9.9994034598523096e-01  9.9992453512778567e-01  9.9989947581436944e-01  9.9985367193574426e-01  9.9974695316571893e-01  9.9938356762546476e-01  9.7618946423203734e-01  4.1344933153493024e-01  1.9613836775056959e-02  4.8152318756409954e-04  3.5518876924038449e-04  3.4373147417784375e-04  3.4214167566320661e-04  3.4148954032168659e-04  3.4105257960460129e-04  3.4065830488674864e-04  3.4027085783210835e-04  3.3989517702451202e-04  3.3953713452367442e-04  3.3919837948479838e-04  3.3888027609040733e-04  3.3858473884898032e-04  3.3831373202232706e-04  3.3806898116602675e-04  3.3785193615426567e-04  3.3766375736438397e-04  3.3750529274272659e-04  3.3737706874505482e-04  3.3727896333247541e-04  3.3720354112995660e-04  3.3702008206839759e-04  6.7290004181910648e-04  9.9998613233526734e-01  9.9999226392632379e-01  9.9999002076392196e-01  9.9998672171296954e-01  9.9998271600652811e-01  9.9997831271719917e-01  9.9997366777661012e-01  9.9996872967400097e-01  9.9996324161761474e-01  9.9995672431721971e-01  9.9994838617253834e-01  9.9993685688706502e-01  9.9991949153667081e-01  9.9989035100137025e-01  9.9983272623926001e-01  9.9967914362351140e-01  9.9897015763666019e-01  7.4704575392279615e-01  2.1818646366011457e-01  9.1248857215440050e-04  3.9581325519573939e-04  3.4658670090930685e-04  3.4223841134360471e-04  3.4147609271726302e-04  3.4104221351571092e-04  3.4062548069127530e-04  3.4023572857791223e-04  3.3987131338976943e-04  3.3952651392954756e-04  3.3920139675073537e-04  3.3889860283458739e-04  3.3862041778065548e-04  3.3836861392868764e-04  3.3814476867413104e-04  3.3795025608282205e-04  3.3778614516453162e-04  3.3765314799161889e-04  3.3755120229636483e-04  3.3747120140901739e-04  3.3725132780369380e-04  6.7309988879909501e-04  9.9998222999348718e-01  9.9999099522818624e-01  9.9998895247935693e-01  9.9998604906103550e-01  9.9998269652163374e-01  9.9997918173563649e-01  9.9997564142079409e-01  9.9997206172705633e-01  9.9996829771857676e-01  9.9996408895964672e-01  9.9995904695940840e-01  9.9995258531198850e-01  9.9994374678116171e-01  9.9993079500418858e-01  9.9991014967168967e-01  9.9987303529457583e-01  9.9979090052270059e-01  9.9952838576630332e-01  9.9576633890350219e-01  4.8781123866494497e-01  5.6774452286644218e-02  5.0604595466877936e-04  3.5697380535080667e-04  3.4338073950397933e-04  3.4168364572841878e-04  3.4103728069520545e-04  3.4061962286434784e-04  3.4025579783160333e-04  3.3990468809561340e-04  3.3957002525839702e-04  3.3925812474876687e-04  3.3897097372738124e-04  3.3870986798733454e-04  3.3847658759226054e-04  3.3827295457815592e-04  3.3810045122646432e-04  3.3796015393120762e-04  3.3785223610168261e-04  3.3776591559520075e-04  3.3750539540381347e-04  6.7332002925508299e-04  9.9996042566507881e-01  9.9998406993694133e-01  9.9998299919956701e-01  9.9998114851586106e-01  9.9997893962778894e-01  9.9997663175253149e-01  9.9997433443505523e-01  9.9997204252826766e-01  9.9996966380141183e-01  9.9996704106836121e-01  9.9996395607391664e-01  9.9996010881206077e-01  9.9995506166473647e-01  9.9994811980274911e-01  9.9993807123816947e-01  9.9992255836845612e-01  9.9989629518576173e-01  9.9984472202667296e-01  9.9970999737175426e-01  9.9913425205853190e-01  7.9451700164947237e-01  2.3800775305044178e-01  1.0117699981530073e-03  3.9858751494668441e-04  3.4634337991456578e-04  3.4184585911316181e-04  3.4111100758256149e-04  3.4071883972504433e-04  3.4034124864424129e-04  3.3998981773304459e-04  3.3966790826512748e-04  3.3937053544827738e-04  3.3909713071186582e-04  3.3885063006717993e-04  3.3863384884994695e-04  3.3844887311645672e-04  3.3829738988817854e-04  3.3818014467333569e-04  3.3808485780703878e-04  3.3777939717248161e-04  6.7355805066510036e-04  9.9961776368337274e-01  9.9994054036404967e-01  9.9996044274911844e-01  9.9996685727655898e-01  9.9996909159790259e-01  9.9996972328472611e-01  9.9996962015724811e-01  9.9996910780187975e-01  9.9996828503589263e-01  9.9996713797815062e-01  9.9996558436793126e-01  9.9996348477836239e-01  9.9996062972780198e-01  9.9995670018635685e-01  9.9995118452821852e-01  9.9994320439912265e-01  9.9993112130646311e-01  9.9991153232356200e-01  9.9987613541909448e-01  9.9979826167190899e-01  9.9955095886261103e-01  9.9647691228350910e-01  4.9982915854242532e-01  6.0611273737979657e-02  5.0765591354017588e-04  3.5647643902554258e-04  3.4303490593146134e-04  3.4145553619704391e-04  3.4085020277270744e-04  3.4046022043822464e-04  3.4013611870938526e-04  3.3982781416374213e-04  3.3953667961917028e-04  3.3927131706174810e-04  3.3903577886340537e-04  3.3883232462247556e-04  3.3866359871387005e-04  3.3853166628060826e-04  3.3842328719698301e-04  3.3806852088162588e-04  6.7380994016423416e-04  8.0185277732363540e-04  8.7084730267369814e-01  9.9983342641677697e-01  9.9992177518685987e-01  9.9994532000674674e-01  9.9995503668840247e-01  9.9995992533700717e-01  9.9996261577678891e-01  9.9996408986981278e-01  9.9996475509722937e-01  9.9996477393703054e-01  9.9996418359264994e-01  9.9996293844259043e-01  9.9996091549454669e-01  9.9995789293944315e-01  9.9995349525465071e-01  9.9994707754655021e-01  9.9993747333931027e-01  9.9992238011657164e-01  9.9989661341016722e-01  9.9984590965599651e-01  9.9971368467947708e-01  9.9914582037095689e-01  7.8943292333891346e-01  2.3460390250134469e-01  9.9240782547735515e-04  3.9640562495288215e-04  3.4608644908113578e-04  3.4171572592997502e-04  3.4103097253431250e-04  3.4069625558326200e-04  3.4035905410503050e-04  3.4003576346083229e-04  3.3974431151729081e-04  3.3948347378581626e-04  3.3925264287074460e-04  3.3905690104256317e-04  3.3890156006884044e-04  3.3877356039375658e-04  3.3836502539345760e-04  6.7406924654330488e-04  6.9644353250282031e-04  8.0772909912740754e-04  8.6143444016120008e-01  9.9970523843805448e-01  9.9987767202828681e-01  9.9992231968044942e-01  9.9994080479979353e-01  9.9995041890612468e-01  9.9995603393180810e-01  9.9995947815599295e-01  9.9996155269863241e-01  9.9996263620842540e-01  9.9996290121528431e-01  9.9996239790520913e-01  9.9996108264574823e-01  9.9995881512606266e-01  9.9995532610142623e-01  9.9995014003754201e-01  9.9994240527231593e-01  9.9993050288215424e-01  9.9991103864803477e-01  9.9987567912273956e-01  9.9979752641130926e-01  9.9954642123534165e-01  9.9613737061434271e-01  4.8273424060161568e-01  4.9494190432319729e-02  4.9767524166318257e-04  3.5492596925361077e-04  3.4287278504089425e-04  3.4156426334100675e-04  3.4099402825516883e-04  3.4059364471434120e-04  3.4027859336178490e-04  3.3998729607250813e-04  3.3971423592962628e-04  3.3947462893548809e-04  3.3928160007827449e-04  3.3912370120581849e-04  3.3865679246307471e-04  6.7432586174937317e-04  6.7377897717255087e-04  3.7700728619061727e-04  5.6665758447181330e-02  7.8023029844364467e-01  9.9953607531844524e-01  9.9982683693019347e-01  9.9989800747080526e-01  9.9992651396721488e-01  9.9994121506514344e-01  9.9994982414768663e-01  9.9995519721198534e-01  9.9995860337951603e-01  9.9996066703608888e-01  9.9996170427146436e-01  9.9996185962998718e-01  9.9996116240699662e-01  9.9995954202088044e-01  9.9995681339751363e-01  9.9995262637942006e-01  9.9994635177131908e-01  9.9993682679771612e-01  9.9992172965355153e-01  9.9989579687191676e-01  9.9984445693870172e-01  9.9970922675032969e-01  9.9910994427544186e-01  7.6800211972170374e-01  2.1632339640627404e-01  9.0915364459078375e-04  3.9074531907329509e-04  3.4598331488263777e-04  3.4192987040677794e-04  3.4122552073956552e-04  3.4090850292703174e-04  3.4057554611383045e-04  3.4022588041330144e-04  3.3991205828757891e-04  3.3965912341338771e-04  3.3945556546067775e-04  3.3892534290505798e-04  6.7456430926516892e-04  6.7238077153351956e-04  3.3752030385727908e-04  3.9647029539105391e-04  4.6650181380035363e-02  6.3958383785604944e-01  9.9919409528758318e-01  9.9975650295523222e-01  9.9986969612106280e-01  9.9991123857356357e-01  9.9993185367548643e-01  9.9994368365394781e-01  9.9995102769396582e-01  9.9995574947041010e-01  9.9995875753746111e-01  9.9996052298482818e-01  9.9996128710550469e-01  9.9996114944779879e-01  9.9996010141276470e-01  9.9995802714514403e-01  9.9995467340216382e-01  9.9994957244720728e-01  9.9994186979441824e-01  9.9992992474556242e-01  9.9991027324446713e-01  9.9987434106826212e-01  9.9979408701427852e-01  9.9953005949279217e-01  9.9483609085169533e-01  4.5436958707709002e-01  3.0243302035927472e-02  4.7647350049078449e-04  3.5228609277150223e-04  3.4274130968520096e-04  3.4186948618318959e-04  3.4132185011706090e-04  3.4079324897920719e-04  3.4035925825574138e-04  3.4001615013165413e-04  3.3974327238009427e-04  3.3914321730671107e-04  6.7476135544672746e-04  6.7308325859559209e-04  3.3759065581306143e-04  3.4146445958161797e-04  3.9849964756583317e-04  4.7704742041098456e-03  4.6281191195210691e-01  9.9781727868553038e-01  9.9964081555274031e-01  9.9983272124419753e-01  9.9989347499397241e-01  9.9992158030915412e-01  9.9993716419161938e-01  9.9994669028292837e-01  9.9995281067980757e-01  9.9995678843838909e-01  9.9995927984430355e-01  9.9996063469400853e-01  9.9996102512927965e-01  9.9996050114545487e-01  9.9995900672715443e-01  9.9995636586106484e-01  9.9995223174334991e-01  9.9994597077356240e-01  9.9993640088308589e-01  9.9992114279776412e-01  9.9989475197130051e-01  9.9984194268102367e-01  9.9969969788167179e-01  9.9902793588350169e-01  7.2848054889966074e-01  1.8169274520805090e-01  7.6066450837782061e-04  3.7884916606714431e-04  3.4566542477797299e-04  3.4242647510118501e-04  3.4141583021132338e-04  3.4080008335348600e-04  3.4033481503076485e-04  3.3995387624165296e-04  3.3927031370773147e-04  6.7488221688199123e-04  6.7407635271964723e-04  3.3839442244881779e-04  3.4003303151812665e-04  3.4299862499022750e-04  3.7715223187195454e-04  9.9681366440925226e-04  2.7153954553052917e-01  9.0689095684346221e-01  9.9942605683525287e-01  9.9977784863456765e-01  9.9987061177282011e-01  9.9990931794391402e-01  9.9992974780820543e-01  9.9994189544209799e-01  9.9994960610694339e-01  9.9995464255063238e-01  9.9995789995061179e-01  9.9995985753004013e-01  9.9996076819188340e-01  9.9996074172402594e-01  9.9995977721609353e-01  9.9995776359410926e-01  9.9995444883359053e-01  9.9994936075731788e-01  9.9994162868649272e-01  9.9992956613828943e-01  9.9990957481486409e-01  9.9987261071668299e-01  9.9978825976220653e-01  9.9949721405128311e-01  9.8764318729897138e-01  3.9434810616501009e-01  5.9727560893883059e-03  4.3934603489200581e-04  3.4927771216053865e-04  3.4235951943953054e-04  3.4127725041288332e-04  3.4062308958043147e-04  3.4005520254815628e-04  3.3924711068133100e-04  6.7487277429983299e-04  6.7464676488134076e-04  3.3898443855753823e-04  3.4004023099845236e-04  3.4104604254753696e-04  3.4254033065922842e-04  3.5767597074206074e-04  5.6287862109061779e-04  1.2457665310936375e-01  6.509694317