<?xml version="1.0"?>
<VTKFile type="UnstructuredGrid"  version="0.1"  >
<UnstructuredGrid>
<Piece  NumberOfPoints="1681" NumberOfCells="3200">
<Points>
<DataArray  type="Float64"  NumberOfComponents="3"  format="ascii">0 0 0  0.025 0 0  0.05 0 0  0.075 0 0  0.1 0 0  0.125 0 0  0.15 0 0  0.175 0 0  0.2 0 0  0.225 0 0  0.25 0 0  0.275 0 0  0.3 0 0  0.325 0 0  0.35 0 0  0.375 0 0  0.4 0 0  0.425 0 0  0.45 0 0  0.475 0 0  0.5 0 0  0.525 0 0  0.55 0 0  0.575 0 0  0.6 0 0  0.625 0 0  0.65 0 0  0.675 0 0  0.7 0 0  0.725 0 0  0.75 0 0  0.775 0 0  0.8 0 0  0.825 0 0  0.85 0 0  0.875 0 0  0.9 0 0  0.925 0 0  0.95 0 0  0.975 0 0  1 0 0  0 0.025 0  0.025 0.025 0  0.05 0.025 0  0.075 0.025 0  0.1 0.025 0  0.125 0.025 0  0.15 0.025 0  0.175 0.025 0  0.2 0.025 0  0.225 0.025 0  0.25 0.025 0  0.275 0.025 0  0.3 0.025 0  0.325 0.025 0  0.35 0.025 0  0.375 0.025 0  0.4 0.025 0  0.425 0.025 0  0.45 0.025 0  0.475 0.025 0  0.5 0.025 0  0.525 0.025 0  0.55 0.025 0  0.575 0.025 0  0.6 0.025 0  0.625 0.025 0  0.65 0.025 0  0.675 0.025 0  0.7 0.025 0  0.725 0.025 0  0.75 0.025 0  0.775 0.025 0  0.8 0.025 0  0.825 0.025 0  0.85 0.025 0  0.875 0.025 0  0.9 0.025 0  0.925 0.025 0  0.95 0.025 0  0.975 0.025 0  1 0.025 0  0 0.05 0  0.025 0.05 0  0.05 0.05 0  0.075 0.05 0  0.1 0.05 0  0.125 0.05 0  0.15 0.05 0  0.175 0.05 0  0.2 0.05 0  0.225 0.05 0  0.25 0.05 0  0.275 0.05 0  0.3 0.05 0  0.325 0.05 0  0.35 0.05 0  0.375 0.05 0  0.4 0.05 0  0.425 0.05 0  0.45 0.05 0  0.475 0.05 0  0.5 0.05 0  0.525 0.05 0  0.55 0.05 0  0.575 0.05 0  0.6 0.05 0  0.625 0.05 0  0.65 0.05 0  0.675 0.05 0  0.7 0.05 0  0.725 0.05 0  0.75 0.05 0  0.775 0.05 0  0.8 0.05 0  0.825 0.05 0  0.85 0.05 0  0.875 0.05 0  0.9 0.05 0  0.925 0.05 0  0.95 0.05 0  0.975 0.05 0  1 0.05 0  0 0.075 0  0.025 0.075 0  0.05 0.075 0  0.075 0.075 0  0.1 0.075 0  0.125 0.075 0  0.15 0.075 0  0.175 0.075 0  0.2 0.075 0  0.225 0.075 0  0.25 0.075 0  0.275 0.075 0  0.3 0.075 0  0.325 0.075 0  0.35 0.075 0  0.375 0.075 0  0.4 0.075 0  0.425 0.075 0  0.45 0.075 0  0.475 0.075 0  0.5 0.075 0  0.525 0.075 0  0.55 0.075 0  0.575 0.075 0  0.6 0.075 0  0.625 0.075 0  0.65 0.075 0  0.675 0.075 0  0.7 0.075 0  0.725 0.075 0  0.75 0.075 0  0.775 0.075 0  0.8 0.075 0  0.825 0.075 0  0.85 0.075 0  0.875 0.075 0  0.9 0.075 0  0.925 0.075 0  0.95 0.075 0  0.975 0.075 0  1 0.075 0  0 0.1 0  0.025 0.1 0  0.05 0.1 0  0.075 0.1 0  0.1 0.1 0  0.125 0.1 0  0.15 0.1 0  0.175 0.1 0  0.2 0.1 0  0.225 0.1 0  0.25 0.1 0  0.275 0.1 0  0.3 0.1 0  0.325 0.1 0  0.35 0.1 0  0.375 0.1 0  0.4 0.1 0  0.425 0.1 0  0.45 0.1 0  0.475 0.1 0  0.5 0.1 0  0.525 0.1 0  0.55 0.1 0  0.575 0.1 0  0.6 0.1 0  0.625 0.1 0  0.65 0.1 0  0.675 0.1 0  0.7 0.1 0  0.725 0.1 0  0.75 0.1 0  0.775 0.1 0  0.8 0.1 0  0.825 0.1 0  0.85 0.1 0  0.875 0.1 0  0.9 0.1 0  0.925 0.1 0  0.95 0.1 0  0.975 0.1 0  1 0.1 0  0 0.125 0  0.025 0.125 0  0.05 0.125 0  0.075 0.125 0  0.1 0.125 0  0.125 0.125 0  0.15 0.125 0  0.175 0.125 0  0.2 0.125 0  0.225 0.125 0  0.25 0.125 0  0.275 0.125 0  0.3 0.125 0  0.325 0.125 0  0.35 0.125 0  0.375 0.125 0  0.4 0.125 0  0.425 0.125 0  0.45 0.125 0  0.475 0.125 0  0.5 0.125 0  0.525 0.125 0  0.55 0.125 0  0.575 0.125 0  0.6 0.125 0  0.625 0.125 0  0.65 0.125 0  0.675 0.125 0  0.7 0.125 0  0.725 0.125 0  0.75 0.125 0  0.775 0.125 0  0.8 0.125 0  0.825 0.125 0  0.85 0.125 0  0.875 0.125 0  0.9 0.125 0  0.925 0.125 0  0.95 0.125 0  0.975 0.125 0  1 0.125 0  0 0.15 0  0.025 0.15 0  0.05 0.15 0  0.075 0.15 0  0.1 0.15 0  0.125 0.15 0  0.15 0.15 0  0.175 0.15 0  0.2 0.15 0  0.225 0.15 0  0.25 0.15 0  0.275 0.15 0  0.3 0.15 0  0.325 0.15 0  0.35 0.15 0  0.375 0.15 0  0.4 0.15 0  0.425 0.15 0  0.45 0.15 0  0.475 0.15 0  0.5 0.15 0  0.525 0.15 0  0.55 0.15 0  0.575 0.15 0  0.6 0.15 0  0.625 0.15 0  0.65 0.15 0  0.675 0.15 0  0.7 0.15 0  0.725 0.15 0  0.75 0.15 0  0.775 0.15 0  0.8 0.15 0  0.825 0.15 0  0.85 0.15 0  0.875 0.15 0  0.9 0.15 0  0.925 0.15 0  0.95 0.15 0  0.975 0.15 0  1 0.15 0  0 0.175 0  0.025 0.175 0  0.05 0.175 0  0.075 0.175 0  0.1 0.175 0  0.125 0.175 0  0.15 0.175 0  0.175 0.175 0  0.2 0.175 0  0.225 0.175 0  0.25 0.175 0  0.275 0.175 0  0.3 0.175 0  0.325 0.175 0  0.35 0.175 0  0.375 0.175 0  0.4 0.175 0  0.425 0.175 0  0.45 0.175 0  0.475 0.175 0  0.5 0.175 0  0.525 0.175 0  0.55 0.175 0  0.575 0.175 0  0.6 0.175 0  0.625 0.175 0  0.65 0.175 0  0.675 0.175 0  0.7 0.175 0  0.725 0.175 0  0.75 0.175 0  0.775 0.175 0  0.8 0.175 0  0.825 0.175 0  0.85 0.175 0  0.875 0.175 0  0.9 0.175 0  0.925 0.175 0  0.95 0.175 0  0.975 0.175 0  1 0.175 0  0 0.2 0  0.025 0.2 0  0.05 0.2 0  0.075 0.2 0  0.1 0.2 0  0.125 0.2 0  0.15 0.2 0  0.175 0.2 0  0.2 0.2 0  0.225 0.2 0  0.25 0.2 0  0.275 0.2 0  0.3 0.2 0  0.325 0.2 0  0.35 0.2 0  0.375 0.2 0  0.4 0.2 0  0.425 0.2 0  0.45 0.2 0  0.475 0.2 0  0.5 0.2 0  0.525 0.2 0  0.55 0.2 0  0.575 0.2 0  0.6 0.2 0  0.625 0.2 0  0.65 0.2 0  0.675 0.2 0  0.7 0.2 0  0.725 0.2 0  0.75 0.2 0  0.775 0.2 0  0.8 0.2 0  0.825 0.2 0  0.85 0.2 0  0.875 0.2 0  0.9 0.2 0  0.925 0.2 0  0.95 0.2 0  0.975 0.2 0  1 0.2 0  0 0.225 0  0.025 0.225 0  0.05 0.225 0  0.075 0.225 0  0.1 0.225 0  0.125 0.225 0  0.15 0.225 0  0.175 0.225 0  0.2 0.225 0  0.225 0.225 0  0.25 0.225 0  0.275 0.225 0  0.3 0.225 0  0.325 0.225 0  0.35 0.225 0  0.375 0.225 0  0.4 0.225 0  0.425 0.225 0  0.45 0.225 0  0.475 0.225 0  0.5 0.225 0  0.525 0.225 0  0.55 0.225 0  0.575 0.225 0  0.6 0.225 0  0.625 0.225 0  0.65 0.225 0  0.675 0.225 0  0.7 0.225 0  0.725 0.225 0  0.75 0.225 0  0.775 0.225 0  0.8 0.225 0  0.825 0.225 0  0.85 0.225 0  0.875 0.225 0  0.9 0.225 0  0.925 0.225 0  0.95 0.225 0  0.975 0.225 0  1 0.225 0  0 0.25 0  0.025 0.25 0  0.05 0.25 0  0.075 0.25 0  0.1 0.25 0  0.125 0.25 0  0.15 0.25 0  0.175 0.25 0  0.2 0.25 0  0.225 0.25 0  0.25 0.25 0  0.275 0.25 0  0.3 0.25 0  0.325 0.25 0  0.35 0.25 0  0.375 0.25 0  0.4 0.25 0  0.425 0.25 0  0.45 0.25 0  0.475 0.25 0  0.5 0.25 0  0.525 0.25 0  0.55 0.25 0  0.575 0.25 0  0.6 0.25 0  0.625 0.25 0  0.65 0.25 0  0.675 0.25 0  0.7 0.25 0  0.725 0.25 0  0.75 0.25 0  0.775 0.25 0  0.8 0.25 0  0.825 0.25 0  0.85 0.25 0  0.875 0.25 0  0.9 0.25 0  0.925 0.25 0  0.95 0.25 0  0.975 0.25 0  1 0.25 0  0 0.275 0  0.025 0.275 0  0.05 0.275 0  0.075 0.275 0  0.1 0.275 0  0.125 0.275 0  0.15 0.275 0  0.175 0.275 0  0.2 0.275 0  0.225 0.275 0  0.25 0.275 0  0.275 0.275 0  0.3 0.275 0  0.325 0.275 0  0.35 0.275 0  0.375 0.275 0  0.4 0.275 0  0.425 0.275 0  0.45 0.275 0  0.475 0.275 0  0.5 0.275 0  0.525 0.275 0  0.55 0.275 0  0.575 0.275 0  0.6 0.275 0  0.625 0.275 0  0.65 0.275 0  0.675 0.275 0  0.7 0.275 0  0.725 0.275 0  0.75 0.275 0  0.775 0.275 0  0.8 0.275 0  0.825 0.275 0  0.85 0.275 0  0.875 0.275 0  0.9 0.275 0  0.925 0.275 0  0.95 0.275 0  0.975 0.275 0  1 0.275 0  0 0.3 0  0.025 0.3 0  0.05 0.3 0  0.075 0.3 0  0.1 0.3 0  0.125 0.3 0  0.15 0.3 0  0.175 0.3 0  0.2 0.3 0  0.225 0.3 0  0.25 0.3 0  0.275 0.3 0  0.3 0.3 0  0.325 0.3 0  0.35 0.3 0  0.375 0.3 0  0.4 0.3 0  0.425 0.3 0  0.45 0.3 0  0.475 0.3 0  0.5 0.3 0  0.525 0.3 0  0.55 0.3 0  0.575 0.3 0  0.6 0.3 0  0.625 0.3 0  0.65 0.3 0  0.675 0.3 0  0.7 0.3 0  0.725 0.3 0  0.75 0.3 0  0.775 0.3 0  0.8 0.3 0  0.825 0.3 0  0.85 0.3 0  0.875 0.3 0  0.9 0.3 0  0.925 0.3 0  0.95 0.3 0  0.975 0.3 0  1 0.3 0  0 0.325 0  0.025 0.325 0  0.05 0.325 0  0.075 0.325 0  0.1 0.325 0  0.125 0.325 0  0.15 0.325 0  0.175 0.325 0  0.2 0.325 0  0.225 0.325 0  0.25 0.325 0  0.275 0.325 0  0.3 0.325 0  0.325 0.325 0  0.35 0.325 0  0.375 0.325 0  0.4 0.325 0  0.425 0.325 0  0.45 0.325 0  0.475 0.325 0  0.5 0.325 0  0.525 0.325 0  0.55 0.325 0  0.575 0.325 0  0.6 0.325 0  0.625 0.325 0  0.65 0.325 0  0.675 0.325 0  0.7 0.325 0  0.725 0.325 0  0.75 0.325 0  0.775 0.325 0  0.8 0.325 0  0.825 0.325 0  0.85 0.325 0  0.875 0.325 0  0.9 0.325 0  0.925 0.325 0  0.95 0.325 0  0.975 0.325 0  1 0.325 0  0 0.35 0  0.025 0.35 0  0.05 0.35 0  0.075 0.35 0  0.1 0.35 0  0.125 0.35 0  0.15 0.35 0  0.175 0.35 0  0.2 0.35 0  0.225 0.35 0  0.25 0.35 0  0.275 0.35 0  0.3 0.35 0  0.325 0.35 0  0.35 0.35 0  0.375 0.35 0  0.4 0.35 0  0.425 0.35 0  0.45 0.35 0  0.475 0.35 0  0.5 0.35 0  0.525 0.35 0  0.55 0.35 0  0.575 0.35 0  0.6 0.35 0  0.625 0.35 0  0.65 0.35 0  0.675 0.35 0  0.7 0.35 0  0.725 0.35 0  0.75 0.35 0  0.775 0.35 0  0.8 0.35 0  0.825 0.35 0  0.85 0.35 0  0.875 0.35 0  0.9 0.35 0  0.925 0.35 0  0.95 0.35 0  0.975 0.35 0  1 0.35 0  0 0.375 0  0.025 0.375 0  0.05 0.375 0  0.075 0.375 0  0.1 0.375 0  0.125 0.375 0  0.15 0.375 0  0.175 0.375 0  0.2 0.375 0  0.225 0.375 0  0.25 0.375 0  0.275 0.375 0  0.3 0.375 0  0.325 0.375 0  0.35 0.375 0  0.375 0.375 0  0.4 0.375 0  0.425 0.375 0  0.45 0.375 0  0.475 0.375 0  0.5 0.375 0  0.525 0.375 0  0.55 0.375 0  0.575 0.375 0  0.6 0.375 0  0.625 0.375 0  0.65 0.375 0  0.675 0.375 0  0.7 0.375 0  0.725 0.375 0  0.75 0.375 0  0.775 0.375 0  0.8 0.375 0  0.825 0.375 0  0.85 0.375 0  0.875 0.375 0  0.9 0.375 0  0.925 0.375 0  0.95 0.375 0  0.975 0.375 0  1 0.375 0  0 0.4 0  0.025 0.4 0  0.05 0.4 0  0.075 0.4 0  0.1 0.4 0  0.125 0.4 0  0.15 0.4 0  0.175 0.4 0  0.2 0.4 0  0.225 0.4 0  0.25 0.4 0  0.275 0.4 0  0.3 0.4 0  0.325 0.4 0  0.35 0.4 0  0.375 0.4 0  0.4 0.4 0  0.425 0.4 0  0.45 0.4 0  0.475 0.4 0  0.5 0.4 0  0.525 0.4 0  0.55 0.4 0  0.575 0.4 0  0.6 0.4 0  0.625 0.4 0  0.65 0.4 0  0.675 0.4 0  0.7 0.4 0  0.725 0.4 0  0.75 0.4 0  0.775 0.4 0  0.8 0.4 0  0.825 0.4 0  0.85 0.4 0  0.875 0.4 0  0.9 0.4 0  0.925 0.4 0  0.95 0.4 0  0.975 0.4 0  1 0.4 0  0 0.425 0  0.025 0.425 0  0.05 0.425 0  0.075 0.425 0  0.1 0.425 0  0.125 0.425 0  0.15 0.425 0  0.175 0.425 0  0.2 0.425 0  0.225 0.425 0  0.25 0.425 0  0.275 0.425 0  0.3 0.425 0  0.325 0.425 0  0.35 0.425 0  0.375 0.425 0  0.4 0.425 0  0.425 0.425 0  0.45 0.425 0  0.475 0.425 0  0.5 0.425 0  0.525 0.425 0  0.55 0.425 0  0.575 0.425 0  0.6 0.425 0  0.625 0.425 0  0.65 0.425 0  0.675 0.425 0  0.7 0.425 0  0.725 0.425 0  0.75 0.425 0  0.775 0.425 0  0.8 0.425 0  0.825 0.425 0  0.85 0.425 0  0.875 0.425 0  0.9 0.425 0  0.925 0.425 0  0.95 0.425 0  0.975 0.425 0  1 0.425 0  0 0.45 0  0.02
[...]
<PointData  Scalars="ControlVisualisation"> 
<DataArray  type="Float64"  Name="ControlVisualisation"  format="ascii">2.0258066920208942e-01  1.3860640264842250e-01  1.3861455022898533e-01  1.3864351749923548e-01  1.3869687814587953e-01  1.3877426702014745e-01  1.3887444921763548e-01  1.3899606097055203e-01  1.3913765219997604e-01  1.3929761909187649e-01  1.3947419273288786e-01  1.3966546097598870e-01  1.3986939994729231e-01  1.4008389951298234e-01  1.4030677430808228e-01  1.4053575612113764e-01  1.4076846565291778e-01  1.4100236319556927e-01  1.4123467890457708e-01  1.4146232421143756e-01  1.4168178665887415e-01  1.4188901112474439e-01  1.4207927110044241e-01  1.4224703433121455e-01  1.4238582752687379e-01  1.4248810507056722e-01  1.4254512814401729e-01  1.4254687017442977e-01  1.4248199770917039e-01  1.4233807092844245e-01  1.4210231233610435e-01  1.4176361946458121e-01  1.4131694018144692e-01  1.4077092176547695e-01  1.4015826215001898e-01  1.3954485267564215e-01  1.3902462096602045e-01  1.3869064639261861e-01  1.3857543604953096e-01  1.3859370834048212e-01  3.2373011512920224e-01  1.3860638911829704e-01  8.9816844373852442e-02  8.9857098169973976e-02  8.9941932792411777e-02  9.0079629812099632e-02  9.0271059753584640e-02  9.0514193367383367e-02  9.0806117524625779e-02  9.1143442916295392e-02  9.1522394934213533e-02  9.1938869816597518e-02  9.2388502874003686e-02  9.2866732479989778e-02  9.3368832210802916e-02  9.3889893756156695e-02  9.4424751940560228e-02  9.4967850851916114e-02  9.5513057121109829e-02  9.6053433234266100e-02  9.6580990700221983e-02  9.7086449994593330e-02  9.7559041049527589e-02  9.7986383273224911e-02  9.8354484484688684e-02  9.8647888119141769e-02  9.8849970206059457e-02  9.8943337465800585e-02  9.8910216849677365e-02  9.8732703197740398e-02  9.8392859650604486e-02  9.7873081907079357e-02  9.7157950758964551e-02  9.6239737105141332e-02  9.5129710942593954e-02  9.3875793630456297e-02  9.2580127722330832e-02  9.1398682159780850e-02  9.0504552018833964e-02  8.9993765161112835e-02  8.9808689000689279e-02  1.3859323931677808e-01  1.3861439988127106e-01  8.9856968059872394e-02  8.9964665805113392e-02  9.0142402677164821e-02  9.0416173889296458e-02  9.0792585879540644e-02  9.1269974192849004e-02  9.1843781216348966e-02  9.2508495981058189e-02  9.3258588831592867e-02  9.4089077707834687e-02  9.4996012952219128e-02  9.5976865790589797e-02  9.7030746340395407e-02  9.8158369672168178e-02  9.9361695107759357e-02  1.0064317507192877e-01  1.0200456051864537e-01  1.0344522018544774e-01  1.0495994333315367e-01  1.0653621749864495e-01  1.0815101844858138e-01  1.0976724285311709e-01  1.1133008958665550e-01  1.1276399396401757e-01  1.1397117235518650e-01  1.1483342543394384e-01  1.1521943328384993e-01  1.1499995300121141e-01  1.1407232093914429e-01  1.1239228071734134e-01  1.1000483688237581e-01  1.0705795022905831e-01  1.0378201121735170e-01  1.0043639094890133e-01  9.7256961613579829e-02  9.4458833896529357e-02  9.2257679321583283e-02  9.0778055952595374e-02  8.9968975145543376e-02  1.3856055422658223e-01  1.3864296680781910e-01  8.9941308622325342e-02  9.0142300613108475e-02  9.0388051556618665e-02  9.0733283591598005e-02  9.1196563699458721e-02  9.1781937176759129e-02  9.2487611652432966e-02  9.3310153093267817e-02  9.4246777091219230e-02  9.5296876084590171e-02  9.6463327339291388e-02  9.7753636086252912e-02  9.9180805930350086e-02  1.0076374147856570e-01  1.0252695107505966e-01  1.0449929778576511e-01  1.0671153530737731e-01  1.0919236201686178e-01  1.1196273919635760e-01  1.1502827117775852e-01  1.1836957949390808e-01  1.2193089083884012e-01  1.2560759727329179e-01  1.2923444574276749e-01  1.3257735099993792e-01  1.3533356292195897e-01  1.3714674893324702e-01  1.3764463146096878e-01  1.3650541181970435e-01  1.3355214926906012e-01  1.2885804131988382e-01  1.2281807238510528e-01  1.1612071409239874e-01  1.0956417666372636e-01  1.0377000470785189e-01  9.9003913181318071e-02  9.5234452314870377e-02  9.2365119679045884e-02  9.0391588695152347e-02  1.3859490510056818e-01  1.3869577884945394e-01  9.0078027542892750e-02  9.0416901075583311e-02  9.0735991827436274e-02  9.1132795949067105e-02  9.1644819246613468e-02  9.2285617730382852e-02  9.3058313560499997e-02  9.3962828525570974e-02  9.4999849777787998e-02  9.6173459645802414e-02  9.7493315659805221e-02  9.8976622499710093e-02  1.0064981494054825e-01  1.0254969378410875e-01  1.0472366301091696e-01  1.0722865387229358e-01  1.1012827995696878e-01  1.1348774641626488e-01  1.1736605018755372e-01  1.2180508776288104e-01  1.2681548775394569e-01  1.3235938651583962e-01  1.3833105897862277e-01  1.4453737980640199e-01  1.5068153244822818e-01  1.5635509574084752e-01  1.6104535148548499e-01  1.6416592712744288e-01  1.6511906572486476e-01  1.6339553034815538e-01  1.5871146088164043e-01  1.5116401137603219e-01  1.4136028414254714e-01  1.3040989922484741e-01  1.1968569859102235e-01  1.1027622454034941e-01  1.0250318699052535e-01  9.6165384450827035e-02  9.1369922716468585e-02  1.3875964452446837e-01  1.3877295578071558e-01  9.0268244919603835e-02  9.0797239156635928e-02  9.1208641047491809e-02  9.1656327278753086e-02  9.2204625353085753e-02  9.2880425327407520e-02  9.3693356830980998e-02  9.4647328148521684e-02  9.5746761470277997e-02  9.7000498624109671e-02  9.8424847893460635e-02  1.0004630607536930e-01  1.0190395741639863e-01  1.0405129682736355e-01  1.0655709514137671e-01  1.0950485180505848e-01  1.1299034555882151e-01  1.1711679302037323e-01  1.2198717072312854e-01  1.2769337390795962e-01  1.3430211541454018e-01  1.4183785891989459e-01  1.5026367147902706e-01  1.5946166784928678e-01  1.6921561676959146e-01  1.7919908321365349e-01  1.8897285646360315e-01  1.9799491550193243e-01  2.0564421940046348e-01  2.1125530776108473e-01  2.1415417157590413e-01  2.1367565526239740e-01  2.0914598815008828e-01  1.9981121975910843e-01  1.8485897800196907e-01  1.6350255138986144e-01  1.3663994780584579e-01  1.0997390415418712e-01  9.3734144203758793e-02  1.3891052556211686e-01  1.3887411516877304e-01  9.0510637642370162e-02  9.1285677793847164e-02  9.1817091203317949e-02  9.2325513894698508e-02  9.2910401667010006e-02  9.3616902573543451e-02  9.4463432818000043e-02  9.5459105340373857e-02  9.6613146104581979e-02  9.7940432681958678e-02  9.9465516691214090e-02  1.0122606674553683e-01  1.0327586765696076e-01  1.0568717534432839e-01  1.0855209204295185e-01  1.1198259640793762e-01  1.1610889894269477e-01  1.2107588455772378e-01  1.2703755526197802e-01  1.3414960858313399e-01  1.4256059680057678e-01  1.5240252022156814e-01  1.6378221389204833e-01  1.7677547123038836e-01  1.9142647585354153e-01  2.0775574983046574e-01  2.2578040809213229e-01  2.4555070701882326e-01  2.6720518050796188e-01  2.9103861109979751e-01  3.1755158148056378e-01  3.4738355967474893e-01  3.8091058700302305e-01  4.1705229937936034e-01  4.5069737039681473e-01  4.6706274579066281e-01  4.3213467005685202e-01  2.8098312991671615e-01  1.1635560586816654e-01  1.4264282788525484e-01  1.3899912239586176e-01  9.0803548673330889e-02  9.1884160915085888e-02  9.2571003434563551e-02  9.3157155713114448e-02  9.3785899430269215e-02  9.4526852613838253e-02  9.5410437213516996e-02  9.6452993277814203e-02  9.7670548637309854e-02  9.9086541588032678e-02  1.0073705319563042e-01  1.0267502093192346e-01  1.0497375945793902e-01  1.0772968012780745e-01  1.1106399302538320e-01  1.1512324197352555e-01  1.2007869635710822e-01  1.2612488173226857e-01  1.3347786886125645e-01  1.4237435941137314e-01  1.5307310827993204e-01  1.6586080429569774e-01  1.8106517980774361e-01  1.9907880762573588e-01  2.2039770157927854e-01  2.4567921355563493e-01  2.7582284864670359e-01  3.1207222155308462e-01  3.5611705520132880e-01  4.1011957886130612e-01  4.7646538361584301e-01  5.5685118040730186e-01  6.5028461032766993e-01  7.5017435099331486e-01  8.4217624178130668e-01  9.0582763231261498e-01  9.2804754766112452e-01  9.2531678949905205e-01  9.0651308921375240e-01  4.0484368811995808e-01  1.3914816247575892e-01  9.1145602530244590e-02  9.2597309280395362e-02  9.3484941477564268e-02  9.4173022233936698e-02  9.4858242769067139e-02  9.5642687773041302e-02  9.6573251766388521e-02  9.7676564913415323e-02  9.8978619205949941e-02  1.0051542267711891e-01  1.0233976671696912e-01  1.0452627904094494e-01  1.0717534563621062e-01  1.1041593935448427e-01  1.1440734883481879e-01  1.1934001789021695e-01  1.2543607035508586e-01  1.3295056429941851e-01  1.4217507477238786e-01  1.5344584058755725e-01  1.6715941981615218e-01  1.8379953583785491e-01  2.0397939171442880e-01  2.2850365269951894e-01  2.5845201077622848e-01  2.9527761611930864e-01  3.4088847447757753e-01  3.9761663012376230e-01  4.6784823059257075e-01  5.5290360487901680e-01  6.5078897511591771e-01  7.5343911457544788e-01  8.4616606763197144e-01  9.1206363281881386e-01  9.4041648989341198e-01  9.3927986357757520e-01  9.4015348521849063e-01  9.5785505171116292e-01  9.6685560557563555e-01  9.3301052464202650e-01  1.3932171755316825e-01  9.1536160111187634e-02  9.3435427163568813e-02  9.4584691117262421e-02  9.5409040085553731e-02  9.6169956593628328e-02  9.7012802170746079e-02  9.8007290549784881e-02  9.9194949838439184e-02  1.0061660248033374e-01  1.0232692083417405e-01  1.0440308908889892e-01  1.0695065629732220e-01  1.1010751523649751e-01  1.1404628181584009e-01  1.1897541578659027e-01  1.2513983671380088e-01  1.3282236178715232e-01  1.4234793593883521e-01  1.5409329623066070e-01  1.6850538270441126e-01  1.8613240535006079e-01  2.0767174351667078e-01  2.3403797485415762e-01  2.6645001699538373e-01  3.0652274081448222e-01  3.5631190863588869e-01  4.1817619000526063e-01  4.9416050841831888e-01  5.8444084455773049e-01  6.8465524501933828e-01  7.8363380266420479e-01  8.6552788460918073e-01  9.1799976651651050e-01  9.3982802900043150e-01  9.4245952145169365e-01  9.4625865580705359e-01  9.6103182610895832e-01  9.7502619205398500e-01  9.7964166333714164e-01  9.6846110865877921e-01  1.3952061950986169e-01  9.1975948018797091e-02  9.4418513023556097e-02  9.5915914207272343e-02  9.6927716794853208e-02  9.7794434188620799e-02  9.8720046261292868e-02  9.9806512268659109e-02  1.0111736272926233e-01  1.0271576780243971e-01  1.0468423597073534e-01  1.0713544952675078e-01  1.1021852342477684e-01  1.1412213373647118e-01  1.1907520460144855e-01  1.2534607758024907e-01  1.3324171831758755e-01  1.4310922592765069e-01  1.5534253864076336e-01  1.7039768879786849e-01  1.8882016898045911e-01  2.1128769823012905e-01  2.3867019594221570e-01  2.7210406963487593e-01  3.1306502763154725e-01  3.6339156810214246e-01  4.2514020981853085e-01  5.0002432458969981e-01  5.8805302392702885e-01  6.8518609222746263e-01  7.8115961612923579e-01  8.6104724401320443e-01  9.1311478712457150e-01  9.3701494868526214e-01  9.4308998103257391e-01  9.4524575023760382e-01  9.5363721923918654e-01  9.6665938857936684e-01  9.7739502233396658e-01  9.8294008321714210e-01  9.7647389625353265e-01  1.3974615871685775e-01  9.2467970624966839e-02  9.5582198759219070e-02  9.7557617285654818e-02  9.8838002207571288e-02  9.9860782534514830e-02  1.0091112088126392e-01  1.0213786756116514e-01  1.0363784535510495e-01  1.0550827973265683e-01  1.0787317840039901e-01  1.1089627226492407e-01  1.1478644783400013e-01  1.1979796293798053e-01  1.2622694221408995e-01  1.3440611691974211e-01  1.4470056297362605e-01  1.5750779082277949e-01  1.7326571272517974e-01  1.9247166707662758e-01  2.1571471779769008e-01  2.4372147876560468e-01  2.7741152567199295e-01  3.1794905014558272e-01  3.6675644044935551e-01  4.2541189534743373e-01  4.9527561075258170e-01  5.7659666550841993e-01  6.6689741084526866e-01  7.5905062166542125e-01  8.4104880342493538e-01  9.0043661630636862e-01  9.3235615994411680e-01  9.4311149825427387e-01  9.4450933616446908e-01  9.4610881621878440e-01  9.5274084424468508e-01  9.6388212573893184e-01  9.7434182042549844e-01  9.7986312832618960e-01  9.7524166733548046e-01  1.4000022309181587e-01  9.3018737668839988e-02  9.6986440915055747e-02  9.9643542681654595e-02  1.0132858077655960e-01  1.0259682566462397e-01  1.0384838535363689e-01  1.0530257795022310e-01  1.0710791719611662e-01  1.0941395060874198e-01  1.1240603478534852e-01  1.1631937855577376e-01  1.2144070130338894e-01  1.2810144481585595e-01  1.3666577573767485e-01  1.4751731593459982e-01  1.6104917818742506e-01  1.7766175123496408e-01  1.9777160345928879e-01  2.2183298943075377e-01  2.5037085573595824e-01  2.8402061488299790e-01  3.2356399640098454e-01  3.6993916275372335e-01  4.2418229179534417e-01  4.8722205386234507e-01  5.5940243745781681e-01  6.3959930016519451e-01  7.2397281295504490e-01  8.0501859417096966e-01  8.7255481241859312e-01  9.1808114737909752e-01  9.4040591777446436e-01  9.4660529571095009e-01  9.4621891636646249e-01  9.4510353281505621e-01  9.4578678148257544e-01  9.5151097944103380e-01  9.6228696375911660e-01  9.6953155858251427e-01  9.5082842144317514e-01  1.4028543628278425e-01  9.3639784537807330e-02  9.8727931521882362e-02  1.0239613408909432e-01  1.0472442044903360e-01  1.0640535611892618e-01  1.0800429086639016e-01  1.0984971499226026e-01  1.1217219117471988e-01  1.1520166853406816e-01  1.1921199052986445e-01  1.2453293633774140e-01  1.3154213648616775e-01  1.4064443957157094e-01  1.5224583073442938e-01  1.6672949991485858e-01  1.8444107270901292e-01  2.0568775660369737e-01  2.3075268600027873e-01  2.5992193232394545e-01  2.9351805791182439e-01  3.3193054161243590e-01  3.7562876659144195e-01  4.2513567968116966e-01  4.8092796367886520e-01  5.4321269336718658e-01  6.1152238538242953e-01  6.8410741312075052e-01  7.5726480637386950e-01  8.2509717983401276e-01  8.8057112370114010e-01  9.1838106496506877e-01  9.3826015119488659e-01  9.4551117727147282e-01  9.4724278181808697e-01  9.4742906890662315e-01  9.4550976223398320e-01  9.4032755951156255e-01  9.3446004677885663e-01  9.2478270576908939e-01  7.5513665737106495e-01  1.4060524587555800e-01  9.4349376474686039e-02  1.0095740479142029e-01  1.0618037187996401e-01  1.0958354689796332e-01  1.1200125963199237e-01  1.1423667674353541e-01  1.1679083679746513e-01  1.2002593074495249e-01  1.2429329957280316e-01  1.2998702990975153e-01  1.3754697543496086e-01  1.4743108735316121e-01  1.6007288000890169e-01  1.7583896080075953e-01  1.9499962226959222e-01  2.1772067658098726e-01  2.4407793566591957e-01  2.7408925584700294e-01  3.0775469569518876e-01  3.4509347667454549e-01  3.8616612302469699e-01  4.3106982856139137e-01  4.7989353773399857e-01  5.3261656576403915e-01  5.8893378520237794e-01  6.4799986649325181e-01  7.0812148159934929e-01  7.6651146331847531e-01  8.1935156504115625e-01  8.6249562032923854e-01  8.9293738664739619e-01  9.1047379571884801e-01  9.1825610606172825e-01  9.2125701638099211e-01  9.2318319756324563e-01  9.2274340071840277e-01  9.0454641228506749e-01  7.6008967131091798e-01  2.0912647201127141e-01  1.6725714892492796e-01  1.4096387127283083e-01  9.5174119293536280e-02  1.0390335264838785e-01  1.1158952628034199e-01  1.1686444437269303e-01  1.2066160276865928e-01  1.2411893134562008e-01  1.2801009632314325e-01  1.3290564948480946e-01  1.3932997243214065e-01  1.4781802114456322e-01  1.5889765782524595e-01  1.7303273223082158e-01  1.9055932234467646e-01  2.1164156495278832e-01  2.3626228403025767e-01  2.6424949012154852e-01  2.9532799669376375e-01  3.2917968178086227e-01  3.6549646542762348e-01  4.0401425357555532e-01  4.4452076951027408e-01  4.8683337454757214e-01  5.3074438467560969e-01  5.7593227781748502e-01  6.2184018597814494e-01  6.6753210849720834e-01  7.1155680964951729e-01  7.5188063222914270e-01  7.8598203313468284e-01  8.1119463510448608e-01  8.2527824701893304e-01  8.2695333668849913e-01  8.1584629228681516e-01  7.9112993308906943e-01  7.4787767120150461e-01  6.6894321295187997e-01  5.1288402730693805e-01  2.6375410051274006e-01  1.1568081092014926e-01  1.4424660136535303e-01  1.4136594378565376e-01  9.6149926868839067e-02  1.0790462919647881e-01  1.1958462234887302e-01  1.2822127787369414e-01  1.3468918897123910e-01  1.4056786501728261e-01  1.4704593047021589e-01  1.5500340696608278e-01  1.6517486165421383e-01  1.7819563970064051e-01  1.9455714687493081e-01  2.1453330647634122e-01  2.3813206694008018e-01  2.6510031582503524e-01  2.9498081795873721e-01  3.2719901528746059e-01  3.6115192493120007e-01  3.9627776865069114e-01  4.3209572359064652e-01  4.6821414158053198e-01  5.0431036856031797e-01  5.4008645148249990e-01  5.7520430781007981e-01  6.0920322267413152e-01  6.4140343155953428e-01  6.7080323880346482e-01  6.9598391724371145e-01  7.1504465593867228e-01  7.2559328419565816e-01  7.2480815916684993e-01  7.0955991230166537e-01  6.7657289115553998e-01  6.2272487332709647e-01  5.4596281627298304e-01  4.4765543246447098e-01  3.3608803850740743e-01  2.2816049265235316e-01  1.4720875944401079e-01  1.0474946575961039e-01  1.4266755598120998e-01  1.4181557047126694e-01  9.7321500763466171e-02  1.1345800064944042e-01  1.3173311573071567e-01  1.4654247868585660e-01  1.5828610480121358e-01  1.6903076261580516e-01  1.8052517899927928e-01  1.9402931778855712e-01  2.1042203052130751e-01  2.3023458423386234e-01  2.5362617582503894e-01  2.8038001787581657e-01  3.0996271046647272e-01  3.4163709095295136e-01  3.7459022118041257e-01  4.0804045455233207e-01  4.4130536081461036e-01  4.7382913146516181e-01  5.0517693603135139e-01  5.3500543406198764e-01  5.6301666479900292e-01  5.8889955449884979e-01  6.1226074810003706e-01  6.3254507300679164e-01  6.4894619517449392e-01  6.6031071127119678e-01  6.6504549668815505e-01  6.6105160279704112e-01  6.4573489335548417e-01  6.1619688840654541e-01  5.6980470872264932e-01  5.0544582429172902e-01  4.2563552535779198e-01  3.3858803144470578e-01  2.5729350719888378e-01  1.9324054162882304e-01  1.4960990308159602e-01  1.2184150218339773e-01  1.0147165534545058e-01  1.4186994879048007e-01  1.4231450137943449e-01  9.8739536330546593e-02  1.2129979650121950e-01  1.5065760758035909e-01  1.7698405523504471e-01  1.9920780290231738e-01  2.1960838128010185e-01  2.4043267253897341e-01  2.6316672222467630e-01  2.8851859913391520e-01  3.1653925245405051e-01  3.4678963168184018e-01  3.7853652394277565e-01  4.1093787778722635e-01  4.4317900829234508e-01  4.7454786566088569e-01  5.0446087932704298e-01  5.3245770980344986e-01  5.5817895804142259e-01  5.8133419026588129e-01  6.0166287904946369e-01  6.1888849399207380e-01  6.3266509034187668e-01  6.4251569923657215e-01  6.4776284934267214e-01  6.4745499652866723e-01  6.4030135740145866e-01  6.2464650278384504e-01  5.9855146520507030e-01  5.6010191829137901e-01  5.0811093540328556e-01  4.4331926083270201e-01  3.6979743551540711e-01  2.9541614275406625e-01  2.2978433758113770e-01  1.7981261048927494e-01  1.4645587208598981e-01  1.2580656767378773e-01  1.1241387178512983e-01  9.9359876804912109e-02  1.4129045679639196e-01  1.4285911916763516e-01  1.0045702620088894e-01  1.3258588941086893e-01  1.8099268500538437e-01  2.2905375613581175e-01  2.7172961393329814e-01  3.1003186912829483e-01  3.4584109665242380e-01  3.8037490326870638e-01  4.1405948433203954e-01  4.4682341443218071e-01  4.7839914223489316e-01  5.0849411263075528e-01  5.3684442481062034e-01  5.6320977707515341e-01  5.8735533416057706e-01  6.0904035158570191e-01  6.2801524601274150e-01  6.4402078910427518e-01  6.5678203938216595e-01  6.6599196532099025e-01  6.7128289718354772e-01  6.7218677322967646e-01  6.6808786135726106e-01  6.5817587873838990e-01  6.4141616868130980e-01  6.1657072166966542e-01  5.8233173488754475e-01  5.3766022973477301e-01  4.8241769820802671e-01  4.1824936608783481e-01  3.4932927668074609e-01  2.8215016488480726e-01  2.2368506773248492e-01  1.7856064363158669e-01  1.4734381281706888e-01  1.2737262595844956e-01  1.1499913413213360e-01  1.0676450060603138e-01  9.7542068360571846e-02  1.4075585565925969e-01  1.4343849845362333e-01  1.0253474522075000e-01  1.4937894173966462e-01  2.3166845565243255e-01  3.2073946191076386e-01  4.0036419891258757e-01  4.6519914914369387e-01  5.1549021460214173e-01  5.542476887