<?xml version="1.0"?>
<VTKFile type="UnstructuredGrid"  version="0.1"  >
<UnstructuredGrid>
<Piece  NumberOfPoints="1681" NumberOfCells="3200">
<Points>
<DataArray  type="Float64"  NumberOfComponents="3"  format="ascii">0 0 0  0.025 0 0  0.05 0 0  0.075 0 0  0.1 0 0  0.125 0 0  0.15 0 0  0.175 0 0  0.2 0 0  0.225 0 0  0.25 0 0  0.275 0 0  0.3 0 0  0.325 0 0  0.35 0 0  0.375 0 0  0.4 0 0  0.425 0 0  0.45 0 0  0.475 0 0  0.5 0 0  0.525 0 0  0.55 0 0  0.575 0 0  0.6 0 0  0.625 0 0  0.65 0 0  0.675 0 0  0.7 0 0  0.725 0 0  0.75 0 0  0.775 0 0  0.8 0 0  0.825 0 0  0.85 0 0  0.875 0 0  0.9 0 0  0.925 0 0  0.95 0 0  0.975 0 0  1 0 0  0 0.025 0  0.025 0.025 0  0.05 0.025 0  0.075 0.025 0  0.1 0.025 0  0.125 0.025 0  0.15 0.025 0  0.175 0.025 0  0.2 0.025 0  0.225 0.025 0  0.25 0.025 0  0.275 0.025 0  0.3 0.025 0  0.325 0.025 0  0.35 0.025 0  0.375 0.025 0  0.4 0.025 0  0.425 0.025 0  0.45 0.025 0  0.475 0.025 0  0.5 0.025 0  0.525 0.025 0  0.55 0.025 0  0.575 0.025 0  0.6 0.025 0  0.625 0.025 0  0.65 0.025 0  0.675 0.025 0  0.7 0.025 0  0.725 0.025 0  0.75 0.025 0  0.775 0.025 0  0.8 0.025 0  0.825 0.025 0  0.85 0.025 0  0.875 0.025 0  0.9 0.025 0  0.925 0.025 0  0.95 0.025 0  0.975 0.025 0  1 0.025 0  0 0.05 0  0.025 0.05 0  0.05 0.05 0  0.075 0.05 0  0.1 0.05 0  0.125 0.05 0  0.15 0.05 0  0.175 0.05 0  0.2 0.05 0  0.225 0.05 0  0.25 0.05 0  0.275 0.05 0  0.3 0.05 0  0.325 0.05 0  0.35 0.05 0  0.375 0.05 0  0.4 0.05 0  0.425 0.05 0  0.45 0.05 0  0.475 0.05 0  0.5 0.05 0  0.525 0.05 0  0.55 0.05 0  0.575 0.05 0  0.6 0.05 0  0.625 0.05 0  0.65 0.05 0  0.675 0.05 0  0.7 0.05 0  0.725 0.05 0  0.75 0.05 0  0.775 0.05 0  0.8 0.05 0  0.825 0.05 0  0.85 0.05 0  0.875 0.05 0  0.9 0.05 0  0.925 0.05 0  0.95 0.05 0  0.975 0.05 0  1 0.05 0  0 0.075 0  0.025 0.075 0  0.05 0.075 0  0.075 0.075 0  0.1 0.075 0  0.125 0.075 0  0.15 0.075 0  0.175 0.075 0  0.2 0.075 0  0.225 0.075 0  0.25 0.075 0  0.275 0.075 0  0.3 0.075 0  0.325 0.075 0  0.35 0.075 0  0.375 0.075 0  0.4 0.075 0  0.425 0.075 0  0.45 0.075 0  0.475 0.075 0  0.5 0.075 0  0.525 0.075 0  0.55 0.075 0  0.575 0.075 0  0.6 0.075 0  0.625 0.075 0  0.65 0.075 0  0.675 0.075 0  0.7 0.075 0  0.725 0.075 0  0.75 0.075 0  0.775 0.075 0  0.8 0.075 0  0.825 0.075 0  0.85 0.075 0  0.875 0.075 0  0.9 0.075 0  0.925 0.075 0  0.95 0.075 0  0.975 0.075 0  1 0.075 0  0 0.1 0  0.025 0.1 0  0.05 0.1 0  0.075 0.1 0  0.1 0.1 0  0.125 0.1 0  0.15 0.1 0  0.175 0.1 0  0.2 0.1 0  0.225 0.1 0  0.25 0.1 0  0.275 0.1 0  0.3 0.1 0  0.325 0.1 0  0.35 0.1 0  0.375 0.1 0  0.4 0.1 0  0.425 0.1 0  0.45 0.1 0  0.475 0.1 0  0.5 0.1 0  0.525 0.1 0  0.55 0.1 0  0.575 0.1 0  0.6 0.1 0  0.625 0.1 0  0.65 0.1 0  0.675 0.1 0  0.7 0.1 0  0.725 0.1 0  0.75 0.1 0  0.775 0.1 0  0.8 0.1 0  0.825 0.1 0  0.85 0.1 0  0.875 0.1 0  0.9 0.1 0  0.925 0.1 0  0.95 0.1 0  0.975 0.1 0  1 0.1 0  0 0.125 0  0.025 0.125 0  0.05 0.125 0  0.075 0.125 0  0.1 0.125 0  0.125 0.125 0  0.15 0.125 0  0.175 0.125 0  0.2 0.125 0  0.225 0.125 0  0.25 0.125 0  0.275 0.125 0  0.3 0.125 0  0.325 0.125 0  0.35 0.125 0  0.375 0.125 0  0.4 0.125 0  0.425 0.125 0  0.45 0.125 0  0.475 0.125 0  0.5 0.125 0  0.525 0.125 0  0.55 0.125 0  0.575 0.125 0  0.6 0.125 0  0.625 0.125 0  0.65 0.125 0  0.675 0.125 0  0.7 0.125 0  0.725 0.125 0  0.75 0.125 0  0.775 0.125 0  0.8 0.125 0  0.825 0.125 0  0.85 0.125 0  0.875 0.125 0  0.9 0.125 0  0.925 0.125 0  0.95 0.125 0  0.975 0.125 0  1 0.125 0  0 0.15 0  0.025 0.15 0  0.05 0.15 0  0.075 0.15 0  0.1 0.15 0  0.125 0.15 0  0.15 0.15 0  0.175 0.15 0  0.2 0.15 0  0.225 0.15 0  0.25 0.15 0  0.275 0.15 0  0.3 0.15 0  0.325 0.15 0  0.35 0.15 0  0.375 0.15 0  0.4 0.15 0  0.425 0.15 0  0.45 0.15 0  0.475 0.15 0  0.5 0.15 0  0.525 0.15 0  0.55 0.15 0  0.575 0.15 0  0.6 0.15 0  0.625 0.15 0  0.65 0.15 0  0.675 0.15 0  0.7 0.15 0  0.725 0.15 0  0.75 0.15 0  0.775 0.15 0  0.8 0.15 0  0.825 0.15 0  0.85 0.15 0  0.875 0.15 0  0.9 0.15 0  0.925 0.15 0  0.95 0.15 0  0.975 0.15 0  1 0.15 0  0 0.175 0  0.025 0.175 0  0.05 0.175 0  0.075 0.175 0  0.1 0.175 0  0.125 0.175 0  0.15 0.175 0  0.175 0.175 0  0.2 0.175 0  0.225 0.175 0  0.25 0.175 0  0.275 0.175 0  0.3 0.175 0  0.325 0.175 0  0.35 0.175 0  0.375 0.175 0  0.4 0.175 0  0.425 0.175 0  0.45 0.175 0  0.475 0.175 0  0.5 0.175 0  0.525 0.175 0  0.55 0.175 0  0.575 0.175 0  0.6 0.175 0  0.625 0.175 0  0.65 0.175 0  0.675 0.175 0  0.7 0.175 0  0.725 0.175 0  0.75 0.175 0  0.775 0.175 0  0.8 0.175 0  0.825 0.175 0  0.85 0.175 0  0.875 0.175 0  0.9 0.175 0  0.925 0.175 0  0.95 0.175 0  0.975 0.175 0  1 0.175 0  0 0.2 0  0.025 0.2 0  0.05 0.2 0  0.075 0.2 0  0.1 0.2 0  0.125 0.2 0  0.15 0.2 0  0.175 0.2 0  0.2 0.2 0  0.225 0.2 0  0.25 0.2 0  0.275 0.2 0  0.3 0.2 0  0.325 0.2 0  0.35 0.2 0  0.375 0.2 0  0.4 0.2 0  0.425 0.2 0  0.45 0.2 0  0.475 0.2 0  0.5 0.2 0  0.525 0.2 0  0.55 0.2 0  0.575 0.2 0  0.6 0.2 0  0.625 0.2 0  0.65 0.2 0  0.675 0.2 0  0.7 0.2 0  0.725 0.2 0  0.75 0.2 0  0.775 0.2 0  0.8 0.2 0  0.825 0.2 0  0.85 0.2 0  0.875 0.2 0  0.9 0.2 0  0.925 0.2 0  0.95 0.2 0  0.975 0.2 0  1 0.2 0  0 0.225 0  0.025 0.225 0  0.05 0.225 0  0.075 0.225 0  0.1 0.225 0  0.125 0.225 0  0.15 0.225 0  0.175 0.225 0  0.2 0.225 0  0.225 0.225 0  0.25 0.225 0  0.275 0.225 0  0.3 0.225 0  0.325 0.225 0  0.35 0.225 0  0.375 0.225 0  0.4 0.225 0  0.425 0.225 0  0.45 0.225 0  0.475 0.225 0  0.5 0.225 0  0.525 0.225 0  0.55 0.225 0  0.575 0.225 0  0.6 0.225 0  0.625 0.225 0  0.65 0.225 0  0.675 0.225 0  0.7 0.225 0  0.725 0.225 0  0.75 0.225 0  0.775 0.225 0  0.8 0.225 0  0.825 0.225 0  0.85 0.225 0  0.875 0.225 0  0.9 0.225 0  0.925 0.225 0  0.95 0.225 0  0.975 0.225 0  1 0.225 0  0 0.25 0  0.025 0.25 0  0.05 0.25 0  0.075 0.25 0  0.1 0.25 0  0.125 0.25 0  0.15 0.25 0  0.175 0.25 0  0.2 0.25 0  0.225 0.25 0  0.25 0.25 0  0.275 0.25 0  0.3 0.25 0  0.325 0.25 0  0.35 0.25 0  0.375 0.25 0  0.4 0.25 0  0.425 0.25 0  0.45 0.25 0  0.475 0.25 0  0.5 0.25 0  0.525 0.25 0  0.55 0.25 0  0.575 0.25 0  0.6 0.25 0  0.625 0.25 0  0.65 0.25 0  0.675 0.25 0  0.7 0.25 0  0.725 0.25 0  0.75 0.25 0  0.775 0.25 0  0.8 0.25 0  0.825 0.25 0  0.85 0.25 0  0.875 0.25 0  0.9 0.25 0  0.925 0.25 0  0.95 0.25 0  0.975 0.25 0  1 0.25 0  0 0.275 0  0.025 0.275 0  0.05 0.275 0  0.075 0.275 0  0.1 0.275 0  0.125 0.275 0  0.15 0.275 0  0.175 0.275 0  0.2 0.275 0  0.225 0.275 0  0.25 0.275 0  0.275 0.275 0  0.3 0.275 0  0.325 0.275 0  0.35 0.275 0  0.375 0.275 0  0.4 0.275 0  0.425 0.275 0  0.45 0.275 0  0.475 0.275 0  0.5 0.275 0  0.525 0.275 0  0.55 0.275 0  0.575 0.275 0  0.6 0.275 0  0.625 0.275 0  0.65 0.275 0  0.675 0.275 0  0.7 0.275 0  0.725 0.275 0  0.75 0.275 0  0.775 0.275 0  0.8 0.275 0  0.825 0.275 0  0.85 0.275 0  0.875 0.275 0  0.9 0.275 0  0.925 0.275 0  0.95 0.275 0  0.975 0.275 0  1 0.275 0  0 0.3 0  0.025 0.3 0  0.05 0.3 0  0.075 0.3 0  0.1 0.3 0  0.125 0.3 0  0.15 0.3 0  0.175 0.3 0  0.2 0.3 0  0.225 0.3 0  0.25 0.3 0  0.275 0.3 0  0.3 0.3 0  0.325 0.3 0  0.35 0.3 0  0.375 0.3 0  0.4 0.3 0  0.425 0.3 0  0.45 0.3 0  0.475 0.3 0  0.5 0.3 0  0.525 0.3 0  0.55 0.3 0  0.575 0.3 0  0.6 0.3 0  0.625 0.3 0  0.65 0.3 0  0.675 0.3 0  0.7 0.3 0  0.725 0.3 0  0.75 0.3 0  0.775 0.3 0  0.8 0.3 0  0.825 0.3 0  0.85 0.3 0  0.875 0.3 0  0.9 0.3 0  0.925 0.3 0  0.95 0.3 0  0.975 0.3 0  1 0.3 0  0 0.325 0  0.025 0.325 0  0.05 0.325 0  0.075 0.325 0  0.1 0.325 0  0.125 0.325 0  0.15 0.325 0  0.175 0.325 0  0.2 0.325 0  0.225 0.325 0  0.25 0.325 0  0.275 0.325 0  0.3 0.325 0  0.325 0.325 0  0.35 0.325 0  0.375 0.325 0  0.4 0.325 0  0.425 0.325 0  0.45 0.325 0  0.475 0.325 0  0.5 0.325 0  0.525 0.325 0  0.55 0.325 0  0.575 0.325 0  0.6 0.325 0  0.625 0.325 0  0.65 0.325 0  0.675 0.325 0  0.7 0.325 0  0.725 0.325 0  0.75 0.325 0  0.775 0.325 0  0.8 0.325 0  0.825 0.325 0  0.85 0.325 0  0.875 0.325 0  0.9 0.325 0  0.925 0.325 0  0.95 0.325 0  0.975 0.325 0  1 0.325 0  0 0.35 0  0.025 0.35 0  0.05 0.35 0  0.075 0.35 0  0.1 0.35 0  0.125 0.35 0  0.15 0.35 0  0.175 0.35 0  0.2 0.35 0  0.225 0.35 0  0.25 0.35 0  0.275 0.35 0  0.3 0.35 0  0.325 0.35 0  0.35 0.35 0  0.375 0.35 0  0.4 0.35 0  0.425 0.35 0  0.45 0.35 0  0.475 0.35 0  0.5 0.35 0  0.525 0.35 0  0.55 0.35 0  0.575 0.35 0  0.6 0.35 0  0.625 0.35 0  0.65 0.35 0  0.675 0.35 0  0.7 0.35 0  0.725 0.35 0  0.75 0.35 0  0.775 0.35 0  0.8 0.35 0  0.825 0.35 0  0.85 0.35 0  0.875 0.35 0  0.9 0.35 0  0.925 0.35 0  0.95 0.35 0  0.975 0.35 0  1 0.35 0  0 0.375 0  0.025 0.375 0  0.05 0.375 0  0.075 0.375 0  0.1 0.375 0  0.125 0.375 0  0.15 0.375 0  0.175 0.375 0  0.2 0.375 0  0.225 0.375 0  0.25 0.375 0  0.275 0.375 0  0.3 0.375 0  0.325 0.375 0  0.35 0.375 0  0.375 0.375 0  0.4 0.375 0  0.425 0.375 0  0.45 0.375 0  0.475 0.375 0  0.5 0.375 0  0.525 0.375 0  0.55 0.375 0  0.575 0.375 0  0.6 0.375 0  0.625 0.375 0  0.65 0.375 0  0.675 0.375 0  0.7 0.375 0  0.725 0.375 0  0.75 0.375 0  0.775 0.375 0  0.8 0.375 0  0.825 0.375 0  0.85 0.375 0  0.875 0.375 0  0.9 0.375 0  0.925 0.375 0  0.95 0.375 0  0.975 0.375 0  1 0.375 0  0 0.4 0  0.025 0.4 0  0.05 0.4 0  0.075 0.4 0  0.1 0.4 0  0.125 0.4 0  0.15 0.4 0  0.175 0.4 0  0.2 0.4 0  0.225 0.4 0  0.25 0.4 0  0.275 0.4 0  0.3 0.4 0  0.325 0.4 0  0.35 0.4 0  0.375 0.4 0  0.4 0.4 0  0.425 0.4 0  0.45 0.4 0  0.475 0.4 0  0.5 0.4 0  0.525 0.4 0  0.55 0.4 0  0.575 0.4 0  0.6 0.4 0  0.625 0.4 0  0.65 0.4 0  0.675 0.4 0  0.7 0.4 0  0.725 0.4 0  0.75 0.4 0  0.775 0.4 0  0.8 0.4 0  0.825 0.4 0  0.85 0.4 0  0.875 0.4 0  0.9 0.4 0  0.925 0.4 0  0.95 0.4 0  0.975 0.4 0  1 0.4 0  0 0.425 0  0.025 0.425 0  0.05 0.425 0  0.075 0.425 0  0.1 0.425 0  0.125 0.425 0  0.15 0.425 0  0.175 0.425 0  0.2 0.425 0  0.225 0.425 0  0.25 0.425 0  0.275 0.425 0  0.3 0.425 0  0.325 0.425 0  0.35 0.425 0  0.375 0.425 0  0.4 0.425 0  0.425 0.425 0  0.45 0.425 0  0.475 0.425 0  0.5 0.425 0  0.525 0.425 0  0.55 0.425 0  0.575 0.425 0  0.6 0.425 0  0.625 0.425 0  0.65 0.425 0  0.675 0.425 0  0.7 0.425 0  0.725 0.425 0  0.75 0.425 0  0.775 0.425 0  0.8 0.425 0  0.825 0.425 0  0.85 0.425 0  0.875 0.425 0  0.9 0.425 0  0.925 0.425 0  0.95 0.425 0  0.975 0.425 0  1 0.425 0  0 0.45 0  0.02
[...]
<PointData  Scalars="ControlVisualisation"> 
<DataArray  type="Float64"  Name="ControlVisualisation"  format="ascii">1.7403873946249576e-01  1.2433875071187449e-01  1.2571342264428409e-01  1.2686145344240374e-01  1.2801865559180900e-01  1.2938459355580917e-01  1.3029633343092850e-01  1.3215123232165490e-01  1.3326057741354166e-01  1.3440691121247184e-01  1.3541501052490185e-01  1.3828505621720960e-01  1.3848432796482715e-01  1.3913274010890708e-01  1.4162659942287659e-01  1.4338156283290115e-01  1.4427695796213175e-01  1.4673132605172848e-01  1.4737336803561774e-01  1.4688323604449621e-01  1.4629127506777428e-01  1.4752942911009839e-01  1.4985641871180325e-01  1.5020609411468805e-01  1.4992738282525586e-01  1.5172588178519728e-01  1.5251920585694143e-01  1.5137550212704798e-01  1.4912548239137965e-01  1.4979715172186045e-01  1.4660877738383774e-01  1.4555518194810138e-01  1.4466999402199923e-01  1.4292846199003931e-01  1.4053641011279092e-01  1.3738152659111352e-01  1.3416446886898351e-01  1.3131666298818817e-01  1.2822369186621482e-01  1.2486501268356796e-01  2.6538110963346756e-01  1.2336665489687043e-01  7.2083882026025281e-02  7.1267939907623520e-02  7.1232611189330289e-02  7.1167800706558884e-02  7.1478121072255027e-02  7.1160616875507038e-02  7.2363117174648064e-02  7.4944896754594786e-02  7.5026595628211082e-02  7.4949338984551445e-02  7.8477342546380766e-02  7.8773582259163949e-02  7.5899530402161408e-02  7.8722033371559516e-02  8.1610096034634941e-02  8.6457242136361481e-02  8.7606286945423731e-02  9.0890647949667183e-02  8.5542468296679622e-02  8.2109117862818326e-02  8.4271700289102677e-02  9.0601816381601863e-02  9.1492325009101441e-02  9.1277529392421286e-02  9.3743749036873866e-02  9.4979339859293313e-02  9.4453908806398090e-02  8.9569487886047350e-02  8.7817455595295940e-02  8.6277335160116084e-02  8.2146379863739377e-02  8.3570046052626648e-02  8.4509974231772519e-02  8.3820673646755189e-02  8.2016141012816901e-02  7.9211810156650214e-02  7.6457404022727410e-02  7.4603051960979910e-02  7.2973075980725485e-02  1.2488613821132474e-01  1.2210934473222933e-01  7.3044917999688513e-02  7.2151997662674716e-02  7.0770842406570098e-02  7.0705669100061111e-02  6.9711611872023002e-02  6.9958658841562119e-02  6.9378698104974212e-02  7.0881540367485563e-02  7.3467036357426435e-02  7.5112872255693075e-02  7.5225296546126127e-02  7.6356423479892035e-02  7.4660777675968223e-02  7.6002207651887824e-02  7.9614161403670572e-02  8.5644859854118932e-02  9.0090057767772444e-02  8.8750293340752226e-02  8.6145393310774240e-02  8.1924357872736886e-02  9.0399819075883195e-02  9.4638509533430837e-02  9.2697190538744173e-02  9.3008062246998383e-02  9.7085620324237731e-02  9.7044107735642482e-02  9.7932505217712587e-02  9.7611781032325512e-02  8.9966501340558280e-02  8.4714353578979967e-02  8.4118171390556856e-02  8.6174530222388468e-02  8.5532839498579802e-02  8.4130523045377631e-02  8.2676425545301982e-02  8.1681503693540825e-02  7.7738716618122913e-02  7.5655077068844404e-02  7.4994619639480578e-02  1.2840762655886770e-01  1.2120201000175546e-01  7.3751640834885127e-02  7.3887152401647588e-02  7.1874817914447345e-02  7.2092601963535119e-02  7.2533570526892133e-02  7.2260652985384338e-02  7.2676447567572536e-02  7.1517041584247418e-02  7.3361712908029245e-02  7.5979135172327530e-02  7.7384887191112681e-02  7.5865076761979608e-02  8.0417500210721096e-02  7.5179136065323629e-02  8.4463565826144810e-02  9.2079346123910305e-02  9.7153563504333879e-02  9.2024991407539627e-02  9.0025507971519980e-02  9.3594905559117758e-02  9.9048096446199801e-02  1.0599015095427870e-01  1.0443761278608774e-01  1.0104908514455933e-01  1.0201530186610823e-01  1.0479065235295595e-01  1.0652597820967574e-01  1.0476988732345377e-01  1.0061041130108914e-01  9.8078716148184517e-02  9.5806721661625988e-02  9.7228940129692715e-02  9.4822809554836088e-02  9.1828926466609867e-02  9.1371806247083992e-02  8.7798487383915741e-02  8.2820922016128978e-02  7.9606826748354093e-02  7.7657172937770302e-02  1.3187903150435015e-01  1.2028014555870511e-01  7.4503827592182326e-02  7.5420288292835230e-02  7.3630378533627874e-02  7.3173857266239442e-02  7.2658501479017798e-02  7.3589383653988191e-02  7.4430622701834329e-02  7.3469451201938762e-02  7.4680826346985474e-02  7.7650151543750962e-02  7.5250566790638768e-02  7.7327459542633981e-02  8.3178942177626849e-02  7.7918777230697484e-02  8.1776484080988365e-02  9.0483090868423682e-02  9.6854680697328388e-02  1.0019562039444416e-01  9.3402571806136106e-02  9.6762394348603620e-02  1.0254214939707021e-01  1.1076192602881718e-01  1.1077999789530207e-01  1.0727099939672999e-01  1.0513663153313582e-01  1.0762750311693475e-01  1.1057930735700208e-01  1.0967946266009256e-01  1.0776471816833158e-01  1.1039484020849416e-01  1.0515909032599836e-01  1.0208566556427726e-01  1.0144731867354372e-01  1.0119474772573293e-01  1.0089703402573204e-01  9.6328306798910565e-02  8.7565908249332330e-02  8.3978197831377319e-02  8.1567422878366450e-02  1.3534770733032683e-01  1.1877432698865022e-01  7.4078494053868890e-02  7.6300894858251950e-02  7.3222628495509243e-02  7.3445765799769164e-02  7.3911815875580766e-02  7.1622719222184189e-02  7.4607606900789131e-02  7.6402798778478220e-02  7.4311755653900774e-02  7.7805726120321148e-02  7.5331300589397632e-02  7.4274826999701060e-02  7.8326876768166950e-02  8.0018588938662566e-02  8.5384142384260411e-02  9.4582186969111415e-02  9.2791823227703560e-02  1.0183381138126468e-01  9.8362809097836526e-02  1.0157301358153209e-01  1.0265541465195628e-01  1.0815863886928484e-01  1.1494427439558415e-01  1.0892285896771223e-01  1.1045721705632038e-01  1.1625184075294415e-01  1.1836851866504239e-01  1.1506265574510628e-01  1.2118838269790110e-01  1.1935351011530074e-01  1.1776539488478865e-01  1.1554596075488717e-01  1.1034359282316374e-01  1.1220475991422940e-01  1.1647445356515308e-01  1.1099985910898599e-01  9.9967773713210806e-02  9.4214694438011296e-02  8.5222089330772369e-02  1.3879580574338912e-01  1.1818743072674005e-01  7.3914072032589109e-02  7.6440108585218020e-02  7.3509094673764500e-02  7.2928814577300244e-02  7.6856341271677675e-02  7.7134084051381641e-02  7.7090224525663123e-02  7.8694917496776345e-02  7.7556153504182226e-02  7.7303422954767845e-02  7.6827233606643078e-02  7.6463848234740978e-02  7.9591974820645228e-02  7.5916204422571534e-02  8.6045003413818308e-02  1.0446250535075984e-01  1.0764569098418235e-01  1.0964414550306473e-01  1.0097763753233567e-01  1.1020850501130311e-01  1.1027273861035254e-01  1.0618211860419295e-01  1.1527507035241928e-01  1.1694375464412197e-01  1.2025672531897563e-01  1.2174928080463135e-01  1.2756590592507136e-01  1.2107797211060548e-01  1.2988418008000388e-01  1.3610160168167917e-01  1.3889914969054423e-01  1.4174834037079079e-01  1.3914313001984552e-01  1.4730241603018809e-01  1.5603395747078616e-01  1.5624619523845967e-01  1.4996097254314061e-01  1.3298726713512418e-01  1.0778225650650892e-01  1.4583616537130201e-01  1.1722459247127048e-01  7.4343147995396097e-02  7.8489830676045008e-02  7.5540223813733542e-02  7.6733046121294557e-02  7.7344122920708552e-02  7.8684253620126529e-02  8.1181409415455527e-02  7.8963329265508531e-02  7.8673219357553836e-02  7.8666255172962316e-02  7.8231853005782767e-02  7.8047417798920438e-02  7.7790761999402103e-02  6.8432215607767521e-02  1.0455424763373627e-01  1.1968272141289785e-01  1.1819291366895539e-01  1.1270171442138291e-01  1.0588511595435959e-01  1.0578636680413855e-01  1.0956123573934548e-01  1.1437325239494105e-01  1.1947339024869923e-01  1.1667988706737177e-01  1.2481639444105858e-01  1.3141863456952801e-01  1.3571857845607346e-01  1.3738340707600985e-01  1.4840154094775129e-01  1.5701133115880431e-01  1.6697401708803805e-01  1.8553175970297733e-01  1.9531823203200879e-01  2.2116862272799673e-01  2.5223052479026559e-01  2.8041680739913616e-01  3.1482413237863693e-01  3.3569962039155726e-01  3.1481692578113446e-01  2.3940649802282810e-01  1.1686920328976426e-01  7.4782686134957269e-02  7.9258064233357198e-02  7.7500212585801212e-02  7.8757500402246161e-02  8.0259340279450808e-02  7.8303472112899564e-02  8.2796951155578641e-02  8.1161011420819218e-02  8.0024819338328446e-02  8.1707219563352709e-02  8.2539058922233011e-02  8.2360808455511636e-02  7.9391376938026878e-02  5.5905421376237566e-02  1.7912223085456827e-01  1.6964247132043789e-01  1.1537548287965797e-01  1.0772644970873868e-01  1.0924336345911852e-01  1.0968639641901050e-01  1.1256538127937282e-01  1.1399609994426069e-01  1.3283136439204302e-01  1.2505917963002966e-01  1.3368177320898261e-01  1.4746629008337372e-01  1.5197502814519409e-01  1.6254207934135090e-01  1.8029765989252583e-01  1.9495591990518565e-01  2.1090934379695359e-01  2.4971539590357891e-01  2.8750567632512225e-01  3.4319682553895625e-01  4.0525856901795648e-01  4.9267569781317494e-01  6.0192212057998906e-01  7.1151407950236767e-01  8.3115730238245333e-01  7.1502911157998905e-01  1.1610388642457121e-01  7.6006058021080694e-02  8.1419940253118564e-02  8.0650535367715590e-02  7.7870999778016745e-02  7.9831104426487567e-02  7.9505310130075127e-02  8.3829509454311696e-02  8.6097425909165332e-02  8.4889921984882391e-02  8.1735006434856775e-02  8.8158920478252342e-02  8.7967843004633131e-02  9.4519801411316828e-02  1.4533190640066834e-01  1.6169692359486623e-01  2.0203184287514445e-01  7.6342013818689422e-02  9.9839658297286429e-02  1.0703813967812843e-01  1.1237479630243083e-01  1.2327690142621492e-01  1.3317910798623309e-01  1.4040165611100014e-01  1.4673691530337576e-01  1.5025802942916977e-01  1.6782341514463200e-01  1.8027844717587840e-01  1.9613058226569408e-01  2.2147893939048252e-01  2.4613092727929883e-01  2.8690617508884259e-01  3.3576162270411575e-01  3.9391932139912694e-01  4.7236565030344635e-01  5.6797368960575600e-01  6.8331110610895429e-01  8.0288803538142295e-01  8.8254068690973686e-01  9.1492014221048112e-01  8.8518908740954605e-01  1.1504061595157161e-01  7.5438142930774471e-02  8.1018376654411570e-02  8.1322819011677247e-02  7.9524206703652484e-02  8.0956738296546080e-02  8.2843916443180010e-02  8.5691549099777664e-02  8.7432195991298700e-02  8.8586495348603841e-02  8.6895613487757109e-02  9.0589656868852036e-02  9.8547867113089285e-02  1.1011886768927684e-01  1.3809567622843286e-01  1.6849605920847172e-01  1.1915541160376886e-01  9.1774160708194052e-02  1.0706198389530880e-01  1.1031007655725764e-01  1.1197636457142590e-01  1.2081977694521193e-01  1.3947155030902314e-01  1.5050309852066493e-01  1.5905424218217790e-01  1.5884880202129545e-01  1.8592691796275659e-01  2.0536881114288855e-01  2.2367138445221460e-01  2.5882192647525293e-01  2.9659980127117508e-01  3.5212373243046768e-01  4.0967877359480054e-01  4.7911402540340026e-01  5.6312175642035667e-01  6.7242152073790395e-01  7.8058127780502462e-01  8.6718667121565884e-01  9.0656726490541428e-01  9.2052463674446772e-01  9.0521241068094782e-01  1.1468837144914140e-01  7.6843652873736137e-02  8.1636209649694105e-02  7.8650269828356476e-02  8.0558299312439505e-02  8.0068113412858702e-02  8.3691847492091187e-02  8.6943343215799010e-02  8.6229475215481632e-02  8.7747304445000354e-02  9.0908466202587732e-02  9.2176465890404194e-02  1.0310301487016729e-01  1.1487559483472271e-01  1.2737139917374232e-01  1.3026982442405022e-01  1.1793097722078838e-01  1.1017494874329196e-01  1.1643730926099537e-01  1.2355975592853773e-01  1.2630995172539364e-01  1.3386832330660745e-01  1.4885030026933144e-01  1.7133084410877467e-01  1.8424085253346403e-01  1.9207840689302488e-01  2.0849001385403254e-01  2.3658520781412973e-01  2.5984629485662608e-01  3.0231908994163686e-01  3.4670407882335519e-01  3.9903243975937291e-01  4.5337304444444126e-01  5.2253486954455841e-01  6.0509671819552213e-01  6.9247238293653668e-01  7.9242145098217842e-01  8.6333485678209643e-01  8.9834477717441819e-01  9.1025597402277103e-01  8.8920958860479515e-01  1.1377575375073185e-01  7.7806874304432255e-02  8.7982308551236357e-02  8.7927564865603061e-02  8.5964375106515750e-02  8.6629904266215252e-02  8.4927549788365558e-02  8.7670580284790856e-02  8.9977172487506363e-02  9.2172914909377970e-02  9.6463604765337690e-02  1.0191748991212596e-01  1.0929897616689928e-01  1.1788173249653675e-01  1.2431142873586669e-01  1.1911124045752587e-01  1.1552030629508364e-01  1.1949842597346690e-01  1.2901178158216420e-01  1.4188641973255672e-01  1.4613569578229643e-01  1.4944366035254289e-01  1.6389126092303277e-01  1.7919593048458968e-01  2.0685329005066930e-01  2.2125140604895138e-01  2.3453850065184542e-01  2.5702587288690737e-01  2.8930559570065217e-01  3.3076094410303691e-01  3.7380380960974224e-01  4.2250330701873817e-01  4.7087696688690994e-01  5.1821120270374710e-01  5.8165353184428614e-01  6.5037500711767948e-01  7.2533323277785944e-01  7.8142248045982021e-01  8.2311074313984856e-01  8.3371198221994858e-01  7.6160104859461686e-01  1.1487220581281923e-01  7.9078047282457958e-02  8.5781453926272108e-02  8.6912689431244500e-02  8.4466947034892825e-02  8.4647785651419352e-02  8.9161482656161084e-02  9.4608524755411913e-02  9.6722102796513623e-02  9.6457731610295874e-02  1.0076650197266879e-01  1.0469266782907097e-01  1.1393451431071416e-01  1.1528464009106920e-01  1.2211216018998385e-01  1.2688111016842762e-01  1.2038653911466611e-01  1.3347895248760927e-01  1.4130669942693203e-01  1.6506867687598767e-01  1.8048734140991710e-01  1.7947892347527808e-01  1.9253936586498904e-01  2.0321516426616848e-01  2.3505363708235233e-01  2.4385281640521117e-01  2.6431228674330220e-01  2.7818937077032774e-01  3.0894654567384078e-01  3.5176478847566423e-01  3.8697833630878831e-01  4.2414291358915096e-01  4.5532404161902318e-01  4.8301978999687945e-01  5.1754803430892404e-01  5.5432859291686964e-01  5.8500364460427023e-01  5.9700669410899709e-01  5.6204440324807969e-01  3.6014855363061316e-01  2.9779929419444157e-01  1.1425568884910993e-01  8.3127035564462506e-02  9.0056127635300187e-02  8.5961413986204049e-02  8.7560718091486536e-02  8.5393830843640078e-02  8.9171914035060251e-02  9.1298850765986247e-02  9.7391553059816893e-02  9.9909143969079114e-02  1.0256575510907003e-01  1.0306664545361993e-01  1.1132688421483057e-01  1.1941056888287575e-01  1.2082953963365782e-01  1.3678988833721914e-01  1.3518536357045763e-01  1.4850466762493500e-01  1.5945588683199516e-01  1.7439326252923742e-01  1.9605988226832166e-01  1.9721940095060200e-01  2.1402082714010906e-01  2.3230198888871956e-01  2.4318691481053545e-01  2.6010894278714292e-01  2.7276212115055665e-01  3.0040988415048020e-01  3.2154068288169690e-01  3.4981773287018730e-01  3.7314244739602986e-01  4.0278094994193675e-01  4.1680500981631541e-01  4.2668570231305153e-01  4.3616091674793789e-01  4.2894088549135057e-01  4.0454425259562904e-01  3.6905795015988113e-01  2.8119100990898366e-01  1.2155446546509180e-01  1.2139353364908718e-01  1.1380029030694094e-01  8.1891576629219129e-02  9.1852245755183110e-02  8.3223586789450008e-02  9.5515921488999456e-02  9.4464780816886695e-02  8.7280289742009742e-02  9.5686866346990265e-02  9.3865857799055610e-02  9.3661865036289510e-02  1.0111132361986674e-01  1.0723041917329901e-01  1.1759753942471965e-01  1.2935039948738511e-01  1.3749942934639967e-01  1.4344512001077422e-01  1.4391101884788365e-01  1.5283917486433352e-01  1.6999230292765319e-01  1.7754745926844995e-01  1.9282989699230893e-01  2.1568704157713883e-01  2.2137839000711676e-01  2.4617692227258214e-01  2.5399360330827719e-01  2.5609166230691249e-01  2.7238145029050925e-01  2.8835489553927079e-01  3.1197161003397328e-01  3.2901798114716524e-01  3.3473215861766353e-01  3.5735333881865244e-01  3.4132004655686476e-01  3.2330923406865697e-01  3.2316493289146986e-01  3.0462120910456608e-01  2.6651618716083902e-01  2.1836149230939425e-01  1.5742947712320454e-01  9.2656587792413425e-02  1.0564366475101725e-01  1.1217329947592351e-01  7.7994007903471593e-02  8.8619198899304474e-02  9.0059758253837344e-02  9.3739636430964529e-02  9.9816359929913279e-02  9.3517576083111328e-02  1.0478902543162623e-01  1.0396491398688554e-01  1.0272093521313634e-01  1.0851882652694875e-01  1.1602386459658998e-01  1.2174602547092796e-01  1.3867102248874000e-01  1.5090631267113719e-01  1.6407908492764200e-01  1.7871240224352600e-01  1.8740626162463650e-01  1.8867359774007914e-01  2.0775345822715766e-01  2.2543213716065033e-01  2.3212889156501879e-01  2.4235026804147589e-01  2.5943157296863428e-01  2.7766922902117785e-01  2.8028053117545976e-01  2.8831293866586311e-01  2.9770080919770869e-01  3.0369448587310799e-01  3.0793057814389491e-01  2.9713254498385289e-01  2.9134239705546666e-01  2.8058542078782955e-01  2.5275229586614173e-01  2.4060482851802525e-01  2.1635950408392793e-01  1.8747943886481958e-01  1.5156349989364568e-01  1.1790603980846198e-01  8.4233294008159876e-02  1.0425441090870004e-01  1.1244959791431895e-01  7.5810380489344242e-02  8.7124539784518840e-02  9.2900291373454041e-02  9.8252523678894046e-02  1.0222446490746422e-01  1.0328468168556071e-01  1.0996440435391465e-01  1.1263683590975666e-01  1.2191208300587103e-01  1.2723767444995412e-01  1.3265869579174511e-01  1.4180993578471607e-01  1.5127944850253716e-01  1.7121292432367516e-01  1.8491715606332132e-01  1.9908305656955128e-01  2.1152725646091261e-01  2.0911665135773069e-01  2.2527217863425975e-01  2.5406139950756884e-01  2.5194741225890177e-01  2.5809279261365559e-01  2.6657356055849968e-01  2.8681366475349535e-01  2.8202444330423670e-01  2.8546361480500282e-01  2.9943434397224539e-01  3.0113988750985815e-01  2.9456562394514624e-01  2.6644048584281660e-01  2.4038224047754483e-01  2.1522433936466998e-01  2.0622824957327940e-01  1.8626175327534070e-01  1.6112056699999971e-01  1.3542587287955848e-01  1.1744700998892144e-01  1.0350076589885769e-01  7.6705411159110448e-02  1.0259636586290197e-01  1.1332564408456865e-01  8.0302459386186423e-02  9.2532352554917721e-02  9.2713865767049902e-02  9.5060113692486195e-02  9.7730356181135930e-02  1.0275703021712343e-01  1.1583186897970718e-01  1.2571442015401074e-01  1.3124364826951190e-01  1.5307306905651810e-01  1.6270136493591772e-01  1.7034902627455786e-01  1.7659171634312903e-01  1.8796733176816613e-01  2.0888413730232691e-01  2.1777951446352065e-01  2.2724928254117407e-01  2.4246713306310241e-01  2.4749021898967938e-01  2.5985242444651402e-01  2.6347990396358373e-01  2.6741268797372658e-01  2.6493210792437266e-01  2.7957304160678570e-01  2.8104249113651703e-01  2.7175822367079006e-01  2.6341316713073532e-01  2.7639488556487929e-01  2.6818463167169199e-01  2.4425851031772006e-01  2.0563727850770205e-01  1.7511198720081575e-01  1.6597514530232749e-01  1.4804129599051691e-01  1.3261500944345173e-01  1.1402003100547856e-01  9.4483403324011950e-02  8.5665729926612103e-02  7.1532968056866736e-02  1.0145707202813806e-01  1.1402414560605688e-01  8.4363383265868577e-02  1.0136117539171438e-01  1.0453408764401484e-01  1.0698588015859312e-01  1.1237060708318640e-01  1.2325998201984564e-01  1.3672612249870933e-01  1.5420768992722661e-01  1.6433401510290374e-01  1.7615256572231092e-01  1.9070864524916173e-01  2.0507163706984197e-01  2.1119638458501036e-01  2.2887220625842611e-01  2.4941331865659030e-01  2.5264607581752968e-01  2.6064415533926960e-01  2.7437495447969290e-01  2.7397148130077542e-01  2.7196607765972991e-01  2.7465577505851313e-01  2.7978086541742231e-01  2.7119152551223447e-01  2.5820279385361883e-01  2.6155490025059058e-01  2.5680062319102220e-01  2.3565808563009946e-01  2.3323828845808042e-01  2.2235450612779814e-01  2.1058029403970752e-01  1.8515431901705079e-01  1.5252794852068657e-01  1.3773490616776266e-01  1.2945848804192170e-01  1.1376889092779405e-01  1.0976670193510397e-01  9.8232203916672298e-02  9.2789273038962949e-02  7.3199656092973617e-02  1.0282840805220402e-01  1.1380175087487533e-01  8.3691039121018052e-02  1.0047142795725524e-01  1.0627961326071185e-01  1.1584755795911730e-01  1.2701122941065757e-01  1.4498079581193671e-01  1.6564959272278074e-01  1.771884688