<?xml version="1.0"?>
<VTKFile type="UnstructuredGrid"  version="0.1"  >
<UnstructuredGrid>
<Piece  NumberOfPoints="1681" NumberOfCells="3200">
<Points>
<DataArray  type="Float64"  NumberOfComponents="3"  format="ascii">0 0 0  0.025 0 0  0.05 0 0  0.075 0 0  0.1 0 0  0.125 0 0  0.15 0 0  0.175 0 0  0.2 0 0  0.225 0 0  0.25 0 0  0.275 0 0  0.3 0 0  0.325 0 0  0.35 0 0  0.375 0 0  0.4 0 0  0.425 0 0  0.45 0 0  0.475 0 0  0.5 0 0  0.525 0 0  0.55 0 0  0.575 0 0  0.6 0 0  0.625 0 0  0.65 0 0  0.675 0 0  0.7 0 0  0.725 0 0  0.75 0 0  0.775 0 0  0.8 0 0  0.825 0 0  0.85 0 0  0.875 0 0  0.9 0 0  0.925 0 0  0.95 0 0  0.975 0 0  1 0 0  0 0.025 0  0.025 0.025 0  0.05 0.025 0  0.075 0.025 0  0.1 0.025 0  0.125 0.025 0  0.15 0.025 0  0.175 0.025 0  0.2 0.025 0  0.225 0.025 0  0.25 0.025 0  0.275 0.025 0  0.3 0.025 0  0.325 0.025 0  0.35 0.025 0  0.375 0.025 0  0.4 0.025 0  0.425 0.025 0  0.45 0.025 0  0.475 0.025 0  0.5 0.025 0  0.525 0.025 0  0.55 0.025 0  0.575 0.025 0  0.6 0.025 0  0.625 0.025 0  0.65 0.025 0  0.675 0.025 0  0.7 0.025 0  0.725 0.025 0  0.75 0.025 0  0.775 0.025 0  0.8 0.025 0  0.825 0.025 0  0.85 0.025 0  0.875 0.025 0  0.9 0.025 0  0.925 0.025 0  0.95 0.025 0  0.975 0.025 0  1 0.025 0  0 0.05 0  0.025 0.05 0  0.05 0.05 0  0.075 0.05 0  0.1 0.05 0  0.125 0.05 0  0.15 0.05 0  0.175 0.05 0  0.2 0.05 0  0.225 0.05 0  0.25 0.05 0  0.275 0.05 0  0.3 0.05 0  0.325 0.05 0  0.35 0.05 0  0.375 0.05 0  0.4 0.05 0  0.425 0.05 0  0.45 0.05 0  0.475 0.05 0  0.5 0.05 0  0.525 0.05 0  0.55 0.05 0  0.575 0.05 0  0.6 0.05 0  0.625 0.05 0  0.65 0.05 0  0.675 0.05 0  0.7 0.05 0  0.725 0.05 0  0.75 0.05 0  0.775 0.05 0  0.8 0.05 0  0.825 0.05 0  0.85 0.05 0  0.875 0.05 0  0.9 0.05 0  0.925 0.05 0  0.95 0.05 0  0.975 0.05 0  1 0.05 0  0 0.075 0  0.025 0.075 0  0.05 0.075 0  0.075 0.075 0  0.1 0.075 0  0.125 0.075 0  0.15 0.075 0  0.175 0.075 0  0.2 0.075 0  0.225 0.075 0  0.25 0.075 0  0.275 0.075 0  0.3 0.075 0  0.325 0.075 0  0.35 0.075 0  0.375 0.075 0  0.4 0.075 0  0.425 0.075 0  0.45 0.075 0  0.475 0.075 0  0.5 0.075 0  0.525 0.075 0  0.55 0.075 0  0.575 0.075 0  0.6 0.075 0  0.625 0.075 0  0.65 0.075 0  0.675 0.075 0  0.7 0.075 0  0.725 0.075 0  0.75 0.075 0  0.775 0.075 0  0.8 0.075 0  0.825 0.075 0  0.85 0.075 0  0.875 0.075 0  0.9 0.075 0  0.925 0.075 0  0.95 0.075 0  0.975 0.075 0  1 0.075 0  0 0.1 0  0.025 0.1 0  0.05 0.1 0  0.075 0.1 0  0.1 0.1 0  0.125 0.1 0  0.15 0.1 0  0.175 0.1 0  0.2 0.1 0  0.225 0.1 0  0.25 0.1 0  0.275 0.1 0  0.3 0.1 0  0.325 0.1 0  0.35 0.1 0  0.375 0.1 0  0.4 0.1 0  0.425 0.1 0  0.45 0.1 0  0.475 0.1 0  0.5 0.1 0  0.525 0.1 0  0.55 0.1 0  0.575 0.1 0  0.6 0.1 0  0.625 0.1 0  0.65 0.1 0  0.675 0.1 0  0.7 0.1 0  0.725 0.1 0  0.75 0.1 0  0.775 0.1 0  0.8 0.1 0  0.825 0.1 0  0.85 0.1 0  0.875 0.1 0  0.9 0.1 0  0.925 0.1 0  0.95 0.1 0  0.975 0.1 0  1 0.1 0  0 0.125 0  0.025 0.125 0  0.05 0.125 0  0.075 0.125 0  0.1 0.125 0  0.125 0.125 0  0.15 0.125 0  0.175 0.125 0  0.2 0.125 0  0.225 0.125 0  0.25 0.125 0  0.275 0.125 0  0.3 0.125 0  0.325 0.125 0  0.35 0.125 0  0.375 0.125 0  0.4 0.125 0  0.425 0.125 0  0.45 0.125 0  0.475 0.125 0  0.5 0.125 0  0.525 0.125 0  0.55 0.125 0  0.575 0.125 0  0.6 0.125 0  0.625 0.125 0  0.65 0.125 0  0.675 0.125 0  0.7 0.125 0  0.725 0.125 0  0.75 0.125 0  0.775 0.125 0  0.8 0.125 0  0.825 0.125 0  0.85 0.125 0  0.875 0.125 0  0.9 0.125 0  0.925 0.125 0  0.95 0.125 0  0.975 0.125 0  1 0.125 0  0 0.15 0  0.025 0.15 0  0.05 0.15 0  0.075 0.15 0  0.1 0.15 0  0.125 0.15 0  0.15 0.15 0  0.175 0.15 0  0.2 0.15 0  0.225 0.15 0  0.25 0.15 0  0.275 0.15 0  0.3 0.15 0  0.325 0.15 0  0.35 0.15 0  0.375 0.15 0  0.4 0.15 0  0.425 0.15 0  0.45 0.15 0  0.475 0.15 0  0.5 0.15 0  0.525 0.15 0  0.55 0.15 0  0.575 0.15 0  0.6 0.15 0  0.625 0.15 0  0.65 0.15 0  0.675 0.15 0  0.7 0.15 0  0.725 0.15 0  0.75 0.15 0  0.775 0.15 0  0.8 0.15 0  0.825 0.15 0  0.85 0.15 0  0.875 0.15 0  0.9 0.15 0  0.925 0.15 0  0.95 0.15 0  0.975 0.15 0  1 0.15 0  0 0.175 0  0.025 0.175 0  0.05 0.175 0  0.075 0.175 0  0.1 0.175 0  0.125 0.175 0  0.15 0.175 0  0.175 0.175 0  0.2 0.175 0  0.225 0.175 0  0.25 0.175 0  0.275 0.175 0  0.3 0.175 0  0.325 0.175 0  0.35 0.175 0  0.375 0.175 0  0.4 0.175 0  0.425 0.175 0  0.45 0.175 0  0.475 0.175 0  0.5 0.175 0  0.525 0.175 0  0.55 0.175 0  0.575 0.175 0  0.6 0.175 0  0.625 0.175 0  0.65 0.175 0  0.675 0.175 0  0.7 0.175 0  0.725 0.175 0  0.75 0.175 0  0.775 0.175 0  0.8 0.175 0  0.825 0.175 0  0.85 0.175 0  0.875 0.175 0  0.9 0.175 0  0.925 0.175 0  0.95 0.175 0  0.975 0.175 0  1 0.175 0  0 0.2 0  0.025 0.2 0  0.05 0.2 0  0.075 0.2 0  0.1 0.2 0  0.125 0.2 0  0.15 0.2 0  0.175 0.2 0  0.2 0.2 0  0.225 0.2 0  0.25 0.2 0  0.275 0.2 0  0.3 0.2 0  0.325 0.2 0  0.35 0.2 0  0.375 0.2 0  0.4 0.2 0  0.425 0.2 0  0.45 0.2 0  0.475 0.2 0  0.5 0.2 0  0.525 0.2 0  0.55 0.2 0  0.575 0.2 0  0.6 0.2 0  0.625 0.2 0  0.65 0.2 0  0.675 0.2 0  0.7 0.2 0  0.725 0.2 0  0.75 0.2 0  0.775 0.2 0  0.8 0.2 0  0.825 0.2 0  0.85 0.2 0  0.875 0.2 0  0.9 0.2 0  0.925 0.2 0  0.95 0.2 0  0.975 0.2 0  1 0.2 0  0 0.225 0  0.025 0.225 0  0.05 0.225 0  0.075 0.225 0  0.1 0.225 0  0.125 0.225 0  0.15 0.225 0  0.175 0.225 0  0.2 0.225 0  0.225 0.225 0  0.25 0.225 0  0.275 0.225 0  0.3 0.225 0  0.325 0.225 0  0.35 0.225 0  0.375 0.225 0  0.4 0.225 0  0.425 0.225 0  0.45 0.225 0  0.475 0.225 0  0.5 0.225 0  0.525 0.225 0  0.55 0.225 0  0.575 0.225 0  0.6 0.225 0  0.625 0.225 0  0.65 0.225 0  0.675 0.225 0  0.7 0.225 0  0.725 0.225 0  0.75 0.225 0  0.775 0.225 0  0.8 0.225 0  0.825 0.225 0  0.85 0.225 0  0.875 0.225 0  0.9 0.225 0  0.925 0.225 0  0.95 0.225 0  0.975 0.225 0  1 0.225 0  0 0.25 0  0.025 0.25 0  0.05 0.25 0  0.075 0.25 0  0.1 0.25 0  0.125 0.25 0  0.15 0.25 0  0.175 0.25 0  0.2 0.25 0  0.225 0.25 0  0.25 0.25 0  0.275 0.25 0  0.3 0.25 0  0.325 0.25 0  0.35 0.25 0  0.375 0.25 0  0.4 0.25 0  0.425 0.25 0  0.45 0.25 0  0.475 0.25 0  0.5 0.25 0  0.525 0.25 0  0.55 0.25 0  0.575 0.25 0  0.6 0.25 0  0.625 0.25 0  0.65 0.25 0  0.675 0.25 0  0.7 0.25 0  0.725 0.25 0  0.75 0.25 0  0.775 0.25 0  0.8 0.25 0  0.825 0.25 0  0.85 0.25 0  0.875 0.25 0  0.9 0.25 0  0.925 0.25 0  0.95 0.25 0  0.975 0.25 0  1 0.25 0  0 0.275 0  0.025 0.275 0  0.05 0.275 0  0.075 0.275 0  0.1 0.275 0  0.125 0.275 0  0.15 0.275 0  0.175 0.275 0  0.2 0.275 0  0.225 0.275 0  0.25 0.275 0  0.275 0.275 0  0.3 0.275 0  0.325 0.275 0  0.35 0.275 0  0.375 0.275 0  0.4 0.275 0  0.425 0.275 0  0.45 0.275 0  0.475 0.275 0  0.5 0.275 0  0.525 0.275 0  0.55 0.275 0  0.575 0.275 0  0.6 0.275 0  0.625 0.275 0  0.65 0.275 0  0.675 0.275 0  0.7 0.275 0  0.725 0.275 0  0.75 0.275 0  0.775 0.275 0  0.8 0.275 0  0.825 0.275 0  0.85 0.275 0  0.875 0.275 0  0.9 0.275 0  0.925 0.275 0  0.95 0.275 0  0.975 0.275 0  1 0.275 0  0 0.3 0  0.025 0.3 0  0.05 0.3 0  0.075 0.3 0  0.1 0.3 0  0.125 0.3 0  0.15 0.3 0  0.175 0.3 0  0.2 0.3 0  0.225 0.3 0  0.25 0.3 0  0.275 0.3 0  0.3 0.3 0  0.325 0.3 0  0.35 0.3 0  0.375 0.3 0  0.4 0.3 0  0.425 0.3 0  0.45 0.3 0  0.475 0.3 0  0.5 0.3 0  0.525 0.3 0  0.55 0.3 0  0.575 0.3 0  0.6 0.3 0  0.625 0.3 0  0.65 0.3 0  0.675 0.3 0  0.7 0.3 0  0.725 0.3 0  0.75 0.3 0  0.775 0.3 0  0.8 0.3 0  0.825 0.3 0  0.85 0.3 0  0.875 0.3 0  0.9 0.3 0  0.925 0.3 0  0.95 0.3 0  0.975 0.3 0  1 0.3 0  0 0.325 0  0.025 0.325 0  0.05 0.325 0  0.075 0.325 0  0.1 0.325 0  0.125 0.325 0  0.15 0.325 0  0.175 0.325 0  0.2 0.325 0  0.225 0.325 0  0.25 0.325 0  0.275 0.325 0  0.3 0.325 0  0.325 0.325 0  0.35 0.325 0  0.375 0.325 0  0.4 0.325 0  0.425 0.325 0  0.45 0.325 0  0.475 0.325 0  0.5 0.325 0  0.525 0.325 0  0.55 0.325 0  0.575 0.325 0  0.6 0.325 0  0.625 0.325 0  0.65 0.325 0  0.675 0.325 0  0.7 0.325 0  0.725 0.325 0  0.75 0.325 0  0.775 0.325 0  0.8 0.325 0  0.825 0.325 0  0.85 0.325 0  0.875 0.325 0  0.9 0.325 0  0.925 0.325 0  0.95 0.325 0  0.975 0.325 0  1 0.325 0  0 0.35 0  0.025 0.35 0  0.05 0.35 0  0.075 0.35 0  0.1 0.35 0  0.125 0.35 0  0.15 0.35 0  0.175 0.35 0  0.2 0.35 0  0.225 0.35 0  0.25 0.35 0  0.275 0.35 0  0.3 0.35 0  0.325 0.35 0  0.35 0.35 0  0.375 0.35 0  0.4 0.35 0  0.425 0.35 0  0.45 0.35 0  0.475 0.35 0  0.5 0.35 0  0.525 0.35 0  0.55 0.35 0  0.575 0.35 0  0.6 0.35 0  0.625 0.35 0  0.65 0.35 0  0.675 0.35 0  0.7 0.35 0  0.725 0.35 0  0.75 0.35 0  0.775 0.35 0  0.8 0.35 0  0.825 0.35 0  0.85 0.35 0  0.875 0.35 0  0.9 0.35 0  0.925 0.35 0  0.95 0.35 0  0.975 0.35 0  1 0.35 0  0 0.375 0  0.025 0.375 0  0.05 0.375 0  0.075 0.375 0  0.1 0.375 0  0.125 0.375 0  0.15 0.375 0  0.175 0.375 0  0.2 0.375 0  0.225 0.375 0  0.25 0.375 0  0.275 0.375 0  0.3 0.375 0  0.325 0.375 0  0.35 0.375 0  0.375 0.375 0  0.4 0.375 0  0.425 0.375 0  0.45 0.375 0  0.475 0.375 0  0.5 0.375 0  0.525 0.375 0  0.55 0.375 0  0.575 0.375 0  0.6 0.375 0  0.625 0.375 0  0.65 0.375 0  0.675 0.375 0  0.7 0.375 0  0.725 0.375 0  0.75 0.375 0  0.775 0.375 0  0.8 0.375 0  0.825 0.375 0  0.85 0.375 0  0.875 0.375 0  0.9 0.375 0  0.925 0.375 0  0.95 0.375 0  0.975 0.375 0  1 0.375 0  0 0.4 0  0.025 0.4 0  0.05 0.4 0  0.075 0.4 0  0.1 0.4 0  0.125 0.4 0  0.15 0.4 0  0.175 0.4 0  0.2 0.4 0  0.225 0.4 0  0.25 0.4 0  0.275 0.4 0  0.3 0.4 0  0.325 0.4 0  0.35 0.4 0  0.375 0.4 0  0.4 0.4 0  0.425 0.4 0  0.45 0.4 0  0.475 0.4 0  0.5 0.4 0  0.525 0.4 0  0.55 0.4 0  0.575 0.4 0  0.6 0.4 0  0.625 0.4 0  0.65 0.4 0  0.675 0.4 0  0.7 0.4 0  0.725 0.4 0  0.75 0.4 0  0.775 0.4 0  0.8 0.4 0  0.825 0.4 0  0.85 0.4 0  0.875 0.4 0  0.9 0.4 0  0.925 0.4 0  0.95 0.4 0  0.975 0.4 0  1 0.4 0  0 0.425 0  0.025 0.425 0  0.05 0.425 0  0.075 0.425 0  0.1 0.425 0  0.125 0.425 0  0.15 0.425 0  0.175 0.425 0  0.2 0.425 0  0.225 0.425 0  0.25 0.425 0  0.275 0.425 0  0.3 0.425 0  0.325 0.425 0  0.35 0.425 0  0.375 0.425 0  0.4 0.425 0  0.425 0.425 0  0.45 0.425 0  0.475 0.425 0  0.5 0.425 0  0.525 0.425 0  0.55 0.425 0  0.575 0.425 0  0.6 0.425 0  0.625 0.425 0  0.65 0.425 0  0.675 0.425 0  0.7 0.425 0  0.725 0.425 0  0.75 0.425 0  0.775 0.425 0  0.8 0.425 0  0.825 0.425 0  0.85 0.425 0  0.875 0.425 0  0.9 0.425 0  0.925 0.425 0  0.95 0.425 0  0.975 0.425 0  1 0.425 0  0 0.45 0  0.02
[...]
<PointData  Scalars="ControlVisualisation"> 
<DataArray  type="Float64"  Name="ControlVisualisation"  format="ascii">4.3834262062385126e-01  4.1160022517616057e-01  4.1160117038652339e-01  4.1161316739822729e-01  4.1163902360886140e-01  4.1167830451675785e-01  4.1173004497716431e-01  4.1179326699170038e-01  4.1186696662210009e-01  4.1195006280604457e-01  4.1204139745939744e-01  4.1213976156829679e-01  4.1224392917566444e-01  4.1235268962100768e-01  4.1246487319876751e-01  4.1257936764476838e-01  4.1269512360797034e-01  4.1281114742520986e-01  4.1292647927312093e-01  4.1304015416257656e-01  4.1315114226667371e-01  4.1325826376490715e-01  4.1336007188658114e-01  4.1345469652716099e-01  4.1353964056712594e-01  4.1361152370365739e-01  4.1366577776522984e-01  4.1369631996988065e-01  4.1369527687919716e-01  4.1365291940365362e-01  4.1355811551513455e-01  4.1339979797433568e-01  4.1317016933663753e-01  4.1287020936558727e-01  4.1251712586134531e-01  4.1215131121356230e-01  4.1183466027305282e-01  4.1163241063160039e-01  4.1157112686042352e-01  4.1159203494652319e-01  4.6538749052624467e-01  4.1160021387824841e-01  3.3444931730772581e-01  3.3452308925046387e-01  3.3471204506432939e-01  3.3504775873085391e-01  3.3553302832492748e-01  3.3615930374089348e-01  3.3691550664418918e-01  3.3778956371380664e-01  3.3876848601933435e-01  3.3983851047659586e-01  3.4098539716747317e-01  3.4219479407722775e-01  3.4345258086015162e-01  3.4474514224530028e-01  3.4605954270715789e-01  3.4738358353115717e-01  3.4870572677016909e-01  3.5001486956128797e-01  3.5129994762112116e-01  3.5254933872951572e-01  3.5375002617764495e-01  3.5488646995819001e-01  3.5593912335158201e-01  3.5688253192220348e-01  3.5768297579706276e-01  3.5829569276535311e-01  3.5866190127450137e-01  3.5870621014542015e-01  3.5833569271873544e-01  3.5744302821458701e-01  3.5591775798476682e-01  3.5367155573673897e-01  3.5068309378240059e-01  3.4706400719260122e-01  3.4312763624318865e-01  3.3940439738316697e-01  3.3652735495692832e-01  3.3490135575818958e-01  3.3439195590472692e-01  4.1159172471987693e-01  4.1160107978998167e-01  3.3452325234083424e-01  3.3481116144087153e-01  3.3533128365090148e-01  3.3614934080392117e-01  3.3729222925198327e-01  3.3875214863013964e-01  3.4050794834777137e-01  3.4253301003944236e-01  3.4479778713176495e-01  3.4727080187376097e-01  3.4991947902699461e-01  3.5271098047768512e-01  3.5561296867738279e-01  3.5859422095017290e-01  3.6162503467280466e-01  3.6467738107561126e-01  3.6772477376778412e-01  3.7074181814755686e-01  3.7370340042650596e-01  3.7658346066021686e-01  3.7935327419569637e-01  3.8197914330681565e-01  3.8441938206362686e-01  3.8662047621172346e-01  3.8851234257728506e-01  3.9000274805466523e-01  3.9097126434660201e-01  3.9126376873993757e-01  3.9068968338225202e-01  3.8902607607016609e-01  3.8603581718456159e-01  3.8151036910222885e-01  3.7535000962102999e-01  3.6769044684106178e-01  3.5904790494981065e-01  3.5040105175563829e-01  3.4300103321176550e-01  3.3773488680303643e-01  3.3485738839485202e-01  4.1156248095465803e-01  4.1161296678103970e-01  3.3471438595070802e-01  3.3533795770446673e-01  3.3616630477133819e-01  3.3730008142731188e-01  3.3881901762343092e-01  3.4073765289856278e-01  3.4303866013188578e-01  3.4569130091138717e-01  3.4865876273087160e-01  3.5190096532562953e-01  3.5537614877368301e-01  3.5904208195920484e-01  3.6285708673865530e-01  3.6678086008807559e-01  3.7077504153089647e-01  3.7480347800050873e-01  3.7883214532321258e-01  3.8282868710625456e-01  3.8676152544621001e-01  3.9059848352825521e-01  3.9430483910925396e-01  3.9784070317433096e-01  4.0115759633613735e-01  4.0419408989496047e-01  4.0687041355314485e-01  4.0908205167547329e-01  4.1069263187454352e-01  4.1152697119033660e-01  4.1136619458395951e-01  4.0994856403589003e-01  4.0698263285887160e-01  4.0218272219554985e-01  3.9534268543106482e-01  3.8646032629696592e-01  3.7590224799760613e-01  3.6454094358584743e-01  3.5354154099990853e-01  3.4381795394299580e-01  3.3646822908115936e-01  4.1158147672453071e-01  4.1163905280568014e-01  3.3505964294900925e-01  3.3618235658696205e-01  3.3733505760537064e-01  3.3867954933784217e-01  3.4038422345474084e-01  3.4250456508792210e-01  3.4503726094056097e-01  3.4795461423460544e-01  3.5121864107485046e-01  3.5478652446478082e-01  3.5861320278144510e-01  3.6265298705581456e-01  3.6686080222504697e-01  3.7119316075914988e-01  3.7560886204726507e-01  3.8006938544941932e-01  3.8453894589972404e-01  3.8898418350518044e-01  3.9337345560595705e-01  3.9767568990941526e-01  4.0185874125952586e-01  4.0588717477290431e-01  4.0971937917300782e-01  4.1330390472970724e-01  4.1657493494209841e-01  4.1944686437907891e-01  4.2180810523062240e-01  4.2351453544750545e-01  4.2438353291789704e-01  4.2419035624811197e-01  4.2267021185353315e-01  4.1953092079186455e-01  4.1448635023022806e-01  4.0731280506425316e-01  3.9793604302769775e-01  3.8644055351566919e-01  3.7277894740602441e-01  3.5664547911116279e-01  3.4034101107608472e-01  4.1171427035524588e-01  4.1167967671050382e-01  3.3557168084894318e-01  3.3739459454517301e-01  3.3894724129248743e-01  3.4048600053785960e-01  3.4230911959062366e-01  3.4453068971027279e-01  3.4716821649949309e-01  3.5020016623412686e-01  3.5358942184832393e-01  3.5729223837012530e-01  3.6126210588577523e-01  3.6545188640712239e-01  3.6981530721276751e-01  3.7430809566219692e-01  3.7888881640996475e-01  3.8351941078229945e-01  3.8816543211972010e-01  3.9279597470942118e-01  3.9738329634705871e-01  4.0190213262445951e-01  4.0632869522889598e-01  4.1063933899948057e-01  4.1480887653639842e-01  4.1880851935128566e-01  4.2260343646895077e-01  4.2614995066617750e-01  4.2939244003208793e-01  4.3226006841428288e-01  4.3466349753139710e-01  4.3649159353693801e-01  4.3760790335912059e-01  4.3784482299184668e-01  4.3699189770682401e-01  4.3475314970212614e-01  4.3062880262963565e-01  4.2341852573433719e-01  4.1015180730108663e-01  3.8482995165862910e-01  3.4889029898988860e-01  4.1189162340450297e-01  4.1173503934230332e-01  3.3625631037302117e-01  3.3900094344757936e-01  3.4106255147300024e-01  3.4282401963647979e-01  3.4475600339302848e-01  3.4705012148195502e-01  3.4975122936571912e-01  3.5284584471095132e-01  3.5629819231583487e-01  3.6006373626359384e-01  3.6409468599229700e-01  3.6834278761519385e-01  3.7276112332084316e-01  3.7730543159178376e-01  3.8193509183657864e-01  3.8661381727912558e-01  3.9131008563254827e-01  3.9599734290585786e-01  4.0065402496673674e-01  4.0526344995812064e-01  4.0981364367487549e-01  4.1429717289022294e-01  4.1871108296912390e-01  4.2305707134859921e-01  4.2734208310990773e-01  4.3157959206476820e-01  4.3579192446859316e-01  4.4001406538356369e-01  4.4429936046293950e-01  4.4872717206534646e-01  4.5341133755592994e-01  4.5850387679969912e-01  4.6417930091165321e-01  4.7054135864248847e-01  4.7731172049078208e-01  4.8277341114924971e-01  4.8124539693910517e-01  4.5634825866222783e-01  3.8652552156307907e-01  4.1393993852291106e-01  4.1180571037541286e-01  3.3712114479107830e-01  3.4102466924702968e-01  3.4372341944091511e-01  3.4575734917491469e-01  3.4781249451821650e-01  3.5017814065995312e-01  3.5293377732614667e-01  3.5607602394140780e-01  3.5957068741539516e-01  3.6337216847835263e-01  3.6743109266455271e-01  3.7169792470852314e-01  3.7612513414601345e-01  3.8066871581034145e-01  3.8528931495365615e-01  3.8995305671282776e-01  3.9463215300149435e-01  3.9930536709278841e-01  4.0395843201596365e-01  4.0858453847715065e-01  4.1318503436386550e-01  4.1777051737057941e-01  4.2236256408294331e-01  4.2699643573693413e-01  4.3172525048338906e-01  4.3662633824041558e-01  4.4181082722098780e-01  4.4743797852142492e-01  4.5373636880511881e-01  4.6103457984531432e-01  4.6980364960647114e-01  4.8070960462391688e-01  4.9465864870102827e-01  5.1275434505501249e-01  5.3596427622963161e-01  5.6389048019753263e-01  5.9198198896342058e-01  6.0382948199646169e-01  5.7122277567268642e-01  4.6896283059397570e-01  4.1189260646009479e-01  3.3817699158837311e-01  3.4349361225116121e-01  3.4697304786051841e-01  3.4934235179761319e-01  3.5154654118416412e-01  3.5399378565602746e-01  3.5680644812824924e-01  3.5999384285184666e-01  3.6352379418521807e-01  3.6734939251303078e-01  3.7141933480605915e-01  3.7568257454533865e-01  3.8009091773647619e-01  3.8460074179019921e-01  3.8917422788533607e-01  3.9378027693974965e-01  3.9839523323900428e-01  4.0300354450305914e-01  4.0759850665213471e-01  4.1218326994474469e-01  4.1677232549123688e-01  4.2139375779093668e-01  4.2609265578949246e-01  4.3093624623451415e-01  4.3602158698583537e-01  4.4148709541208875e-01  4.4752988439696323e-01  4.5443197517575867e-01  4.6260011684608493e-01  4.7262617077305058e-01  4.8537677772328558e-01  5.0211831618935721e-01  5.2465702076298848e-01  5.5538209284912043e-01  5.9687320708377656e-01  6.5029891867320189e-01  7.1257772211491011e-01  7.7069576908542303e-01  8.3119391108435847e-01  6.8779549320531930e-01  4.1199692921063347e-01  3.3943779916940403e-01  3.4644257838648107e-01  3.5086281441653139e-01  3.5364224609506534e-01  3.5602954507438050e-01  3.5857421593456945e-01  3.6145074618276968e-01  3.6468434823789436e-01  3.6824560904558873e-01  3.7208622370116856e-01  3.7615272818201267e-01  3.8039244059394201e-01  3.8475655215894311e-01  3.8920202069805637e-01  3.9369284421601214e-01  3.9820097528058995e-01  4.0270705967535025e-01  4.0720117735937333e-01  4.1168378073076212e-01  4.1616705651912583e-01  4.2067698966393779e-01  4.2525649409725641e-01  4.2997011827231657e-01  4.3491106737649038e-01  4.4021166693623492e-01  4.4605902041086293e-01  4.5271864591912386e-01  4.6057056270133512e-01  4.7016495973138839e-01  4.8230832731979179e-01  4.9819450050749636e-01  5.1959099106367335e-01  5.4904885415584492e-01  5.8995022569760203e-01  6.4575299062604574e-01  7.1720839461223063e-01  7.9744284367901941e-01  8.6644211906802315e-01  9.1995471904996928e-01  8.3020637165984856e-01  4.1212015358270543e-01  3.4092067867502962e-01  3.4991431837300596e-01  3.5545555027539677e-01  3.5873353348879411e-01  3.6134643907789765e-01  3.6400898066328358e-01  3.6695818591123164e-01  3.7023907397851341e-01  3.7382612734722520e-01  3.7766980992718296e-01  3.8171448501151772e-01  3.8590594267666345e-01  3.9019504263230465e-01  3.9453972822564515e-01  3.9890623644329554e-01  4.0326988295109611e-01  4.0761567520087894e-01  4.1193897920931599e-01  4.1624647067313619e-01  4.2055762623074588e-01  4.2490706187532457e-01  4.2934811766182468e-01  4.3395824496265345e-01  4.3884701373632379e-01  4.4416798820346642e-01  4.5013643130136699e-01  4.5705597638781509e-01  4.6535933717319200e-01  4.7567117521296953e-01  4.8890549643513237e-01  5.0641364947280498e-01  5.3019187534552359e-01  5.6310191424773637e-01  6.0884212293380158e-01  6.7079630830996662e-01  7.4825820685244082e-01  8.3011048503997298e-01  8.9377055769545188e-01  9.3631297247457612e-01  8.6455507915219698e-01  4.1226404285399509e-01  3.4264611555107788e-01  3.5396052781480913e-01  3.6082806612906831e-01  3.6471038433225528e-01  3.6760187876690686e-01  3.7040789382595279e-01  3.7343980719597697e-01  3.7676724273770140e-01  3.8037024784932910e-01  3.8419861864684351e-01  3.8819492062003125e-01  3.9230393000129782e-01  3.9647686504914831e-01  4.0067342456573185e-01  4.0486278541429721e-01  4.0902409327177336e-01  4.1314678095480328e-01  4.1723098309009438e-01  4.2128829714200738e-01  4.2534314910739685e-01  4.2943506034263068e-01  4.3362219232534766e-01  4.3798668945442643e-01  4.4264258058118966e-01  4.4774739553121440e-01  4.5351930039029520e-01  4.6026261270662105e-01  4.6840626036441729e-01  4.7856235769822569e-01  4.9161551844933676e-01  5.0885576309911051e-01  5.3215882729360942e-01  5.6416148867250004e-01  6.0816615814627406e-01  6.6697917246367244e-01  7.3939100431433691e-01  8.1490270503204199e-01  8.7606512942566983e-01  9.1998393763353603e-01  8.4257217515915617e-01  4.1243067158617219e-01  3.4463829683431135e-01  3.5864311198896021e-01  3.6707394015672629e-01  3.7168913835077322e-01  3.7492616922295663e-01  3.7790790957759324e-01  3.8103355914560899e-01  3.8440334377510543e-01  3.8800537357672671e-01  3.9179002871710866e-01  3.9569913000805890e-01  3.9967764206378370e-01  4.0367849035625120e-01  4.0766447325634053e-01  4.1160885233466726e-01  4.1549535649555613e-01  4.1931802728801965e-01  4.2308120858893683e-01  4.2679992847711357e-01  4.3050090310022837e-01  4.3422440757023090e-01  4.3802731319317695e-01  4.4198769606738553e-01  4.4621160096547985e-01  4.5084283314931384e-01  4.5607710945985674e-01  4.6218262078359623e-01  4.6953016149688281e-01  4.7863755049842982e-01  4.9023482571692506e-01  5.0535672469744719e-01  5.2545946468107940e-01  5.5251278229836354e-01  5.8886106754036960e-01  6.3629013569909088e-01  6.9341524834338508e-01  7.5238916481279627e-01  8.0102007279164988e-01  8.2614120447026551e-01  7.3517294895902208e-01  4.1262244207128695e-01  3.4692545428465793e-01  3.6403571701656146e-01  3.7430702366334817e-01  3.7981398154887791e-01  3.8348259992261546e-01  3.8668128569701393e-01  3.8991249009228324e-01  3.9331473502656733e-01  3.9688805030348495e-01  4.0058586633768900e-01  4.0435148829969403e-01  4.0813239939654444e-01  4.1188559718023571e-01  4.1557916418146856e-01  4.1919221943054269e-01  4.2271423987134332e-01  4.2614427874042538e-01  4.2949040180948911e-01  4.3276955959237590e-01  4.3600806455952512e-01  4.3924283145384796e-01  4.4252356175862428e-01  4.4591611135302051e-01  4.4950737933999751e-01  4.5341220774137281e-01  4.5778300451654647e-01  4.6282311759351147e-01  4.6880540198764048e-01  4.7609785865776921e-01  4.8519827952596195e-01  4.9677796433154137e-01  5.1172543077332977e-01  5.3114718508354997e-01  5.5617870047388018e-01  5.8720874727107253e-01  6.2179794809041122e-01  6.5111673813958726e-01  6.5422911868554812e-01  5.8480977075288343e-01  5.2188674526864265e-01  4.1284207662842615e-01  3.4954012025055281e-01  3.7022551391203701e-01  3.8266601973130082e-01  3.8926463040632753e-01  3.9347741356244326e-01  3.9694648798957760e-01  4.0029527744415572e-01  4.0371082022674143e-01  4.0721123490218569e-01  4.1075760689618251e-01  4.1429894560084274e-01  4.1778936555245211e-01  4.2119379023375997e-01  4.2448891219859258e-01  4.2766227177660071e-01  4.3071074425748890e-01  4.3363905454686541e-01  4.3645862755834242e-01  4.3918692795757824e-01  4.4184736663653013e-01  4.4446982074780639e-01  4.4709181275768412e-01  4.4976041174111153e-01  4.5253494986689169e-01  4.5549068187552616e-01  4.5872354494896622e-01  4.6235617874271573e-01  4.6654528805359646e-01  4.7149014075489665e-01  4.7744113893284257e-01  4.8470495799173946e-01  4.9363548425998532e-01  5.0457744573711671e-01  5.1766274697612191e-01  5.3218036006100322e-01  5.4491311613976878e-01  5.4655391144306087e-01  5.1541399835553137e-01  4.2541450925134550e-01  4.2378437785202488e-01  4.1309255614943424e-01  3.5251914982389920e-01  3.7731526535126758e-01  3.9232070509166761e-01  4.0026719931153787e-01  4.0517394813004054e-01  4.0898337350618097e-01  4.1246034575783014e-01  4.1585463908054138e-01  4.1921265816561715e-01  4.2251147081305301e-01  4.2571328040266188e-01  4.2878564035471844e-01  4.3170730117226974e-01  4.3446829870584447e-01  4.3706800960319081e-01  4.3951278645083464e-01  4.4181384777700416e-01  4.4398566915007109e-01  4.4604492293201886e-01  4.4800992643402621e-01  4.4990052530773783e-01  4.5173833140076969e-01  4.5354723396918917e-01  4.5535409679750777e-01  4.5718952853972361e-01  4.5908855280875088e-01  4.6109088298340539e-01  4.6324028285717139e-01  4.6558209757762420e-01  4.6815733259607156e-01  4.7099025697902164e-01  4.7406306889596467e-01  4.7726061338896014e-01  4.8023319447711843e-01  4.8202364554563232e-01  4.8009723569160317e-01  4.6827397841018620e-01  4.3471561918748897e-01  3.7507825942511341e-01  4.1421485915013817e-01  4.1337694959849897e-01  3.5590329195045689e-01  3.8542589566742647e-01  4.0348098083659190e-01  4.1311032041384949e-01  4.1891334884412729e-01  4.2315471758667267e-01  4.2676486657042162e-01  4.3007728408816381e-01  4.3318397148880894e-01  4.3609266140219399e-01  4.3879140757760771e-01  4.4127185388358625e-01  4.4353505294880496e-01  4.4559060698137787e-01  4.4745381074124252e-01  4.4914269836656179e-01  4.5067565101039270e-01  4.5206968249599222e-01  4.5333930320974619e-01  4.5449579089994285e-01  4.5554668659381203e-01  4.5649534337763575e-01  4.5734036475369444e-01  4.5807476707069011e-01  4.5868468112923544e-01  4.5914736853301352e-01  4.5942827046561130e-01  4.5947674406732653e-01  4.5922012248688104e-01  4.5855586338774701e-01  4.5734198151683758e-01  4.5538659689861433e-01  4.5243615591839420e-01  4.4814937287678219e-01  4.4199378250593474e-01  4.3287716824912603e-01  4.1824613078030437e-01  3.9341811404245303e-01  3.5752607266400022e-01  4.1330564501237133e-01  4.1369804078932249e-01  3.5973608211921432e-01  3.9470043122413595e-01  4.1641145813138292e-01  4.2817045388996311e-01  4.3514577083681810e-01  4.3993686964656636e-01  4.4366976704331174e-01  4.4679472193327741e-01  4.4947919279197485e-01  4.5178677082444973e-01  4.5375174644234734e-01  4.5540553842288956e-01  4.5678276230421683e-01  4.5791992826990008e-01  4.5885235782005268e-01  4.5961140228132924e-01  4.6022249893030681e-01  4.6070398938677215e-01  4.6106643322040142e-01  4.6131212869990018e-01  4.6143458860251912e-01  4.6141776430993287e-01  4.6123485004658021e-01  4.6084653084838684e-01  4.6019857237150363e-01  4.5921870849503982e-01  4.5781290148544423e-01  4.5586130147726417e-01  4.5321475255541627e-01  4.4969370713831175e-01  4.4509326390340004e-01  4.3920082468270749e-01  4.3183503300056197e-01  4.2290886264751698e-01  4.1248296200685497e-01  4.0067060879406247e-01  3.8712012095025006e-01  3.7008472918564606e-01  3.4865200265112706e-01  4.1270837218662376e-01  4.1405761417824716e-01  3.6406199733697181e-01  4.0531225673897231e-01  4.3145799743934987e-01  4.4595401175361721e-01  4.5447823326851189e-01  4.5996260558477864e-01  4.6377055606894574e-01  4.6652443145964295e-01  4.6851867060191954e-01  4.6991441349964241e-01  4.7082320010011780e-01  4.7133760037719796e-01  4.7153918772654396e-01  4.7149860134438637e-01  4.7127396650469827e-01  4.7090979570439095e-01  4.7043671715200991e-01  4.6987175996591163e-01  4.6921880454840859e-01  4.6846885982665976e-01  4.6759991976711018e-01  4.6657623403391213e-01  4.6534689756417408e-01  4.6384373621127684e-01  4.6197856830849987e-01  4.5964009784093290e-01  4.5669100926385459e-01  4.5296639169794484e-01  4.4827556922019562e-01  4.4241095645600970e-01  4.3516984943734061e-01  4.2639762788243907e-01  4.1606158328665555e-01  4.0435550448849844e-01  3.9179767509936880e-01  3.7919377149317424e-01  3.6720208496258511e-01  3.5539093393738008e-01  3.4272493225096889e-01  4.1228041241771735e-01  4.1445511767091098e-01  3.6892545992182146e-01  4.1748689515629678e-01  4.4910121220924470e-01  4.6717059236207825e-01  4.7774731940679671e-01  4.8407697866532146e-01  4.8782910598189361e-01  4.8989413239486196e-01  4.9078042667681299e-01  4.9081204395893235e-01  4.9022140665505753e-01  4.8918825167118873e-01  4.8785426951233568e-01  4.8632871843032177e-01  4.8469166600641822e-01  4.8299703155727713e-01  4.8127570716528167e-01  4.7953845272348689e-01  4.7777821396181108e-01  4.7597162172891411e-01  4.7407954871547359e-01  4.7204669140046734e-01  4.6980022174115244e-01  4.6724764522261103e-01  4.6427415155044072e-01  4.6074000830958056e-01  4.5647900562247035e-01  4.5129971828746152e-01  4.4499252691860242e-01  4.3734704108582440e-01  4.2818656945342742e-01  4.1742764488656331e-01  4.0517051592811376e-01  3.9181276623276579e-01  3.7814282950710498e-01  3.6530031290961751e-01  3.5441398970504057e-01  3.4580882748360803e-01  3.3872161208878465e-01  4.1196667812685439e-01  4.1488617467745725e-01  3.7437914339565026e-01  4.3156193024539363e-01  4.7007117788758868e-01  4.9286113943538434e-01  5.0612187979650214e-01  5.1339610122213875e-01  5.1678878004014628e-01  5.176241513