<?xml version="1.0"?>
<VTKFile type="UnstructuredGrid"  version="0.1"  >
<UnstructuredGrid>
<Piece  NumberOfPoints="1681" NumberOfCells="3200">
<Points>
<DataArray  type="Float64"  NumberOfComponents="3"  format="ascii">0 0 0  0.025 0 0  0.05 0 0  0.075 0 0  0.1 0 0  0.125 0 0  0.15 0 0  0.175 0 0  0.2 0 0  0.225 0 0  0.25 0 0  0.275 0 0  0.3 0 0  0.325 0 0  0.35 0 0  0.375 0 0  0.4 0 0  0.425 0 0  0.45 0 0  0.475 0 0  0.5 0 0  0.525 0 0  0.55 0 0  0.575 0 0  0.6 0 0  0.625 0 0  0.65 0 0  0.675 0 0  0.7 0 0  0.725 0 0  0.75 0 0  0.775 0 0  0.8 0 0  0.825 0 0  0.85 0 0  0.875 0 0  0.9 0 0  0.925 0 0  0.95 0 0  0.975 0 0  1 0 0  0 0.025 0  0.025 0.025 0  0.05 0.025 0  0.075 0.025 0  0.1 0.025 0  0.125 0.025 0  0.15 0.025 0  0.175 0.025 0  0.2 0.025 0  0.225 0.025 0  0.25 0.025 0  0.275 0.025 0  0.3 0.025 0  0.325 0.025 0  0.35 0.025 0  0.375 0.025 0  0.4 0.025 0  0.425 0.025 0  0.45 0.025 0  0.475 0.025 0  0.5 0.025 0  0.525 0.025 0  0.55 0.025 0  0.575 0.025 0  0.6 0.025 0  0.625 0.025 0  0.65 0.025 0  0.675 0.025 0  0.7 0.025 0  0.725 0.025 0  0.75 0.025 0  0.775 0.025 0  0.8 0.025 0  0.825 0.025 0  0.85 0.025 0  0.875 0.025 0  0.9 0.025 0  0.925 0.025 0  0.95 0.025 0  0.975 0.025 0  1 0.025 0  0 0.05 0  0.025 0.05 0  0.05 0.05 0  0.075 0.05 0  0.1 0.05 0  0.125 0.05 0  0.15 0.05 0  0.175 0.05 0  0.2 0.05 0  0.225 0.05 0  0.25 0.05 0  0.275 0.05 0  0.3 0.05 0  0.325 0.05 0  0.35 0.05 0  0.375 0.05 0  0.4 0.05 0  0.425 0.05 0  0.45 0.05 0  0.475 0.05 0  0.5 0.05 0  0.525 0.05 0  0.55 0.05 0  0.575 0.05 0  0.6 0.05 0  0.625 0.05 0  0.65 0.05 0  0.675 0.05 0  0.7 0.05 0  0.725 0.05 0  0.75 0.05 0  0.775 0.05 0  0.8 0.05 0  0.825 0.05 0  0.85 0.05 0  0.875 0.05 0  0.9 0.05 0  0.925 0.05 0  0.95 0.05 0  0.975 0.05 0  1 0.05 0  0 0.075 0  0.025 0.075 0  0.05 0.075 0  0.075 0.075 0  0.1 0.075 0  0.125 0.075 0  0.15 0.075 0  0.175 0.075 0  0.2 0.075 0  0.225 0.075 0  0.25 0.075 0  0.275 0.075 0  0.3 0.075 0  0.325 0.075 0  0.35 0.075 0  0.375 0.075 0  0.4 0.075 0  0.425 0.075 0  0.45 0.075 0  0.475 0.075 0  0.5 0.075 0  0.525 0.075 0  0.55 0.075 0  0.575 0.075 0  0.6 0.075 0  0.625 0.075 0  0.65 0.075 0  0.675 0.075 0  0.7 0.075 0  0.725 0.075 0  0.75 0.075 0  0.775 0.075 0  0.8 0.075 0  0.825 0.075 0  0.85 0.075 0  0.875 0.075 0  0.9 0.075 0  0.925 0.075 0  0.95 0.075 0  0.975 0.075 0  1 0.075 0  0 0.1 0  0.025 0.1 0  0.05 0.1 0  0.075 0.1 0  0.1 0.1 0  0.125 0.1 0  0.15 0.1 0  0.175 0.1 0  0.2 0.1 0  0.225 0.1 0  0.25 0.1 0  0.275 0.1 0  0.3 0.1 0  0.325 0.1 0  0.35 0.1 0  0.375 0.1 0  0.4 0.1 0  0.425 0.1 0  0.45 0.1 0  0.475 0.1 0  0.5 0.1 0  0.525 0.1 0  0.55 0.1 0  0.575 0.1 0  0.6 0.1 0  0.625 0.1 0  0.65 0.1 0  0.675 0.1 0  0.7 0.1 0  0.725 0.1 0  0.75 0.1 0  0.775 0.1 0  0.8 0.1 0  0.825 0.1 0  0.85 0.1 0  0.875 0.1 0  0.9 0.1 0  0.925 0.1 0  0.95 0.1 0  0.975 0.1 0  1 0.1 0  0 0.125 0  0.025 0.125 0  0.05 0.125 0  0.075 0.125 0  0.1 0.125 0  0.125 0.125 0  0.15 0.125 0  0.175 0.125 0  0.2 0.125 0  0.225 0.125 0  0.25 0.125 0  0.275 0.125 0  0.3 0.125 0  0.325 0.125 0  0.35 0.125 0  0.375 0.125 0  0.4 0.125 0  0.425 0.125 0  0.45 0.125 0  0.475 0.125 0  0.5 0.125 0  0.525 0.125 0  0.55 0.125 0  0.575 0.125 0  0.6 0.125 0  0.625 0.125 0  0.65 0.125 0  0.675 0.125 0  0.7 0.125 0  0.725 0.125 0  0.75 0.125 0  0.775 0.125 0  0.8 0.125 0  0.825 0.125 0  0.85 0.125 0  0.875 0.125 0  0.9 0.125 0  0.925 0.125 0  0.95 0.125 0  0.975 0.125 0  1 0.125 0  0 0.15 0  0.025 0.15 0  0.05 0.15 0  0.075 0.15 0  0.1 0.15 0  0.125 0.15 0  0.15 0.15 0  0.175 0.15 0  0.2 0.15 0  0.225 0.15 0  0.25 0.15 0  0.275 0.15 0  0.3 0.15 0  0.325 0.15 0  0.35 0.15 0  0.375 0.15 0  0.4 0.15 0  0.425 0.15 0  0.45 0.15 0  0.475 0.15 0  0.5 0.15 0  0.525 0.15 0  0.55 0.15 0  0.575 0.15 0  0.6 0.15 0  0.625 0.15 0  0.65 0.15 0  0.675 0.15 0  0.7 0.15 0  0.725 0.15 0  0.75 0.15 0  0.775 0.15 0  0.8 0.15 0  0.825 0.15 0  0.85 0.15 0  0.875 0.15 0  0.9 0.15 0  0.925 0.15 0  0.95 0.15 0  0.975 0.15 0  1 0.15 0  0 0.175 0  0.025 0.175 0  0.05 0.175 0  0.075 0.175 0  0.1 0.175 0  0.125 0.175 0  0.15 0.175 0  0.175 0.175 0  0.2 0.175 0  0.225 0.175 0  0.25 0.175 0  0.275 0.175 0  0.3 0.175 0  0.325 0.175 0  0.35 0.175 0  0.375 0.175 0  0.4 0.175 0  0.425 0.175 0  0.45 0.175 0  0.475 0.175 0  0.5 0.175 0  0.525 0.175 0  0.55 0.175 0  0.575 0.175 0  0.6 0.175 0  0.625 0.175 0  0.65 0.175 0  0.675 0.175 0  0.7 0.175 0  0.725 0.175 0  0.75 0.175 0  0.775 0.175 0  0.8 0.175 0  0.825 0.175 0  0.85 0.175 0  0.875 0.175 0  0.9 0.175 0  0.925 0.175 0  0.95 0.175 0  0.975 0.175 0  1 0.175 0  0 0.2 0  0.025 0.2 0  0.05 0.2 0  0.075 0.2 0  0.1 0.2 0  0.125 0.2 0  0.15 0.2 0  0.175 0.2 0  0.2 0.2 0  0.225 0.2 0  0.25 0.2 0  0.275 0.2 0  0.3 0.2 0  0.325 0.2 0  0.35 0.2 0  0.375 0.2 0  0.4 0.2 0  0.425 0.2 0  0.45 0.2 0  0.475 0.2 0  0.5 0.2 0  0.525 0.2 0  0.55 0.2 0  0.575 0.2 0  0.6 0.2 0  0.625 0.2 0  0.65 0.2 0  0.675 0.2 0  0.7 0.2 0  0.725 0.2 0  0.75 0.2 0  0.775 0.2 0  0.8 0.2 0  0.825 0.2 0  0.85 0.2 0  0.875 0.2 0  0.9 0.2 0  0.925 0.2 0  0.95 0.2 0  0.975 0.2 0  1 0.2 0  0 0.225 0  0.025 0.225 0  0.05 0.225 0  0.075 0.225 0  0.1 0.225 0  0.125 0.225 0  0.15 0.225 0  0.175 0.225 0  0.2 0.225 0  0.225 0.225 0  0.25 0.225 0  0.275 0.225 0  0.3 0.225 0  0.325 0.225 0  0.35 0.225 0  0.375 0.225 0  0.4 0.225 0  0.425 0.225 0  0.45 0.225 0  0.475 0.225 0  0.5 0.225 0  0.525 0.225 0  0.55 0.225 0  0.575 0.225 0  0.6 0.225 0  0.625 0.225 0  0.65 0.225 0  0.675 0.225 0  0.7 0.225 0  0.725 0.225 0  0.75 0.225 0  0.775 0.225 0  0.8 0.225 0  0.825 0.225 0  0.85 0.225 0  0.875 0.225 0  0.9 0.225 0  0.925 0.225 0  0.95 0.225 0  0.975 0.225 0  1 0.225 0  0 0.25 0  0.025 0.25 0  0.05 0.25 0  0.075 0.25 0  0.1 0.25 0  0.125 0.25 0  0.15 0.25 0  0.175 0.25 0  0.2 0.25 0  0.225 0.25 0  0.25 0.25 0  0.275 0.25 0  0.3 0.25 0  0.325 0.25 0  0.35 0.25 0  0.375 0.25 0  0.4 0.25 0  0.425 0.25 0  0.45 0.25 0  0.475 0.25 0  0.5 0.25 0  0.525 0.25 0  0.55 0.25 0  0.575 0.25 0  0.6 0.25 0  0.625 0.25 0  0.65 0.25 0  0.675 0.25 0  0.7 0.25 0  0.725 0.25 0  0.75 0.25 0  0.775 0.25 0  0.8 0.25 0  0.825 0.25 0  0.85 0.25 0  0.875 0.25 0  0.9 0.25 0  0.925 0.25 0  0.95 0.25 0  0.975 0.25 0  1 0.25 0  0 0.275 0  0.025 0.275 0  0.05 0.275 0  0.075 0.275 0  0.1 0.275 0  0.125 0.275 0  0.15 0.275 0  0.175 0.275 0  0.2 0.275 0  0.225 0.275 0  0.25 0.275 0  0.275 0.275 0  0.3 0.275 0  0.325 0.275 0  0.35 0.275 0  0.375 0.275 0  0.4 0.275 0  0.425 0.275 0  0.45 0.275 0  0.475 0.275 0  0.5 0.275 0  0.525 0.275 0  0.55 0.275 0  0.575 0.275 0  0.6 0.275 0  0.625 0.275 0  0.65 0.275 0  0.675 0.275 0  0.7 0.275 0  0.725 0.275 0  0.75 0.275 0  0.775 0.275 0  0.8 0.275 0  0.825 0.275 0  0.85 0.275 0  0.875 0.275 0  0.9 0.275 0  0.925 0.275 0  0.95 0.275 0  0.975 0.275 0  1 0.275 0  0 0.3 0  0.025 0.3 0  0.05 0.3 0  0.075 0.3 0  0.1 0.3 0  0.125 0.3 0  0.15 0.3 0  0.175 0.3 0  0.2 0.3 0  0.225 0.3 0  0.25 0.3 0  0.275 0.3 0  0.3 0.3 0  0.325 0.3 0  0.35 0.3 0  0.375 0.3 0  0.4 0.3 0  0.425 0.3 0  0.45 0.3 0  0.475 0.3 0  0.5 0.3 0  0.525 0.3 0  0.55 0.3 0  0.575 0.3 0  0.6 0.3 0  0.625 0.3 0  0.65 0.3 0  0.675 0.3 0  0.7 0.3 0  0.725 0.3 0  0.75 0.3 0  0.775 0.3 0  0.8 0.3 0  0.825 0.3 0  0.85 0.3 0  0.875 0.3 0  0.9 0.3 0  0.925 0.3 0  0.95 0.3 0  0.975 0.3 0  1 0.3 0  0 0.325 0  0.025 0.325 0  0.05 0.325 0  0.075 0.325 0  0.1 0.325 0  0.125 0.325 0  0.15 0.325 0  0.175 0.325 0  0.2 0.325 0  0.225 0.325 0  0.25 0.325 0  0.275 0.325 0  0.3 0.325 0  0.325 0.325 0  0.35 0.325 0  0.375 0.325 0  0.4 0.325 0  0.425 0.325 0  0.45 0.325 0  0.475 0.325 0  0.5 0.325 0  0.525 0.325 0  0.55 0.325 0  0.575 0.325 0  0.6 0.325 0  0.625 0.325 0  0.65 0.325 0  0.675 0.325 0  0.7 0.325 0  0.725 0.325 0  0.75 0.325 0  0.775 0.325 0  0.8 0.325 0  0.825 0.325 0  0.85 0.325 0  0.875 0.325 0  0.9 0.325 0  0.925 0.325 0  0.95 0.325 0  0.975 0.325 0  1 0.325 0  0 0.35 0  0.025 0.35 0  0.05 0.35 0  0.075 0.35 0  0.1 0.35 0  0.125 0.35 0  0.15 0.35 0  0.175 0.35 0  0.2 0.35 0  0.225 0.35 0  0.25 0.35 0  0.275 0.35 0  0.3 0.35 0  0.325 0.35 0  0.35 0.35 0  0.375 0.35 0  0.4 0.35 0  0.425 0.35 0  0.45 0.35 0  0.475 0.35 0  0.5 0.35 0  0.525 0.35 0  0.55 0.35 0  0.575 0.35 0  0.6 0.35 0  0.625 0.35 0  0.65 0.35 0  0.675 0.35 0  0.7 0.35 0  0.725 0.35 0  0.75 0.35 0  0.775 0.35 0  0.8 0.35 0  0.825 0.35 0  0.85 0.35 0  0.875 0.35 0  0.9 0.35 0  0.925 0.35 0  0.95 0.35 0  0.975 0.35 0  1 0.35 0  0 0.375 0  0.025 0.375 0  0.05 0.375 0  0.075 0.375 0  0.1 0.375 0  0.125 0.375 0  0.15 0.375 0  0.175 0.375 0  0.2 0.375 0  0.225 0.375 0  0.25 0.375 0  0.275 0.375 0  0.3 0.375 0  0.325 0.375 0  0.35 0.375 0  0.375 0.375 0  0.4 0.375 0  0.425 0.375 0  0.45 0.375 0  0.475 0.375 0  0.5 0.375 0  0.525 0.375 0  0.55 0.375 0  0.575 0.375 0  0.6 0.375 0  0.625 0.375 0  0.65 0.375 0  0.675 0.375 0  0.7 0.375 0  0.725 0.375 0  0.75 0.375 0  0.775 0.375 0  0.8 0.375 0  0.825 0.375 0  0.85 0.375 0  0.875 0.375 0  0.9 0.375 0  0.925 0.375 0  0.95 0.375 0  0.975 0.375 0  1 0.375 0  0 0.4 0  0.025 0.4 0  0.05 0.4 0  0.075 0.4 0  0.1 0.4 0  0.125 0.4 0  0.15 0.4 0  0.175 0.4 0  0.2 0.4 0  0.225 0.4 0  0.25 0.4 0  0.275 0.4 0  0.3 0.4 0  0.325 0.4 0  0.35 0.4 0  0.375 0.4 0  0.4 0.4 0  0.425 0.4 0  0.45 0.4 0  0.475 0.4 0  0.5 0.4 0  0.525 0.4 0  0.55 0.4 0  0.575 0.4 0  0.6 0.4 0  0.625 0.4 0  0.65 0.4 0  0.675 0.4 0  0.7 0.4 0  0.725 0.4 0  0.75 0.4 0  0.775 0.4 0  0.8 0.4 0  0.825 0.4 0  0.85 0.4 0  0.875 0.4 0  0.9 0.4 0  0.925 0.4 0  0.95 0.4 0  0.975 0.4 0  1 0.4 0  0 0.425 0  0.025 0.425 0  0.05 0.425 0  0.075 0.425 0  0.1 0.425 0  0.125 0.425 0  0.15 0.425 0  0.175 0.425 0  0.2 0.425 0  0.225 0.425 0  0.25 0.425 0  0.275 0.425 0  0.3 0.425 0  0.325 0.425 0  0.35 0.425 0  0.375 0.425 0  0.4 0.425 0  0.425 0.425 0  0.45 0.425 0  0.475 0.425 0  0.5 0.425 0  0.525 0.425 0  0.55 0.425 0  0.575 0.425 0  0.6 0.425 0  0.625 0.425 0  0.65 0.425 0  0.675 0.425 0  0.7 0.425 0  0.725 0.425 0  0.75 0.425 0  0.775 0.425 0  0.8 0.425 0  0.825 0.425 0  0.85 0.425 0  0.875 0.425 0  0.9 0.425 0  0.925 0.425 0  0.95 0.425 0  0.975 0.425 0  1 0.425 0  0 0.45 0  0.02
[...]
<PointData  Scalars="ControlVisualisation"> 
<DataArray  type="Float64"  Name="ControlVisualisation"  format="ascii">1.1660991793952379e-01  8.0947422523331411e-02  8.1087651908776037e-02  8.1414494784785921e-02  8.1897309281804748e-02  8.2479638529881091e-02  8.3103767856426813e-02  8.3724994295994407e-02  8.4314261403890783e-02  8.4854092093662209e-02  8.5334380431155918e-02  8.5750107541679207e-02  8.6100338817313798e-02  8.6387399372389748e-02  8.6615765877695830e-02  8.6790785061767253e-02  8.6917506552054727e-02  8.6999839664804762e-02  8.7040107116170246e-02  8.7038971630227099e-02  8.6995666231105800e-02  8.6908445025862383e-02  8.6775168079643764e-02  8.6593931126657309e-02  8.6363647258154444e-02  8.6084488729747943e-02  8.5758111166812506e-02  8.5387619733465384e-02  8.4977302075429084e-02  8.4532259546785518e-02  8.4058193835459538e-02  8.3561759797915997e-02  8.3051998330002041e-02  8.2542992353616257e-02  8.2057091803124815e-02  8.1626292816399409e-02  8.1285860634320695e-02  8.1061271424397230e-02  8.0953787735538185e-02  8.0933811383620019e-02  2.0081942851890106e-01  8.0945527515796672e-02  4.1937834322508513e-02  4.2472868386771730e-02  4.3511948099241041e-02  4.5043027999811677e-02  4.6942683774219701e-02  4.9060247296818196e-02  5.1265396671220029e-02  5.3460247182801172e-02  5.5572511563248744e-02  5.7545577595848670e-02  5.9334527768220069e-02  6.0907244089266122e-02  6.2245935965560134e-02  6.3346070129552262e-02  6.4212545343145175e-02  6.4854590979000926e-02  6.5281054435336147e-02  6.5497189259232202e-02  6.5503382881202860e-02  6.5295743365356040e-02  6.4868145172453165e-02  6.4215175401348634e-02  6.3335368566056274e-02  6.2234124033758359e-02  6.0925747856405088e-02  5.9434168952180531e-02  5.7792092050212240e-02  5.6038687830969769e-02  5.4216367168541266e-02  5.2367585398794721e-02  5.0532995664724231e-02  4.8752133955755297e-02  4.7067172616892312e-02  4.5528647880826764e-02  4.4197989464172506e-02  4.3139051138052290e-02  4.2399720180593875e-02  4.1976132601198118e-02  4.1792246430686152e-02  8.0933618625247894e-02  8.1070456969077470e-02  4.2477054367134538e-02  4.3821517174209450e-02  4.5979500160888469e-02  4.9193107052996614e-02  5.3345347126302019e-02  5.8217357665271308e-02  6.3597436853042755e-02  6.9309374141958563e-02  7.5199074606781546e-02  8.1111041108970550e-02  8.6877188710252212e-02  9.2322861655339858e-02  9.7283024600270468e-02  1.0161768185209008e-01  1.0521896462363688e-01  1.0800870657480550e-01  1.0993047970592391e-01  1.1094202172511072e-01  1.1101271452421875e-01  1.1012751965820738e-01  1.0829537370496919e-01  1.0555807000802686e-01  1.0199574528706599e-01  9.7726755082192029e-02  9.2901744572622819e-02  8.7693038431211401e-02  8.2280931778996202e-02  7.6838733931651013e-02  7.1519082605551912e-02  6.6444603170153077e-02  6.1705737171114758e-02  5.7366052042268585e-02  5.3474293039450338e-02  5.0078091141108713e-02  4.7234088824537140e-02  4.5006435251629839e-02  4.3440778650403397e-02  4.2485818914628624e-02  4.1946482235609747e-02  8.0944772306151228e-02  8.1367400226281750e-02  4.3616983401750381e-02  4.6332408956592033e-02  4.9845337806644158e-02  5.4820170029040959e-02  6.1167570570833989e-02  6.8648314014593315e-02  7.7083259392608114e-02  8.6364734334115428e-02  9.6392515519488950e-02  1.0699805110264028e-01  1.1790805482076330e-01  1.2876731528000210e-01  1.3919458482410496e-01  1.4882521072815219e-01  1.5731987919329432e-01  1.6435591864753485e-01  1.6962581168986965e-01  1.7285150075245084e-01  1.7381024722465188e-01  1.7236677606953810e-01  1.6850777737257835e-01  1.6237139300209383e-01  1.5425858249549057e-01  1.4461300375606478e-01  1.3396656921188749e-01  1.2286507621275791e-01  1.1179932365780880e-01  1.0116192445105143e-01  9.1233364850650145e-02  8.2187490814046249e-02  7.4105871695126668e-02  6.6996916170219328e-02  6.0824356852480187e-02  5.5539068187317624e-02  5.1122077918390511e-02  4.7596544282197090e-02  4.5004236875115178e-02  4.3299614345151852e-02  4.2207887519571351e-02  8.0991200337645203e-02  8.1845085440097026e-02  4.5603925432959200e-02  5.1505263629569489e-02  5.8107688859537029e-02  6.6627547979536628e-02  7.6989547740279135e-02  8.9035610310371910e-02  1.0274191176410347e-01  1.1810905191780535e-01  1.3499003434421730e-01  1.5308986177457559e-01  1.7213812891912819e-01  1.9194220377218330e-01  2.1216104265944744e-01  2.3207787969008800e-01  2.5065652926762660e-01  2.6679220751563482e-01  2.7952488435677830e-01  2.8812038481421587e-01  2.9205985663075618e-01  2.9101164101433397e-01  2.8483697217879722e-01  2.7364654374798125e-01  2.5789030948626329e-01  2.3842855601939042e-01  2.1650985925452396e-01  1.9360117703175514e-01  1.7110002740868147e-01  1.5006243808974659e-01  1.3108852732419563e-01  1.1438694580313208e-01  9.9921096748251503e-02  8.7532951728212280e-02  7.7006893335101814e-02  6.8081697211555867e-02  6.0514507846961677e-02  5.4138470718426153e-02  4.9088222397365419e-02  4.5347585255431144e-02  4.2697701616993551e-02  8.1038798499314446e-02  8.2515826438778778e-02  5.0056142537841672e-02  6.4519370895575856e-02  8.0317360544011368e-02  9.9087176131707741e-02  1.2185367506664715e-01  1.4866811767043248e-01  1.7869084008445527e-01  2.1094038141156651e-01  2.4484391926093149e-01  2.7980879570470818e-01  3.1473544553907712e-01  3.4825221998492339e-01  3.7918451199850461e-01  4.0676921425671553e-01  4.3061738071037176e-01  4.5057973499818471e-01  4.6660930109919196e-01  4.7864899721313586e-01  4.8654490273895773e-01  4.8998358738851866e-01  4.8846011725649985e-01  4.8129490792333901e-01  4.6772668783932275e-01  4.4710736655013822e-01  4.1920177222294414e-01  3.8454107325468356e-01  3.4469494710686099e-01  3.0225169039765876e-01  2.6032957969795179e-01  2.2170666501104552e-01  1.8804234262693498e-01  1.5968376399304957e-01  1.3599859657118296e-01  1.1572786212116948e-01  9.7459576300590683e-02  8.0452137454708958e-02  6.6811827860029718e-02  5.3657268271381731e-02  4.3932896576308798e-02  8.0937096615290194e-02  9.0237373938558615e-02  6.6705244970927557e-02  1.2134775205207696e-01  2.0020948078283834e-01  2.8741297341813110e-01  3.6521708590868024e-01  4.3121794456015444e-01  4.8407982515829695e-01  5.2414867261951270e-01  5.5349685585122788e-01  5.7478956003230464e-01  5.9055889502667702e-01  6.0287261357751454e-01  6.1323847272364562e-01  6.2264766321654230e-01  6.3168481485263395e-01  6.4064951470001663e-01  6.4965587024093885e-01  6.5869651241365268e-01  6.6766983241510369e-01  6.7637493912725377e-01  6.8448228187707605e-01  6.9149277159298184e-01  6.9670515473032879e-01  6.9921814403163385e-01  6.9799752264784742e-01  6.9203768820910894e-01  6.8064052566694155e-01  6.6381455317770743e-01  6.4274368388258107e-01  6.2015972188484558e-01  6.0026153671990667e-01  5.8760662306053035e-01  5.8441466894965077e-01  5.8628992621531451e-01  5.7818371639780020e-01  5.2809655029877267e-01  3.8717950923123640e-01  2.0550718607641977e-01  6.4382916417929426e-02  8.3391828846378177e-02  3.4534573154969367e-01  4.0786072563165798e-01  7.6292021242644004e-01  8.1376292579572473e-01  8.2921513822493775e-01  8.2925505889228435e-01  8.2417513290207511e-01  8.1660433987268100e-01  8.0756239774329686e-01  7.9796856908279268e-01  7.8838650043423686e-01  7.7924412230456763e-01  7.7107327960539629e-01  7.6446767987216169e-01  7.5993217349512010e-01  7.5778209206762548e-01  7.5812265850580929e-01  7.6087985057527197e-01  7.6584912630634816e-01  7.7273862339736521e-01  7.8119360767748913e-01  7.9079802491678652e-01  8.0106055526866682e-01  8.1140829911485690e-01  8.2122663230740933e-01  8.2998725924954919e-01  8.3747943752947085e-01  8.4407528906325147e-01  8.5081031503565663e-01  8.5897807960194150e-01  8.6931028610685768e-01  8.8159536862004662e-01  8.9518122554736057e-01  9.0913146147701374e-01  9.2198950008193004e-01  9.3268050285989257e-01  9.4111143221833160e-01  9.4739827266488386e-01  9.5122260127388014e-01  9.4484556133549047e-01  6.5528783520767708e-01  9.2898903733334803e-01  9.4404546875109874e-01  9.3834775321145758e-01  9.3271410988438042e-01  9.2697074245581013e-01  9.1776332451755760e-01  9.0777539916884442e-01  8.9812158657777608e-01  8.8769039170801156e-01  8.7628533745140358e-01  8.6454730704914284e-01  8.5312398573056902e-01  8.4257484743895628e-01  8.3345227856666959e-01  8.2627987328893615e-01  8.2148399359115598e-01  8.1932442457054955e-01  8.1984858377735115e-01  8.2289402431754322e-01  8.2814010539127292e-01  8.3518123526971044e-01  8.4358684970288289e-01  8.5292966398117820e-01  8.6279255648546815e-01  8.7278603061674409e-01  8.8259948587582393e-01  8.9206588100955497e-01  9.0118438819594582e-01  9.1008302345913705e-01  9.1895609767632191e-01  9.2791139401986744e-01  9.3668290403037169e-01  9.4477988932630297e-01  9.5209017208682634e-01  9.5853053031424928e-01  9.6467899811557356e-01  9.7154410608727015e-01  9.7808207109854917e-01  9.8329953734526621e-01  9.8672923739646068e-01  9.7304783803615291e-01  9.5594558527269557e-01  9.6848432791611194e-01  9.5900499393988381e-01  9.5302748424305472e-01  9.4775378945509081e-01  9.4073849121305131e-01  9.3090119221739964e-01  9.2031644541358948e-01  9.0985689984611295e-01  8.9905798347830435e-01  8.8802191251488338e-01  8.7735150877796597e-01  8.6773389019855041e-01  8.5975481559303824e-01  8.5382796091226265e-01  8.5020353964908679e-01  8.4898585047236885e-01  8.5011740686873949e-01  8.5337556623944744e-01  8.5842840452109537e-01  8.6492854656626361e-01  8.7258131099207337e-01  8.8114347716580155e-01  8.9036462524265103e-01  8.9992983280646355e-01  9.0946658623482945e-01  9.1862723916577793e-01  9.2717933509201989e-01  9.3500694837752396e-01  9.4203410337551963e-01  9.4828488010535950e-01  9.5407908643315220e-01  9.5955413879512663e-01  9.6437746920977174e-01  9.6961854085451105e-01  9.7597539746043260e-01  9.8189267948111381e-01  9.8668226473515652e-01  9.9028708244087194e-01  9.9271462723741200e-01  9.8688439898447422e-01  9.6031381416797479e-01  9.7380374059393782e-01  9.6397062481757079e-01  9.5675714767938413e-01  9.5103895184601439e-01  9.4422225424178974e-01  9.3444260412676972e-01  9.2305793885056131e-01  9.1177971070562103e-01  9.0041519430183470e-01  8.8901368046046392e-01  8.7826646746047432e-01  8.6902829081997057e-01  8.6202816010063277e-01  8.5772888184744589e-01  8.5627679238339505e-01  8.5750501548250524e-01  8.6097486372539267e-01  8.6609109946540863e-01  8.7229262139497687e-01  8.7922952700249735e-01  8.8681344379759963e-01  8.9510791450591820e-01  9.0412763911284466e-01  9.1366147058248970e-01  9.2321904302955704e-01  9.3214053772238092e-01  9.3983229139590918e-01  9.4606177693752125e-01  9.5121004303212553e-01  9.5608665273668536e-01  9.6088910102477820e-01  9.6492364480071857e-01  9.6888934664321247e-01  9.7423384368256905e-01  9.7995449520549638e-01  9.8499858802680151e-01  9.8908721413394762e-01  9.9202101680283961e-01  9.9395977596274676e-01  9.8964235236173170e-01  9.5290185340118183e-01  9.6865660983745405e-01  9.5816873875135034e-01  9.5035706181382873e-01  9.4318221390574875e-01  9.3398842930375869e-01  9.2135127967674180e-01  9.0815700276611189e-01  8.9520271572713295e-01  8.8173205057064619e-01  8.6826474359861183e-01  8.5609112700711920e-01  8.4644396227316432e-01  8.4028807428235175e-01  8.3821170833881209e-01  8.4028436380508353e-01  8.4597181589358716e-01  8.5420283447771017e-01  8.6365558440403811e-01  8.7320858349820596e-01  8.8232197011934688e-01  8.9110287335936067e-01  9.0002666122740604e-01  9.0949965926836307e-01  9.1948616152897011e-01  9.2936686253134160e-01  9.3814569368520029e-01  9.4502423745704289e-01  9.5009116015319273e-01  9.5442417813421820e-01  9.5893085254349664e-01  9.6306742258391131e-01  9.6622907642414779e-01  9.6978964388261335e-01  9.7466764381284621e-01  9.7981223229316339e-01  9.8444151518168455e-01  9.8820937086945626e-01  9.9096940141989853e-01  9.9285084414438685e-01  9.8834456710657370e-01  9.1523469558932002e-01  9.4469147536477172e-01  9.2956412669719468e-01  9.1945167650898485e-01  9.0784320847689304e-01  8.9203354260965206e-01  8.7349645825618205e-01  8.5359405947396660e-01  8.3212856373421440e-01  8.1099193380795476e-01  7.9310142356690372e-01  7.8040554092734460e-01  7.7379715563193274e-01  7.7355785234689534e-01  7.7951288359576898e-01  7.9099836410352897e-01  8.0677746822032070e-01  8.2501982870316015e-01  8.4355957115455293e-01  8.6052204970046819e-01  8.7498876103946610e-01  8.8718968710425461e-01  8.9808873870701578e-01  9.0867688952546732e-01  9.1936199962147813e-01  9.2971202899833383e-01  9.3871190302504626e-01  9.4553376017924728e-01  9.5037686080326389e-01  9.5443175971166616e-01  9.5854005990362490e-01  9.6219133913760369e-01  9.6491797001385526e-01  9.6776472363771493e-01  9.7162326263830479e-01  9.7597013243391095e-01  9.8003574302434604e-01  9.8345477977081830e-01  9.8607919614405903e-01  9.8739243174966307e-01  9.8000890913137706e-01  1.7655268974717059e-01  4.0553396193556251e-01  5.5571000336985532e-01  6.3246677259677975e-01  6.5211293662029712e-01  6.4418980639415724e-01  6.2059710535725265e-01  5.9643795057497850e-01  5.7961020761528792e-01  5.7247856465456093e-01  5.7461325243597416e-01  5.8503850596059270e-01  6.0292989378822370e-01  6.2749339738463739e-01  6.5769441057791900e-01  6.9211949001862993e-01  7.2894160374268058e-01  7.6591174862502109e-01  8.0051348995679861e-01  8.3052843672408294e-01  8.5484145501740183e-01  8.7382299182155543e-01  8.8892846172043216e-01  9.0184458284444990e-01  9.1370948267475083e-01  9.2473494215125485e-01  9.3436881097912905e-01  9.4194425695354411e-01  9.4742469637886118e-01  9.5156556875101272e-01  9.5518140184409783e-01  9.5835336520876402e-01  9.6080363693420923e-01  9.6282123344487880e-01  9.6497687713960012e-01  9.6724531734327390e-01  9.6908212299254848e-01  9.6998053945324247e-01  9.6863720962818345e-01  9.5490651177884811e-01  9.1205508176415861e-01  8.4335621327229632e-02  5.8977081610983959e-02  9.0023659311902135e-02  1.2414243376602066e-01  1.6141923411151968e-01  1.9642890329861140e-01  2.2418930130143760e-01  2.4588440770285463e-01  2.6471543178058804e-01  2.8404828174136199e-01  3.0679917192330081e-01  3.3560689180328662e-01  3.7274393763481173e-01  4.1955588032608471e-01  4.7575878815537154e-01  5.3912475875286936e-01  6.0576491237001384e-01  6.7089339588165431e-01  7.2988668847210447e-01  7.7945037223681912e-01  8.1846132971308150e-01  8.4791978718642669e-01  8.7006792808780209e-01  8.8734152113903408e-01  9.0162619372291131e-01  9.1392905049834328e-01  9.2446097697216911e-01  9.3304205242553728e-01  9.3959071851899345e-01  9.4437695808565381e-01  9.4788099505664869e-01  9.5045474583079348e-01  9.5218200304339995e-01  9.5301448663286537e-01  9.5276984210651383e-01  9.5076956250383571e-01  9.4531715000326466e-01  9.3284432104368920e-01  8.8819117481160748e-01  1.5814756965510998e-01  1.0250968311440616e-01  8.2930478229117782e-02  4.8516079842039227e-02  5.8989427163721589e-02  7.0914842662322161e-02  8.5660149465699650e-02  1.0230331004428607e-01  1.1992359915249715e-01  1.3842609750665896e-01  1.5812665273016321e-01  1.7942911158515529e-01  2.0239301420469086e-01  2.2678704779415756e-01  2.5326059447559324e-01  2.8533335733283988e-01  3.2918156757414646e-01  3.8936314560159607e-01  4.6463453323967907e-01  5.4810198942876742e-01  6.3042894327137378e-01  7.0328033380861743e-01  7.6186199110362562e-01  8.0582873055840376e-01  8.3795296703765776e-01  8.6179526364490555e-01  8.8020785453592487e-01  8.9496524736228389e-01  9.0695937733393794e-01  9.1655699725499018e-01  9.2392770548050096e-01  9.2923132520212226e-01  9.3263806992698095e-01  9.3424199956089260e-01  9.3393563891798026e-01  9.3120943379245213e-01  9.2466401648725438e-01  9.1061678081060471e-01  8.7668091547670046e-01  7.4914479528958311e-01  1.8397474974999323e-01  6.4652300832536133e-02  8.5141489711747426e-02  8.2781277523275562e-02  4.6663414926696900e-02  5.1443715073963905e-02  5.7397842089263504e-02  6.5994558566013981e-02  7.6815311221077959e-02  8.9515588969152474e-02  1.0410841799813186e-01  1.2096742321026956e-01  1.4074648815671237e-01  1.6413209041852139e-01  1.9137481736035497e-01  2.2159359818373908e-01  2.5286778549132988e-01  2.8506244283470894e-01  3.2347910495079168e-01  3.7596848283557249e-01  4.4498224670885478e-01  5.2499194269008065e-01  6.0633330273178954e-01  6.7990460502817363e-01  7.4018758512650951e-01  7.8616244620337017e-01  8.2002031357420913e-01  8.4493217493762829e-01  8.6354073553632849e-01  8.7755600434125003e-01  8.8793479741663306e-01  8.9515934565068711e-01  8.9941051199536115e-01  9.0060105566504878e-01  8.9826778646999639e-01  8.9121529236832930e-01  8.7641894412350951e-01  8.4514397546244113e-01  7.6624093624709300e-01  5.3219810176981341e-01  1.8642806947970653e-01  9.7762656663544861e-02  5.5366827524637410e-02  8.4127654748781810e-02  8.2831652166466915e-02  4.6226129203522690e-02  4.9427842023869295e-02  5.3352936897240806e-02  5.9423225488432929e-02  6.7551602485716358e-02  7.7601506872873510e-02  8.9681699685121324e-02  1.0428088079615956e-01  1.2227754176005809e-01  1.4487151454078656e-01  1.7329694872302193e-01  2.0799584268184634e-01  2.4715673705115115e-01  2.8620502033297279e-01  3.2152732403641432e-01  3.5609532529808097e-01  3.9766667931688104e-01  4.5089285366262327e-01  5.1384418473178717e-01  5.8042704080756213e-01  6.4405122656148273e-01  7.0000946866125546e-01  7.4617838901699929e-01  7.8244856719976397e-01  8.0969991373398176e-01  8.2900107812079749e-01  8.4120880550759991e-01  8.4680039911276705e-01  8.4570407826444782e-01  8.3688168042453581e-01  8.1718244652748750e-01  7.7818674585819558e-01  6.9933440175043005e-01  5.4753740400630047e-01  3.3045076811202817e-01  1.7311431605316008e-01  1.1316604068238337e-01  7.6158275478234144e-02  5.3572353659694066e-02  8.4008197300606394e-02  8.3035456793892862e-02  4.6542659705589483e-02  4.9580621897461416e-02  5.3009839070314098e-02  5.8332272984891111e-02  6.5625316449926030e-02  7.4866024026824241e-02  8.6195756271570168e-02  1.0008720474446027e-01  1.1747506428476735e-01  1.3984827553830192e-01  1.6909929039900631e-01  2.0666001977010254e-01  2.5145509030677188e-01  2.9782462106487290e-01  3.3747991340064559e-01  3.6656448029849231e-01  3.8951875188839996e-01  4.1438754397057243e-01  4.4638223970603647e-01  4.8594659586600147e-01  5.3034347381307201e-01  5.7583323451489665e-01  6.1900640403931018e-01  6.5716302237717839e-01  6.8813379065681457e-01  7.0990808713149922e-01  7.2020952689677065e-01  7.1598714421567000e-01  6.9282426029319177e-01  6.4472985894047863e-01  5.6590897206759516e-01  4.5684529527362450e-01  3.3324733449350752e-01  2.2581269180926272e-01  1.5618046434890154e-01  1.1577807334526871e-01  8.8680962289076515e-02  6.9537940154579952e-02  5.2824285917197504e-02  8.4016055690012026e-02  8.3357207484993270e-02  4.7442413214471742e-02  5.1106842321670287e-02  5.4749638909815414e-02  6.0291035693456542e-02  6.7958284516195233e-02  7.7839598581492919e-02  9.0147944463824181e-02  1.0541164810598394e-01  1.2467324439284694e-01  1.4963429103134931e-01  1.8243376866739397e-01  2.2439285778311546e-01  2.7340853979000157e-01  3.2209001281766858e-01  3.6065740722587025e-01  3.8368734440593416e-01  3.9348219430587783e-01  3.9710375185385882e-01  4.0144854695853410e-01  4.1047474210614054e-01  4.2495149494937734e-01  4.4337116392520443e-01  4.6291685995140031e-01  4.8009250381709506e-01  4.9107269215143567e-01  4.9197154924331254e-01  4.7924058166275818e-01  4.5040181255519229e-01  4.0524124573877085e-01  3.4718681013005415e-01  2.8372528752973530e-01  2.2420922916423902e-01  1.7543244183775128e-01  1.3893858282578328e-01  1.1250562110575084e-01  9.3053283434945150e-02  7.8151030488418871e-02  6.6012343396967932e-02  5.2289222907411434e-02  8.3988708948813745e-02  8.3757599767641105e-02  4.8823859078896907e-02  5.3834572600221384e-02  5.8250559298134733e-02  6.4755515953356352e-02  7.3814366870956521e-02  8.5697082478697853e-02  1.0085202747227692e-01  1.201578289