<?xml version="1.0"?>
<VTKFile type="UnstructuredGrid"  version="0.1"  >
<UnstructuredGrid>
<Piece  NumberOfPoints="1681" NumberOfCells="3200">
<Points>
<DataArray  type="Float64"  NumberOfComponents="3"  format="ascii">0 0 0  0.025 0 0  0.05 0 0  0.075 0 0  0.1 0 0  0.125 0 0  0.15 0 0  0.175 0 0  0.2 0 0  0.225 0 0  0.25 0 0  0.275 0 0  0.3 0 0  0.325 0 0  0.35 0 0  0.375 0 0  0.4 0 0  0.425 0 0  0.45 0 0  0.475 0 0  0.5 0 0  0.525 0 0  0.55 0 0  0.575 0 0  0.6 0 0  0.625 0 0  0.65 0 0  0.675 0 0  0.7 0 0  0.725 0 0  0.75 0 0  0.775 0 0  0.8 0 0  0.825 0 0  0.85 0 0  0.875 0 0  0.9 0 0  0.925 0 0  0.95 0 0  0.975 0 0  1 0 0  0 0.025 0  0.025 0.025 0  0.05 0.025 0  0.075 0.025 0  0.1 0.025 0  0.125 0.025 0  0.15 0.025 0  0.175 0.025 0  0.2 0.025 0  0.225 0.025 0  0.25 0.025 0  0.275 0.025 0  0.3 0.025 0  0.325 0.025 0  0.35 0.025 0  0.375 0.025 0  0.4 0.025 0  0.425 0.025 0  0.45 0.025 0  0.475 0.025 0  0.5 0.025 0  0.525 0.025 0  0.55 0.025 0  0.575 0.025 0  0.6 0.025 0  0.625 0.025 0  0.65 0.025 0  0.675 0.025 0  0.7 0.025 0  0.725 0.025 0  0.75 0.025 0  0.775 0.025 0  0.8 0.025 0  0.825 0.025 0  0.85 0.025 0  0.875 0.025 0  0.9 0.025 0  0.925 0.025 0  0.95 0.025 0  0.975 0.025 0  1 0.025 0  0 0.05 0  0.025 0.05 0  0.05 0.05 0  0.075 0.05 0  0.1 0.05 0  0.125 0.05 0  0.15 0.05 0  0.175 0.05 0  0.2 0.05 0  0.225 0.05 0  0.25 0.05 0  0.275 0.05 0  0.3 0.05 0  0.325 0.05 0  0.35 0.05 0  0.375 0.05 0  0.4 0.05 0  0.425 0.05 0  0.45 0.05 0  0.475 0.05 0  0.5 0.05 0  0.525 0.05 0  0.55 0.05 0  0.575 0.05 0  0.6 0.05 0  0.625 0.05 0  0.65 0.05 0  0.675 0.05 0  0.7 0.05 0  0.725 0.05 0  0.75 0.05 0  0.775 0.05 0  0.8 0.05 0  0.825 0.05 0  0.85 0.05 0  0.875 0.05 0  0.9 0.05 0  0.925 0.05 0  0.95 0.05 0  0.975 0.05 0  1 0.05 0  0 0.075 0  0.025 0.075 0  0.05 0.075 0  0.075 0.075 0  0.1 0.075 0  0.125 0.075 0  0.15 0.075 0  0.175 0.075 0  0.2 0.075 0  0.225 0.075 0  0.25 0.075 0  0.275 0.075 0  0.3 0.075 0  0.325 0.075 0  0.35 0.075 0  0.375 0.075 0  0.4 0.075 0  0.425 0.075 0  0.45 0.075 0  0.475 0.075 0  0.5 0.075 0  0.525 0.075 0  0.55 0.075 0  0.575 0.075 0  0.6 0.075 0  0.625 0.075 0  0.65 0.075 0  0.675 0.075 0  0.7 0.075 0  0.725 0.075 0  0.75 0.075 0  0.775 0.075 0  0.8 0.075 0  0.825 0.075 0  0.85 0.075 0  0.875 0.075 0  0.9 0.075 0  0.925 0.075 0  0.95 0.075 0  0.975 0.075 0  1 0.075 0  0 0.1 0  0.025 0.1 0  0.05 0.1 0  0.075 0.1 0  0.1 0.1 0  0.125 0.1 0  0.15 0.1 0  0.175 0.1 0  0.2 0.1 0  0.225 0.1 0  0.25 0.1 0  0.275 0.1 0  0.3 0.1 0  0.325 0.1 0  0.35 0.1 0  0.375 0.1 0  0.4 0.1 0  0.425 0.1 0  0.45 0.1 0  0.475 0.1 0  0.5 0.1 0  0.525 0.1 0  0.55 0.1 0  0.575 0.1 0  0.6 0.1 0  0.625 0.1 0  0.65 0.1 0  0.675 0.1 0  0.7 0.1 0  0.725 0.1 0  0.75 0.1 0  0.775 0.1 0  0.8 0.1 0  0.825 0.1 0  0.85 0.1 0  0.875 0.1 0  0.9 0.1 0  0.925 0.1 0  0.95 0.1 0  0.975 0.1 0  1 0.1 0  0 0.125 0  0.025 0.125 0  0.05 0.125 0  0.075 0.125 0  0.1 0.125 0  0.125 0.125 0  0.15 0.125 0  0.175 0.125 0  0.2 0.125 0  0.225 0.125 0  0.25 0.125 0  0.275 0.125 0  0.3 0.125 0  0.325 0.125 0  0.35 0.125 0  0.375 0.125 0  0.4 0.125 0  0.425 0.125 0  0.45 0.125 0  0.475 0.125 0  0.5 0.125 0  0.525 0.125 0  0.55 0.125 0  0.575 0.125 0  0.6 0.125 0  0.625 0.125 0  0.65 0.125 0  0.675 0.125 0  0.7 0.125 0  0.725 0.125 0  0.75 0.125 0  0.775 0.125 0  0.8 0.125 0  0.825 0.125 0  0.85 0.125 0  0.875 0.125 0  0.9 0.125 0  0.925 0.125 0  0.95 0.125 0  0.975 0.125 0  1 0.125 0  0 0.15 0  0.025 0.15 0  0.05 0.15 0  0.075 0.15 0  0.1 0.15 0  0.125 0.15 0  0.15 0.15 0  0.175 0.15 0  0.2 0.15 0  0.225 0.15 0  0.25 0.15 0  0.275 0.15 0  0.3 0.15 0  0.325 0.15 0  0.35 0.15 0  0.375 0.15 0  0.4 0.15 0  0.425 0.15 0  0.45 0.15 0  0.475 0.15 0  0.5 0.15 0  0.525 0.15 0  0.55 0.15 0  0.575 0.15 0  0.6 0.15 0  0.625 0.15 0  0.65 0.15 0  0.675 0.15 0  0.7 0.15 0  0.725 0.15 0  0.75 0.15 0  0.775 0.15 0  0.8 0.15 0  0.825 0.15 0  0.85 0.15 0  0.875 0.15 0  0.9 0.15 0  0.925 0.15 0  0.95 0.15 0  0.975 0.15 0  1 0.15 0  0 0.175 0  0.025 0.175 0  0.05 0.175 0  0.075 0.175 0  0.1 0.175 0  0.125 0.175 0  0.15 0.175 0  0.175 0.175 0  0.2 0.175 0  0.225 0.175 0  0.25 0.175 0  0.275 0.175 0  0.3 0.175 0  0.325 0.175 0  0.35 0.175 0  0.375 0.175 0  0.4 0.175 0  0.425 0.175 0  0.45 0.175 0  0.475 0.175 0  0.5 0.175 0  0.525 0.175 0  0.55 0.175 0  0.575 0.175 0  0.6 0.175 0  0.625 0.175 0  0.65 0.175 0  0.675 0.175 0  0.7 0.175 0  0.725 0.175 0  0.75 0.175 0  0.775 0.175 0  0.8 0.175 0  0.825 0.175 0  0.85 0.175 0  0.875 0.175 0  0.9 0.175 0  0.925 0.175 0  0.95 0.175 0  0.975 0.175 0  1 0.175 0  0 0.2 0  0.025 0.2 0  0.05 0.2 0  0.075 0.2 0  0.1 0.2 0  0.125 0.2 0  0.15 0.2 0  0.175 0.2 0  0.2 0.2 0  0.225 0.2 0  0.25 0.2 0  0.275 0.2 0  0.3 0.2 0  0.325 0.2 0  0.35 0.2 0  0.375 0.2 0  0.4 0.2 0  0.425 0.2 0  0.45 0.2 0  0.475 0.2 0  0.5 0.2 0  0.525 0.2 0  0.55 0.2 0  0.575 0.2 0  0.6 0.2 0  0.625 0.2 0  0.65 0.2 0  0.675 0.2 0  0.7 0.2 0  0.725 0.2 0  0.75 0.2 0  0.775 0.2 0  0.8 0.2 0  0.825 0.2 0  0.85 0.2 0  0.875 0.2 0  0.9 0.2 0  0.925 0.2 0  0.95 0.2 0  0.975 0.2 0  1 0.2 0  0 0.225 0  0.025 0.225 0  0.05 0.225 0  0.075 0.225 0  0.1 0.225 0  0.125 0.225 0  0.15 0.225 0  0.175 0.225 0  0.2 0.225 0  0.225 0.225 0  0.25 0.225 0  0.275 0.225 0  0.3 0.225 0  0.325 0.225 0  0.35 0.225 0  0.375 0.225 0  0.4 0.225 0  0.425 0.225 0  0.45 0.225 0  0.475 0.225 0  0.5 0.225 0  0.525 0.225 0  0.55 0.225 0  0.575 0.225 0  0.6 0.225 0  0.625 0.225 0  0.65 0.225 0  0.675 0.225 0  0.7 0.225 0  0.725 0.225 0  0.75 0.225 0  0.775 0.225 0  0.8 0.225 0  0.825 0.225 0  0.85 0.225 0  0.875 0.225 0  0.9 0.225 0  0.925 0.225 0  0.95 0.225 0  0.975 0.225 0  1 0.225 0  0 0.25 0  0.025 0.25 0  0.05 0.25 0  0.075 0.25 0  0.1 0.25 0  0.125 0.25 0  0.15 0.25 0  0.175 0.25 0  0.2 0.25 0  0.225 0.25 0  0.25 0.25 0  0.275 0.25 0  0.3 0.25 0  0.325 0.25 0  0.35 0.25 0  0.375 0.25 0  0.4 0.25 0  0.425 0.25 0  0.45 0.25 0  0.475 0.25 0  0.5 0.25 0  0.525 0.25 0  0.55 0.25 0  0.575 0.25 0  0.6 0.25 0  0.625 0.25 0  0.65 0.25 0  0.675 0.25 0  0.7 0.25 0  0.725 0.25 0  0.75 0.25 0  0.775 0.25 0  0.8 0.25 0  0.825 0.25 0  0.85 0.25 0  0.875 0.25 0  0.9 0.25 0  0.925 0.25 0  0.95 0.25 0  0.975 0.25 0  1 0.25 0  0 0.275 0  0.025 0.275 0  0.05 0.275 0  0.075 0.275 0  0.1 0.275 0  0.125 0.275 0  0.15 0.275 0  0.175 0.275 0  0.2 0.275 0  0.225 0.275 0  0.25 0.275 0  0.275 0.275 0  0.3 0.275 0  0.325 0.275 0  0.35 0.275 0  0.375 0.275 0  0.4 0.275 0  0.425 0.275 0  0.45 0.275 0  0.475 0.275 0  0.5 0.275 0  0.525 0.275 0  0.55 0.275 0  0.575 0.275 0  0.6 0.275 0  0.625 0.275 0  0.65 0.275 0  0.675 0.275 0  0.7 0.275 0  0.725 0.275 0  0.75 0.275 0  0.775 0.275 0  0.8 0.275 0  0.825 0.275 0  0.85 0.275 0  0.875 0.275 0  0.9 0.275 0  0.925 0.275 0  0.95 0.275 0  0.975 0.275 0  1 0.275 0  0 0.3 0  0.025 0.3 0  0.05 0.3 0  0.075 0.3 0  0.1 0.3 0  0.125 0.3 0  0.15 0.3 0  0.175 0.3 0  0.2 0.3 0  0.225 0.3 0  0.25 0.3 0  0.275 0.3 0  0.3 0.3 0  0.325 0.3 0  0.35 0.3 0  0.375 0.3 0  0.4 0.3 0  0.425 0.3 0  0.45 0.3 0  0.475 0.3 0  0.5 0.3 0  0.525 0.3 0  0.55 0.3 0  0.575 0.3 0  0.6 0.3 0  0.625 0.3 0  0.65 0.3 0  0.675 0.3 0  0.7 0.3 0  0.725 0.3 0  0.75 0.3 0  0.775 0.3 0  0.8 0.3 0  0.825 0.3 0  0.85 0.3 0  0.875 0.3 0  0.9 0.3 0  0.925 0.3 0  0.95 0.3 0  0.975 0.3 0  1 0.3 0  0 0.325 0  0.025 0.325 0  0.05 0.325 0  0.075 0.325 0  0.1 0.325 0  0.125 0.325 0  0.15 0.325 0  0.175 0.325 0  0.2 0.325 0  0.225 0.325 0  0.25 0.325 0  0.275 0.325 0  0.3 0.325 0  0.325 0.325 0  0.35 0.325 0  0.375 0.325 0  0.4 0.325 0  0.425 0.325 0  0.45 0.325 0  0.475 0.325 0  0.5 0.325 0  0.525 0.325 0  0.55 0.325 0  0.575 0.325 0  0.6 0.325 0  0.625 0.325 0  0.65 0.325 0  0.675 0.325 0  0.7 0.325 0  0.725 0.325 0  0.75 0.325 0  0.775 0.325 0  0.8 0.325 0  0.825 0.325 0  0.85 0.325 0  0.875 0.325 0  0.9 0.325 0  0.925 0.325 0  0.95 0.325 0  0.975 0.325 0  1 0.325 0  0 0.35 0  0.025 0.35 0  0.05 0.35 0  0.075 0.35 0  0.1 0.35 0  0.125 0.35 0  0.15 0.35 0  0.175 0.35 0  0.2 0.35 0  0.225 0.35 0  0.25 0.35 0  0.275 0.35 0  0.3 0.35 0  0.325 0.35 0  0.35 0.35 0  0.375 0.35 0  0.4 0.35 0  0.425 0.35 0  0.45 0.35 0  0.475 0.35 0  0.5 0.35 0  0.525 0.35 0  0.55 0.35 0  0.575 0.35 0  0.6 0.35 0  0.625 0.35 0  0.65 0.35 0  0.675 0.35 0  0.7 0.35 0  0.725 0.35 0  0.75 0.35 0  0.775 0.35 0  0.8 0.35 0  0.825 0.35 0  0.85 0.35 0  0.875 0.35 0  0.9 0.35 0  0.925 0.35 0  0.95 0.35 0  0.975 0.35 0  1 0.35 0  0 0.375 0  0.025 0.375 0  0.05 0.375 0  0.075 0.375 0  0.1 0.375 0  0.125 0.375 0  0.15 0.375 0  0.175 0.375 0  0.2 0.375 0  0.225 0.375 0  0.25 0.375 0  0.275 0.375 0  0.3 0.375 0  0.325 0.375 0  0.35 0.375 0  0.375 0.375 0  0.4 0.375 0  0.425 0.375 0  0.45 0.375 0  0.475 0.375 0  0.5 0.375 0  0.525 0.375 0  0.55 0.375 0  0.575 0.375 0  0.6 0.375 0  0.625 0.375 0  0.65 0.375 0  0.675 0.375 0  0.7 0.375 0  0.725 0.375 0  0.75 0.375 0  0.775 0.375 0  0.8 0.375 0  0.825 0.375 0  0.85 0.375 0  0.875 0.375 0  0.9 0.375 0  0.925 0.375 0  0.95 0.375 0  0.975 0.375 0  1 0.375 0  0 0.4 0  0.025 0.4 0  0.05 0.4 0  0.075 0.4 0  0.1 0.4 0  0.125 0.4 0  0.15 0.4 0  0.175 0.4 0  0.2 0.4 0  0.225 0.4 0  0.25 0.4 0  0.275 0.4 0  0.3 0.4 0  0.325 0.4 0  0.35 0.4 0  0.375 0.4 0  0.4 0.4 0  0.425 0.4 0  0.45 0.4 0  0.475 0.4 0  0.5 0.4 0  0.525 0.4 0  0.55 0.4 0  0.575 0.4 0  0.6 0.4 0  0.625 0.4 0  0.65 0.4 0  0.675 0.4 0  0.7 0.4 0  0.725 0.4 0  0.75 0.4 0  0.775 0.4 0  0.8 0.4 0  0.825 0.4 0  0.85 0.4 0  0.875 0.4 0  0.9 0.4 0  0.925 0.4 0  0.95 0.4 0  0.975 0.4 0  1 0.4 0  0 0.425 0  0.025 0.425 0  0.05 0.425 0  0.075 0.425 0  0.1 0.425 0  0.125 0.425 0  0.15 0.425 0  0.175 0.425 0  0.2 0.425 0  0.225 0.425 0  0.25 0.425 0  0.275 0.425 0  0.3 0.425 0  0.325 0.425 0  0.35 0.425 0  0.375 0.425 0  0.4 0.425 0  0.425 0.425 0  0.45 0.425 0  0.475 0.425 0  0.5 0.425 0  0.525 0.425 0  0.55 0.425 0  0.575 0.425 0  0.6 0.425 0  0.625 0.425 0  0.65 0.425 0  0.675 0.425 0  0.7 0.425 0  0.725 0.425 0  0.75 0.425 0  0.775 0.425 0  0.8 0.425 0  0.825 0.425 0  0.85 0.425 0  0.875 0.425 0  0.9 0.425 0  0.925 0.425 0  0.95 0.425 0  0.975 0.425 0  1 0.425 0  0 0.45 0  0.02
[...]
<PointData  Scalars="ControlVisualisation"> 
<DataArray  type="Float64"  Name="ControlVisualisation"  format="ascii">1.9932312854837623e-03  1.2177622886985211e-03  1.2291211091002582e-03  1.2465092059212334e-03  1.2668622523559032e-03  1.2872775891701394e-03  1.3055104867762143e-03  1.3202292318359767e-03  1.3309219530132262e-03  1.3376574797858648e-03  1.3408423438573522e-03  1.3410352205302902e-03  1.3388274140957901e-03  1.3347755005871482e-03  1.3293689778259012e-03  1.3230192522905705e-03  1.3160606631672882e-03  1.3087576558899030e-03  1.3013145643322413e-03  1.2938860493084392e-03  1.2865868729930979e-03  1.2795004366596655e-03  1.2726860301078169e-03  1.2661848131457231e-03  1.2600246141527850e-03  1.2542236965480172e-03  1.2487936616339811e-03  1.2437416447442968e-03  1.2390719409407643e-03  1.2347871747042912e-03  1.2308891087156387e-03  1.2273791700207731e-03  1.2242587588001817e-03  1.2215293904953690e-03  1.2191927276306289e-03  1.2172505079316768e-03  1.2157045010969486e-03  1.2145558274337543e-03  1.2138092379988779e-03  1.2134514697685330e-03  5.4444716679750609e-03  1.2179890733523468e-03  5.7113611609582238e-04  5.8301734634640362e-04  6.0256548311514641e-04  6.2732714926757454e-04  6.5398957213358238e-04  6.7939748211116489e-04  7.0112328880087818e-04  7.1770976530179771e-04  7.2863853195626700e-04  7.3411898836001598e-04  7.3482079531490471e-04  7.3163268186661760e-04  7.2548421040492892e-04  7.1723471972994955e-04  7.0761741224662650e-04  6.9722193375374093e-04  6.8650024406153524e-04  6.7578417037502964e-04  6.6530745540629088e-04  6.5522751740792855e-04  6.4564428357130610e-04  6.3661582283513617e-04  6.2817076702840059e-04  6.2031779094921487e-04  6.1305264495534998e-04  6.0636324815434533e-04  6.0023329376758864e-04  5.9464473643302098e-04  5.8957945223787195e-04  5.8502029474850838e-04  5.8095171620289681e-04  5.7736008100508769e-04  5.7423376632490452e-04  5.7156312982989876e-04  5.6934036319011394e-04  5.6755937047746807e-04  5.6621553000355993e-04  5.6530454391635963e-04  5.6478920413666580e-04  1.2134515021894480e-03  1.2319555539492797e-03  5.8530769764185680e-04  6.0245206818732282e-04  6.2701955284843677e-04  6.5817417273779529e-04  6.9180532834450359e-04  7.2390526019578576e-04  7.5130812831844561e-04  7.7202836400170618e-04  7.8528210545540124e-04  7.9127885775148558e-04  7.9089695455335717e-04  7.8535635447967160e-04  7.7595641823971192e-04  7.6390301236593122e-04  7.5021816079739567e-04  7.3571105862161223e-04  7.2098723821490958e-04  7.0647677413735962e-04  6.9246932382179157e-04  6.7914736760314590e-04  6.6661554415219169e-04  6.5492374834035102e-04  6.4408493711477213e-04  6.3408838231977652e-04  6.2490915827902974e-04  6.1651477633062075e-04  6.0886969917739561e-04  6.0193831391893977e-04  5.9568680344488127e-04  5.9008424228635401e-04  5.8510315548587180e-04  5.8071971415219695e-04  5.7691369311244393e-04  5.7366828709863864e-04  5.7096982435046956e-04  5.6880758758602308e-04  5.6717260605085957e-04  5.6605186005771497e-04  5.6530543184671279e-04  1.2138099131670896e-03  1.2614941584633409e-03  6.1691510591876150e-04  6.4141137928157635e-04  6.6702039191840143e-04  6.9774076393998546e-04  7.2946133744251733e-04  7.5840721130014492e-04  7.8190563679399845e-04  7.9846821337654244e-04  8.0769023030810886e-04  8.1001280972797991e-04  8.0642300491730941e-04  7.9816549774411132e-04  7.8651487746883835e-04  7.7262718644469336e-04  7.5746501179542913e-04  7.4177763344899703e-04  7.2611524162275256e-04  7.1085968914611137e-04  6.9625974911731816e-04  6.8246521527586825e-04  6.6955412867489923e-04  6.5755572977869861e-04  6.4646683443353415e-04  6.3626428091695896e-04  6.2691360849913779e-04  6.1837504443499301e-04  6.1060750939417885e-04  6.0357119530551580e-04  5.9722913158738640e-04  5.9154804520790405e-04  5.8649873636179410e-04  5.8205613052935974e-04  5.7819912246216199e-04  5.7491030177367222e-04  5.7217559332669969e-04  5.6998393971097357e-04  5.6832551965704445e-04  5.6717684484934832e-04  5.6622045041996509e-04  1.2145602562391832e-03  1.3177006173769768e-03  6.8210027255359280e-04  7.2529965580959207e-04  7.4784071654593093e-04  7.7162625513253346e-04  7.9448558942242671e-04  8.1394717133431694e-04  8.2819125101266534e-04  8.3626910943374445e-04  8.3806699129826466e-04  8.3412536750936616e-04  8.2540153693611603e-04  8.1303507023208668e-04  7.9816048960011123e-04  7.8178519002737546e-04  7.6473026889100509e-04  7.4761914351631888e-04  7.3089537031683163e-04  7.1485384510907961e-04  6.9967453248629579e-04  6.8545388424296339e-04  6.7222951690147691e-04  6.6000034691136443e-04  6.4874067055610747e-04  6.3841071925504404e-04  6.2896387096172935e-04  6.2035149762912118e-04  6.1252611957810779e-04  6.0544335205267672e-04  5.9906300392112693e-04  5.9334958985794186e-04  5.8827244480108619e-04  5.8380557723926492e-04  5.7992735959664483e-04  5.7662013272705734e-04  5.7386974272178605e-04  5.7166510625497385e-04  5.6999567640325470e-04  5.6882355069460861e-04  5.6757553053750039e-04  1.2157205892298116e-03  1.4121977139124435e-03  8.5979466510823410e-04  9.4068251486520383e-04  9.2736930424537633e-04  9.1334345883712080e-04  9.0602041239941779e-04  9.0190369251154649e-04  8.9747137870079701e-04  8.9064311431873567e-04  8.8053707283484181e-04  8.6714179286187434e-04  8.5097762983621220e-04  8.3282102518021227e-04  8.1349579731353563e-04  7.9374131848590783e-04  7.7414960741989879e-04  7.5515243824201151e-04  7.3703724915016866e-04  7.1997509589861661e-04  7.0405015558947686e-04  6.8928570747752219e-04  6.7566518577911420e-04  6.6314682953066896e-04  6.5167530125864411e-04  6.4118907682138445e-04  6.3162569162197966e-04  6.2292502781874696e-04  6.1503132644600048e-04  6.0789429838608851e-04  6.0146961018503746e-04  5.9571894312262141e-04  5.9060976834815677e-04  5.8611494213465186e-04  5.8221219668441683e-04  5.7888358774212416e-04  5.7611490557275900e-04  5.7389510237947051e-04  5.7221277033719432e-04  5.7101124622330050e-04  5.6938100009510057e-04  1.2172934326545161e-03  1.8385213281152484e-03  1.4975006337972579e-03  1.8032196837500056e-03  1.4193730502762621e-03  1.2032846201470533e-03  1.0979505218284349e-03  1.0378685757557364e-03  9.9749674469294539e-04  9.6564413225699213e-04  9.3732094227550876e-04  9.1031806294655836e-04  8.8387594947950067e-04  8.5794721263483798e-04  8.3277443160180453e-04  8.0865492321542741e-04  7.8583178666787501e-04  7.6445984167857709e-04  7.4460934218209074e-04  7.2628412498709283e-04  7.0944199282862183e-04  6.9401206315943952e-04  6.7990852786113123e-04  6.6703893839760876e-04  6.5531103073747897e-04  6.4463644935872392e-04  6.3493325182351025e-04  6.2612721913894492e-04  6.1815243178283481e-04  6.1095134831572510e-04  6.0447454136334415e-04  5.9868020495348949e-04  5.9353351698093108e-04  5.8900592010005060e-04  5.8507436877403409e-04  5.8172058549380923e-04  5.7893031852631249e-04  5.7669259545572082e-04  5.7499495897493473e-04  5.7375736370489003e-04  5.7164962700230199e-04  1.2192874717559424e-03  4.6972080788009074e-02  3.6644326672672131e-02  1.2197799286326073e-02  3.4367754166324646e-03  1.8848129354996448e-03  1.4309121421458336e-03  1.2442787924223280e-03  1.1379838691492100e-03  1.0660642905296594e-03  1.0109213569140085e-03  9.6497870435657026e-04  9.2476098382650979e-04  8.8870597848201313e-04  8.5608813962015817e-04  8.2651963120605667e-04  7.9973040220305560e-04  7.7548520803716163e-04  7.5355969346887054e-04  7.3373823027717531e-04  7.1581739909453703e-04  6.9960929310665019e-04  6.8494319849840416e-04  6.7166646714923554e-04  6.5964261686496644e-04  6.4875173642042327e-04  6.3888897844244295e-04  6.2996356625792335e-04  6.2189763834902213e-04  6.1462511283222115e-04  6.0809055099872141e-04  6.0224802515796794e-04  5.9706000267202347e-04  5.9249626108152497e-04  5.8853284983510822e-04  5.8515112065450972e-04  5.8233680145045855e-04  5.8007903592166826e-04  5.7836410841127014e-04  5.7708369379458552e-04  5.7439810741254679e-04  1.2217134962898219e-03  5.1033275581574533e-01  3.7312778587617573e-01  1.6774078766600506e-01  3.8322612523004673e-02  4.8937361199459725e-03  2.1320292251966523e-03  1.5555383783671462e-03  1.3306765470802054e-03  1.1972851393423339e-03  1.1043129854474598e-03  1.0327032420247633e-03  9.7438307536867679e-04  9.2537110021093463e-04  8.8346511009547055e-04  8.4725591685227129e-04  8.1573268918685093e-04  7.8811805600955136e-04  7.6379395628351095e-04  7.4226220839589683e-04  7.2311876168409191e-04  7.0603419390305629e-04  6.9073813938720521e-04  6.7700729192086832e-04  6.6465552733576967e-04  6.5352672382714783e-04  6.4349008842078256e-04  6.3443604572851423e-04  6.2627314997273833e-04  6.1892557261739294e-04  6.1233099249263659e-04  6.0643875182446688e-04  6.0120820633777748e-04  5.9660722969836555e-04  5.9261085182205899e-04  5.8920002979851382e-04  5.8636050656253158e-04  5.8408159535266405e-04  5.8234810929781646e-04  5.8101820730417967e-04  5.7764782076014023e-04  1.2245854087308381e-03  7.5002958326231273e-01  6.7812959385653948e-01  5.0167932625234346e-01  2.7516755107346746e-01  6.6220418610230813e-02  5.8587446392420238e-03  2.2113132207204371e-03  1.5957158887712891e-03  1.3661485762769101e-03  1.2210617128555418e-03  1.1154568612342772e-03  1.0335801199817245e-03  9.6815094799589303e-04  9.1481874432356954e-04  8.7067171806127738e-04  8.3363349098740998e-04  8.0217805704497060e-04  7.7516687498621715e-04  7.5174389561701016e-04  7.3126105984433075e-04  7.1322289881933624e-04  6.9724545172040141e-04  6.8302646895866963e-04  6.7032496132626255e-04  6.5894522859406889e-04  6.4872788138969841e-04  6.3954258790538811e-04  6.3128284057916307e-04  6.2386195335900488e-04  6.1720990220225319e-04  6.1127071670525062e-04  6.0600025375242021e-04  6.0136425473256757e-04  5.9733662733080792e-04  5.9389792566370185e-04  5.9103396256322621e-04  5.8873429636496853e-04  5.8698205491444148e-04  5.8559619263330023e-04  5.8142574365988530e-04  1.2279207864468367e-03  8.1904648943161651e-01  8.2718204540986506e-01  7.4257377932320978e-01  5.5993313644142240e-01  3.0626436720452155e-01  7.3149515622406666e-02  5.9713145320610291e-03  2.1450306008273068e-03  1.5888664900749340e-03  1.3661627374731682e-03  1.2154465019333684e-03  1.1031402672481401e-03  1.0170543689438205e-03  9.4984914348429628e-04  8.9639527235183783e-04  8.5309256646687987e-04  8.1738994631439335e-04  7.8746820999731266e-04  7.6202596855276983e-04  7.4012641811770856e-04  7.2108621731175682e-04  7.0439712714025172e-04  6.8967266644471810e-04  6.7661259420695680e-04  6.6498029373808173e-04  6.5458536162092988e-04  6.4527516594491119e-04  6.3692681538598118e-04  6.2944175053490843e-04  6.2274147105499938e-04  6.1676412955892696e-04  6.1146170118790959e-04  6.0679756778072669e-04  6.0274441750049013e-04  5.9928240703328785e-04  5.9639749728417947e-04  5.9407959686042303e-04  5.9230993269254078e-04  5.9086199431678422e-04  5.8576577738376383e-04  1.2317417331878845e-03  7.3071308684868841e-01  8.0866408853079330e-01  8.1796257325967425e-01  7.2701396736997237e-01  5.4215219658790348e-01  2.8580508032292845e-01  6.3615943183224000e-02  5.0191201991329933e-03  2.0160559583522501e-03  1.5477762735445772e-03  1.3332329946946840e-03  1.1829021051283967e-03  1.0715919963780888e-03  9.8789829349271523e-04  9.2378361988943380e-04  8.7358019515445422e-04  8.3335635450164673e-04  8.0041078841108781e-04  7.7290039312374805e-04  7.4956035629049388e-04  7.2950598937812823e-04  7.1210097449113320e-04  6.9687338204929312e-04  6.8346335943230373e-04  6.7159071089704231e-04  6.6103430892100207e-04  6.5161740112141902e-04  6.4319959506898314e-04  6.3566949572232674e-04  6.2893938290415979e-04  6.2294096810975143e-04  6.1762194440139384e-04  6.1294308566277062e-04  6.0887575050295160e-04  6.0539970749143703e-04  6.0250116667812971e-04  6.0017052948993846e-04  5.9838690854886615e-04  5.9687135070551336e-04  5.9071050190476313e-04  1.2360759787350311e-03  4.5917630374126933e-01  6.2585614980939908e-01  7.4848736304766950e-01  7.5823056080203843e-01  6.7551828644728773e-01  4.9183129417566684e-01  2.4603920979783567e-01  4.6921665699078824e-02  3.9609291493087019e-03  1.8576808491907152e-03  1.4620790340568739e-03  1.2684779469242157e-03  1.1301781728833855e-03  1.0277421248245122e-03  9.5177871277416762e-04  8.9430583963158743e-04  8.4953462431015879e-04  8.1362750200758126e-04  7.8411006000933233e-04  7.5937211467265984e-04  7.3833305627554247e-04  7.2023679723823893e-04  7.0453133792018553e-04  6.9079929929595561e-04  6.7871735958500447e-04  6.6803176343561304e-04  6.5854173288038107e-04  6.5008796086478795e-04  6.4254531096954548e-04  6.3581608501797030e-04  6.2982495747685569e-04  6.2451488059762179e-04  6.1984370457032094e-04  6.1578129419119683e-04  6.1230701527300604e-04  6.0940744193358452e-04  6.0707365747957758e-04  6.0528246009397448e-04  6.0369457863436286e-04  5.9631354051744602e-04  1.2409583310417415e-03  1.7946582496815654e-02  3.1451758715031641e-01  5.4806938032476205e-01  6.7711710057076668e-01  6.9799502466679286e-01  6.1597498678222762e-01  4.3459952599675905e-01  2.0076358508504780e-01  3.0199938221304880e-02  3.0066507947425439e-03  1.6587836374171185e-03  1.3531570657881191e-03  1.1887605284808518e-03  1.0668724004957667e-03  9.7857132177809648e-04  9.1412055856456855e-04  8.6523301679836671e-04  8.2668995288504401e-04  7.9536432358373339e-04  7.6934136783040458e-04  7.4738703887370164e-04  7.2865249347088003e-04  7.1251877095366949e-04  6.9851560912796023e-04  6.8627724613533510e-04  6.7551617197000847e-04  6.6600606653664123e-04  6.5756842609020129e-04  6.5006321297905094e-04  6.4338197911815911e-04  6.3744167526224454e-04  6.3217992258038629e-04  6.2755117423320898e-04  6.2352349541852680e-04  6.2007574701616419e-04  6.1719496854113374e-04  6.1487317104802638e-04  6.1308467689855410e-04  6.1142090430387484e-04  6.0264272250437829e-04  1.2464325558843368e-03  1.8824923798325692e-03  3.0126206050332661e-02  3.1244483480040358e-01  5.2237619816103886e-01  6.3722436492081314e-01  6.4708787598155637e-01  5.5773014121792719e-01  3.7600598848902334e-01  1.5541591645915304e-01  1.5878149943033999e-02  2.2927147021284682e-03  1.4842836894102293e-03  1.2352170767459278e-03  1.0987602240187819e-03  1.0008546367090551e-03  9.3141071687969550e-04  8.7965863264115633e-04  8.3917190327086803e-04  8.0637652388026526e-04  7.7923191664909703e-04  7.5645635736246587e-04  7.3715825317300862e-04  7.2067027226376500e-04  7.0647336816194971e-04  6.9415826678602226e-04  6.8340190742410768e-04  6.7395015194926414e-04  6.6560430654826743e-04  6.5820915166132942e-04  6.5164451801220707e-04  6.4581882688851571e-04  6.4066350670521715e-04  6.3612880649077414e-04  6.3218036632043610e-04  6.2879621659015048e-04  6.2596388346004893e-04  6.2367661748829279e-04  6.2190619721828183e-04  6.2016436319969751e-04  6.0978429769342280e-04  1.2525537816900998e-03  1.5445184062410429e-03  2.1051748782283863e-03  8.1385556692938787e-02  3.2629166581777319e-01  5.1459465604296750e-01  6.0753077945619172e-01  6.0422844502256146e-01  5.0461261371690591e-01  3.2080556335885307e-01  1.1448226752287033e-01  7.8033228647041222e-03  1.8201085665092540e-03  1.2927014270259032e-03  1.1091529845405888e-03  1.0130996140174672e-03  9.4400072982098009e-04  8.9210662356786459e-04  8.5078966778367093e-04  8.1692553489946871e-04  7.8880634732489787e-04  7.6529273488699912e-04  7.4551547332972403e-04  7.2877218768090774e-04  7.1449108531151820e-04  7.0221277229686862e-04  6.9157402303147975e-04  6.8229087477056426e-04  6.7414265766080361e-04  6.6695873769193471e-04  6.6060718653677475e-04  6.5498672516307009e-04  6.5002128029835492e-04  6.4565539597181661e-04  6.4185097748537738e-04  6.3858439541684096e-04  6.3584345605866217e-04  6.3362302615554891e-04  6.3189247592669356e-04  6.3007185614093132e-04  6.1784851681627939e-04  1.2593915132512151e-03  1.4960831633664834e-03  1.2784756588602128e-03  5.2160876079939801e-03  1.1261274534825388e-01  3.5042230366043764e-01  5.1666834365383807e-01  5.9237829550405063e-01  5.6940077699734437e-01  4.5665226615213711e-01  2.7334470481838025e-01  7.4397670618860282e-02  4.5207528386649373e-03  1.4088632536811011e-03  1.0959099224433441e-03  1.0081416077430462e-03  9.4985803157216170e-04  9.0245710595663990e-04  8.6162476942021641e-04  8.2691703098947415e-04  7.9782037887008719e-04  7.7358772192381224e-04  7.5341482062224875e-04  7.3654733925837166e-04  7.2233514511489271e-04  7.1025113764922054e-04  6.9988399956959517e-04  6.9091777753454943e-04  6.8311017194699951e-04  6.7627486311365177e-04  6.7026814902628243e-04  6.6497896384297601e-04  6.6032121931548695e-04  6.5623093984116165e-04  6.5266356550412079e-04  6.4959190215316666e-04  6.4700330198922383e-04  6.4489465600218500e-04  6.4323345270486784e-04  6.4133417335655591e-04  6.2697692526520322e-04  1.2670332756279522e-03  1.4449581429476636e-03  1.0200019308363377e-03  1.6837050256260251e-03  7.4778941956570033e-03  1.5187378576896851e-01  3.8035291729579646e-01  5.2663408499618314e-01  5.8235290103510651e-01  5.3798570237988175e-01  4.0931140497766755e-01  2.1872794413595620e-01  4.1251447050538972e-02  2.2791960311109765e-03  1.0545229088493649e-03  9.8082910326533911e-04  9.5098102510217592e-04  9.1203963651475596e-04  8.7230106899650753e-04  8.3635327854195108e-04  8.0595328211777162e-04  7.8091264827704807e-04  7.6043784784427134e-04  7.4363625608217640e-04  7.2971262473105994e-04  7.1803870300402701e-04  7.0814675952715026e-04  6.9969066095754314e-04  6.9240941687636552e-04  6.8610351254748750e-04  6.8061872383039007e-04  6.7583298737224095e-04  6.7164784329773388e-04  6.6798509011917737e-04  6.6478776330260820e-04  6.6202111239222329e-04  6.5967029486653907e-04  6.5773446869076165e-04  6.5618034220631192e-04  6.5420108568838345e-04  6.3735164524792202e-04  1.2755887232737122e-03  1.3914939849000115e-03  8.8387600320531938e-04  1.1291344794944658e-03  1.7265576116149795e-03  1.1788494209578648e-02  1.9816377763290979e-01  4.1257486778583197e-01  5.3205041128967501e-01  5.6902747409906307e-01  5.0755479932099401e-01  3.6577778906549874e-01  1.7118431321605634e-01  2.0154962011447237e-02  9.4677676215377507e-04  9.3081050625719785e-04  9.5167188416755771e-04  9.2360844227079803e-04  8.8355505571188092e-04  8.4504571819857298e-04  8.1263304439741001e-04  7.8660861667311584e-04  7.6599994787312684e-04  7.4958221161047626e-04  7.3627627791514837e-04  7.2530188940020802e-04  7.1614210337324488e-04  7.0843785469310418e-04  7.0191697352453325e-04  6.9637027097365549e-04  6.9163799456211218e-04  6.8758964485016475e-04  6.8410823204559975e-04  6.8108975704626548e-04  6.7845318405394470e-04  6.7614845476487442e-04  6.7415469241433946e-04  6.7247284964588319e-04  6.7107048210192399e-04  6.6900212471633581e-04  6.4920651208761693e-04  1.2851934447589033e-03  1.3392430222782497e-03  7.7894339302102039e-04  9.1299404954796922e-04  1.0743441868315525e-03  1.8931759169372533e-03  2.4735151233542821e-02  2.5276859383384448e-01  4.4054051283086154e-01  5.3722882378159487e-01  5.5901872127499330e-01  4.8330923193594016e-01  3.2737573638623685e-01  1.2947331498386108e-01  7.6176896473264619e-03  9.5498823621540524e-04  9.5679162771319123e-04  9.3296117510780451e-04  8.9366179356649845e-04  8.5192888026577168e-04  8.1677615467341054e-04  7.8960551097466186e-04  7.6927675992028203e-04  7.5385715827381303e-04  7.4167700561222352e-04  7.3175735946581387e-04  7.2362144166590559e-04  7.1695707401216104e-04  7.1148264328199792e-04  7.0697571238598515e-04  7.0328574919538965e-04  7.0028748327449959e-04  6.9783757017174476e-04  6.9577952827127503e-04  6.9398108236682786e-04  6.9236174317326344e-04  6.9089096233888717e-04  6.8957037704144150e-04  6.8836681581911977e-04  6.8617510464184729e-04  6.6283766126872326e-04  1.2960097823522148e-03  1.2927094765395068e-03  6.9835204030632583e-04  7.8283446278478558e-04  8.7334202574721419e-04  1.0963789251412230e-03  2.4302990272983319e-03  6.3527428079212800e-02  2.8307589570133862e-01  4.679611964