<?xml version="1.0"?>
<VTKFile type="UnstructuredGrid"  version="0.1"  >
<UnstructuredGrid>
<Piece  NumberOfPoints="1681" NumberOfCells="3200">
<Points>
<DataArray  type="Float64"  NumberOfComponents="3"  format="ascii">0 0 0  0.025 0 0  0.05 0 0  0.075 0 0  0.1 0 0  0.125 0 0  0.15 0 0  0.175 0 0  0.2 0 0  0.225 0 0  0.25 0 0  0.275 0 0  0.3 0 0  0.325 0 0  0.35 0 0  0.375 0 0  0.4 0 0  0.425 0 0  0.45 0 0  0.475 0 0  0.5 0 0  0.525 0 0  0.55 0 0  0.575 0 0  0.6 0 0  0.625 0 0  0.65 0 0  0.675 0 0  0.7 0 0  0.725 0 0  0.75 0 0  0.775 0 0  0.8 0 0  0.825 0 0  0.85 0 0  0.875 0 0  0.9 0 0  0.925 0 0  0.95 0 0  0.975 0 0  1 0 0  0 0.025 0  0.025 0.025 0  0.05 0.025 0  0.075 0.025 0  0.1 0.025 0  0.125 0.025 0  0.15 0.025 0  0.175 0.025 0  0.2 0.025 0  0.225 0.025 0  0.25 0.025 0  0.275 0.025 0  0.3 0.025 0  0.325 0.025 0  0.35 0.025 0  0.375 0.025 0  0.4 0.025 0  0.425 0.025 0  0.45 0.025 0  0.475 0.025 0  0.5 0.025 0  0.525 0.025 0  0.55 0.025 0  0.575 0.025 0  0.6 0.025 0  0.625 0.025 0  0.65 0.025 0  0.675 0.025 0  0.7 0.025 0  0.725 0.025 0  0.75 0.025 0  0.775 0.025 0  0.8 0.025 0  0.825 0.025 0  0.85 0.025 0  0.875 0.025 0  0.9 0.025 0  0.925 0.025 0  0.95 0.025 0  0.975 0.025 0  1 0.025 0  0 0.05 0  0.025 0.05 0  0.05 0.05 0  0.075 0.05 0  0.1 0.05 0  0.125 0.05 0  0.15 0.05 0  0.175 0.05 0  0.2 0.05 0  0.225 0.05 0  0.25 0.05 0  0.275 0.05 0  0.3 0.05 0  0.325 0.05 0  0.35 0.05 0  0.375 0.05 0  0.4 0.05 0  0.425 0.05 0  0.45 0.05 0  0.475 0.05 0  0.5 0.05 0  0.525 0.05 0  0.55 0.05 0  0.575 0.05 0  0.6 0.05 0  0.625 0.05 0  0.65 0.05 0  0.675 0.05 0  0.7 0.05 0  0.725 0.05 0  0.75 0.05 0  0.775 0.05 0  0.8 0.05 0  0.825 0.05 0  0.85 0.05 0  0.875 0.05 0  0.9 0.05 0  0.925 0.05 0  0.95 0.05 0  0.975 0.05 0  1 0.05 0  0 0.075 0  0.025 0.075 0  0.05 0.075 0  0.075 0.075 0  0.1 0.075 0  0.125 0.075 0  0.15 0.075 0  0.175 0.075 0  0.2 0.075 0  0.225 0.075 0  0.25 0.075 0  0.275 0.075 0  0.3 0.075 0  0.325 0.075 0  0.35 0.075 0  0.375 0.075 0  0.4 0.075 0  0.425 0.075 0  0.45 0.075 0  0.475 0.075 0  0.5 0.075 0  0.525 0.075 0  0.55 0.075 0  0.575 0.075 0  0.6 0.075 0  0.625 0.075 0  0.65 0.075 0  0.675 0.075 0  0.7 0.075 0  0.725 0.075 0  0.75 0.075 0  0.775 0.075 0  0.8 0.075 0  0.825 0.075 0  0.85 0.075 0  0.875 0.075 0  0.9 0.075 0  0.925 0.075 0  0.95 0.075 0  0.975 0.075 0  1 0.075 0  0 0.1 0  0.025 0.1 0  0.05 0.1 0  0.075 0.1 0  0.1 0.1 0  0.125 0.1 0  0.15 0.1 0  0.175 0.1 0  0.2 0.1 0  0.225 0.1 0  0.25 0.1 0  0.275 0.1 0  0.3 0.1 0  0.325 0.1 0  0.35 0.1 0  0.375 0.1 0  0.4 0.1 0  0.425 0.1 0  0.45 0.1 0  0.475 0.1 0  0.5 0.1 0  0.525 0.1 0  0.55 0.1 0  0.575 0.1 0  0.6 0.1 0  0.625 0.1 0  0.65 0.1 0  0.675 0.1 0  0.7 0.1 0  0.725 0.1 0  0.75 0.1 0  0.775 0.1 0  0.8 0.1 0  0.825 0.1 0  0.85 0.1 0  0.875 0.1 0  0.9 0.1 0  0.925 0.1 0  0.95 0.1 0  0.975 0.1 0  1 0.1 0  0 0.125 0  0.025 0.125 0  0.05 0.125 0  0.075 0.125 0  0.1 0.125 0  0.125 0.125 0  0.15 0.125 0  0.175 0.125 0  0.2 0.125 0  0.225 0.125 0  0.25 0.125 0  0.275 0.125 0  0.3 0.125 0  0.325 0.125 0  0.35 0.125 0  0.375 0.125 0  0.4 0.125 0  0.425 0.125 0  0.45 0.125 0  0.475 0.125 0  0.5 0.125 0  0.525 0.125 0  0.55 0.125 0  0.575 0.125 0  0.6 0.125 0  0.625 0.125 0  0.65 0.125 0  0.675 0.125 0  0.7 0.125 0  0.725 0.125 0  0.75 0.125 0  0.775 0.125 0  0.8 0.125 0  0.825 0.125 0  0.85 0.125 0  0.875 0.125 0  0.9 0.125 0  0.925 0.125 0  0.95 0.125 0  0.975 0.125 0  1 0.125 0  0 0.15 0  0.025 0.15 0  0.05 0.15 0  0.075 0.15 0  0.1 0.15 0  0.125 0.15 0  0.15 0.15 0  0.175 0.15 0  0.2 0.15 0  0.225 0.15 0  0.25 0.15 0  0.275 0.15 0  0.3 0.15 0  0.325 0.15 0  0.35 0.15 0  0.375 0.15 0  0.4 0.15 0  0.425 0.15 0  0.45 0.15 0  0.475 0.15 0  0.5 0.15 0  0.525 0.15 0  0.55 0.15 0  0.575 0.15 0  0.6 0.15 0  0.625 0.15 0  0.65 0.15 0  0.675 0.15 0  0.7 0.15 0  0.725 0.15 0  0.75 0.15 0  0.775 0.15 0  0.8 0.15 0  0.825 0.15 0  0.85 0.15 0  0.875 0.15 0  0.9 0.15 0  0.925 0.15 0  0.95 0.15 0  0.975 0.15 0  1 0.15 0  0 0.175 0  0.025 0.175 0  0.05 0.175 0  0.075 0.175 0  0.1 0.175 0  0.125 0.175 0  0.15 0.175 0  0.175 0.175 0  0.2 0.175 0  0.225 0.175 0  0.25 0.175 0  0.275 0.175 0  0.3 0.175 0  0.325 0.175 0  0.35 0.175 0  0.375 0.175 0  0.4 0.175 0  0.425 0.175 0  0.45 0.175 0  0.475 0.175 0  0.5 0.175 0  0.525 0.175 0  0.55 0.175 0  0.575 0.175 0  0.6 0.175 0  0.625 0.175 0  0.65 0.175 0  0.675 0.175 0  0.7 0.175 0  0.725 0.175 0  0.75 0.175 0  0.775 0.175 0  0.8 0.175 0  0.825 0.175 0  0.85 0.175 0  0.875 0.175 0  0.9 0.175 0  0.925 0.175 0  0.95 0.175 0  0.975 0.175 0  1 0.175 0  0 0.2 0  0.025 0.2 0  0.05 0.2 0  0.075 0.2 0  0.1 0.2 0  0.125 0.2 0  0.15 0.2 0  0.175 0.2 0  0.2 0.2 0  0.225 0.2 0  0.25 0.2 0  0.275 0.2 0  0.3 0.2 0  0.325 0.2 0  0.35 0.2 0  0.375 0.2 0  0.4 0.2 0  0.425 0.2 0  0.45 0.2 0  0.475 0.2 0  0.5 0.2 0  0.525 0.2 0  0.55 0.2 0  0.575 0.2 0  0.6 0.2 0  0.625 0.2 0  0.65 0.2 0  0.675 0.2 0  0.7 0.2 0  0.725 0.2 0  0.75 0.2 0  0.775 0.2 0  0.8 0.2 0  0.825 0.2 0  0.85 0.2 0  0.875 0.2 0  0.9 0.2 0  0.925 0.2 0  0.95 0.2 0  0.975 0.2 0  1 0.2 0  0 0.225 0  0.025 0.225 0  0.05 0.225 0  0.075 0.225 0  0.1 0.225 0  0.125 0.225 0  0.15 0.225 0  0.175 0.225 0  0.2 0.225 0  0.225 0.225 0  0.25 0.225 0  0.275 0.225 0  0.3 0.225 0  0.325 0.225 0  0.35 0.225 0  0.375 0.225 0  0.4 0.225 0  0.425 0.225 0  0.45 0.225 0  0.475 0.225 0  0.5 0.225 0  0.525 0.225 0  0.55 0.225 0  0.575 0.225 0  0.6 0.225 0  0.625 0.225 0  0.65 0.225 0  0.675 0.225 0  0.7 0.225 0  0.725 0.225 0  0.75 0.225 0  0.775 0.225 0  0.8 0.225 0  0.825 0.225 0  0.85 0.225 0  0.875 0.225 0  0.9 0.225 0  0.925 0.225 0  0.95 0.225 0  0.975 0.225 0  1 0.225 0  0 0.25 0  0.025 0.25 0  0.05 0.25 0  0.075 0.25 0  0.1 0.25 0  0.125 0.25 0  0.15 0.25 0  0.175 0.25 0  0.2 0.25 0  0.225 0.25 0  0.25 0.25 0  0.275 0.25 0  0.3 0.25 0  0.325 0.25 0  0.35 0.25 0  0.375 0.25 0  0.4 0.25 0  0.425 0.25 0  0.45 0.25 0  0.475 0.25 0  0.5 0.25 0  0.525 0.25 0  0.55 0.25 0  0.575 0.25 0  0.6 0.25 0  0.625 0.25 0  0.65 0.25 0  0.675 0.25 0  0.7 0.25 0  0.725 0.25 0  0.75 0.25 0  0.775 0.25 0  0.8 0.25 0  0.825 0.25 0  0.85 0.25 0  0.875 0.25 0  0.9 0.25 0  0.925 0.25 0  0.95 0.25 0  0.975 0.25 0  1 0.25 0  0 0.275 0  0.025 0.275 0  0.05 0.275 0  0.075 0.275 0  0.1 0.275 0  0.125 0.275 0  0.15 0.275 0  0.175 0.275 0  0.2 0.275 0  0.225 0.275 0  0.25 0.275 0  0.275 0.275 0  0.3 0.275 0  0.325 0.275 0  0.35 0.275 0  0.375 0.275 0  0.4 0.275 0  0.425 0.275 0  0.45 0.275 0  0.475 0.275 0  0.5 0.275 0  0.525 0.275 0  0.55 0.275 0  0.575 0.275 0  0.6 0.275 0  0.625 0.275 0  0.65 0.275 0  0.675 0.275 0  0.7 0.275 0  0.725 0.275 0  0.75 0.275 0  0.775 0.275 0  0.8 0.275 0  0.825 0.275 0  0.85 0.275 0  0.875 0.275 0  0.9 0.275 0  0.925 0.275 0  0.95 0.275 0  0.975 0.275 0  1 0.275 0  0 0.3 0  0.025 0.3 0  0.05 0.3 0  0.075 0.3 0  0.1 0.3 0  0.125 0.3 0  0.15 0.3 0  0.175 0.3 0  0.2 0.3 0  0.225 0.3 0  0.25 0.3 0  0.275 0.3 0  0.3 0.3 0  0.325 0.3 0  0.35 0.3 0  0.375 0.3 0  0.4 0.3 0  0.425 0.3 0  0.45 0.3 0  0.475 0.3 0  0.5 0.3 0  0.525 0.3 0  0.55 0.3 0  0.575 0.3 0  0.6 0.3 0  0.625 0.3 0  0.65 0.3 0  0.675 0.3 0  0.7 0.3 0  0.725 0.3 0  0.75 0.3 0  0.775 0.3 0  0.8 0.3 0  0.825 0.3 0  0.85 0.3 0  0.875 0.3 0  0.9 0.3 0  0.925 0.3 0  0.95 0.3 0  0.975 0.3 0  1 0.3 0  0 0.325 0  0.025 0.325 0  0.05 0.325 0  0.075 0.325 0  0.1 0.325 0  0.125 0.325 0  0.15 0.325 0  0.175 0.325 0  0.2 0.325 0  0.225 0.325 0  0.25 0.325 0  0.275 0.325 0  0.3 0.325 0  0.325 0.325 0  0.35 0.325 0  0.375 0.325 0  0.4 0.325 0  0.425 0.325 0  0.45 0.325 0  0.475 0.325 0  0.5 0.325 0  0.525 0.325 0  0.55 0.325 0  0.575 0.325 0  0.6 0.325 0  0.625 0.325 0  0.65 0.325 0  0.675 0.325 0  0.7 0.325 0  0.725 0.325 0  0.75 0.325 0  0.775 0.325 0  0.8 0.325 0  0.825 0.325 0  0.85 0.325 0  0.875 0.325 0  0.9 0.325 0  0.925 0.325 0  0.95 0.325 0  0.975 0.325 0  1 0.325 0  0 0.35 0  0.025 0.35 0  0.05 0.35 0  0.075 0.35 0  0.1 0.35 0  0.125 0.35 0  0.15 0.35 0  0.175 0.35 0  0.2 0.35 0  0.225 0.35 0  0.25 0.35 0  0.275 0.35 0  0.3 0.35 0  0.325 0.35 0  0.35 0.35 0  0.375 0.35 0  0.4 0.35 0  0.425 0.35 0  0.45 0.35 0  0.475 0.35 0  0.5 0.35 0  0.525 0.35 0  0.55 0.35 0  0.575 0.35 0  0.6 0.35 0  0.625 0.35 0  0.65 0.35 0  0.675 0.35 0  0.7 0.35 0  0.725 0.35 0  0.75 0.35 0  0.775 0.35 0  0.8 0.35 0  0.825 0.35 0  0.85 0.35 0  0.875 0.35 0  0.9 0.35 0  0.925 0.35 0  0.95 0.35 0  0.975 0.35 0  1 0.35 0  0 0.375 0  0.025 0.375 0  0.05 0.375 0  0.075 0.375 0  0.1 0.375 0  0.125 0.375 0  0.15 0.375 0  0.175 0.375 0  0.2 0.375 0  0.225 0.375 0  0.25 0.375 0  0.275 0.375 0  0.3 0.375 0  0.325 0.375 0  0.35 0.375 0  0.375 0.375 0  0.4 0.375 0  0.425 0.375 0  0.45 0.375 0  0.475 0.375 0  0.5 0.375 0  0.525 0.375 0  0.55 0.375 0  0.575 0.375 0  0.6 0.375 0  0.625 0.375 0  0.65 0.375 0  0.675 0.375 0  0.7 0.375 0  0.725 0.375 0  0.75 0.375 0  0.775 0.375 0  0.8 0.375 0  0.825 0.375 0  0.85 0.375 0  0.875 0.375 0  0.9 0.375 0  0.925 0.375 0  0.95 0.375 0  0.975 0.375 0  1 0.375 0  0 0.4 0  0.025 0.4 0  0.05 0.4 0  0.075 0.4 0  0.1 0.4 0  0.125 0.4 0  0.15 0.4 0  0.175 0.4 0  0.2 0.4 0  0.225 0.4 0  0.25 0.4 0  0.275 0.4 0  0.3 0.4 0  0.325 0.4 0  0.35 0.4 0  0.375 0.4 0  0.4 0.4 0  0.425 0.4 0  0.45 0.4 0  0.475 0.4 0  0.5 0.4 0  0.525 0.4 0  0.55 0.4 0  0.575 0.4 0  0.6 0.4 0  0.625 0.4 0  0.65 0.4 0  0.675 0.4 0  0.7 0.4 0  0.725 0.4 0  0.75 0.4 0  0.775 0.4 0  0.8 0.4 0  0.825 0.4 0  0.85 0.4 0  0.875 0.4 0  0.9 0.4 0  0.925 0.4 0  0.95 0.4 0  0.975 0.4 0  1 0.4 0  0 0.425 0  0.025 0.425 0  0.05 0.425 0  0.075 0.425 0  0.1 0.425 0  0.125 0.425 0  0.15 0.425 0  0.175 0.425 0  0.2 0.425 0  0.225 0.425 0  0.25 0.425 0  0.275 0.425 0  0.3 0.425 0  0.325 0.425 0  0.35 0.425 0  0.375 0.425 0  0.4 0.425 0  0.425 0.425 0  0.45 0.425 0  0.475 0.425 0  0.5 0.425 0  0.525 0.425 0  0.55 0.425 0  0.575 0.425 0  0.6 0.425 0  0.625 0.425 0  0.65 0.425 0  0.675 0.425 0  0.7 0.425 0  0.725 0.425 0  0.75 0.425 0  0.775 0.425 0  0.8 0.425 0  0.825 0.425 0  0.85 0.425 0  0.875 0.425 0  0.9 0.425 0  0.925 0.425 0  0.95 0.425 0  0.975 0.425 0  1 0.425 0  0 0.45 0  0.02
[...]
<PointData  Scalars="ControlVisualisation"> 
<DataArray  type="Float64"  Name="ControlVisualisation"  format="ascii">2.8029179794530845e-01  2.7638366476037030e-01  2.7643068684293426e-01  2.7654513654415691e-01  2.7670319063976967e-01  2.7687030863519291e-01  2.7702024067851050e-01  2.7713916715799136e-01  2.7722362357303987e-01  2.7727647138131950e-01  2.7730338816917899e-01  2.7731059740251757e-01  2.7730371322523290e-01  2.7728731374988308e-01  2.7726490433379941e-01  2.7723905106519808e-01  2.7721156399745794e-01  2.7718367335019306e-01  2.7715617695430605e-01  2.7712955428917335e-01  2.7710404959054952e-01  2.7707972864959091e-01  2.7705651380632912e-01  2.7703420066524292e-01  2.7701245892902276e-01  2.7699081887319416e-01  2.7696864476329031e-01  2.7694509761582309e-01  2.7691909319514446e-01  2.7688926916580708e-01  2.7685399087184875e-01  2.7681144912771938e-01  2.7675994594775510e-01  2.7669847963351080e-01  2.7662773888372838e-01  2.7655147854157308e-01  2.7647766086650705e-01  2.7641834365943446e-01  2.7638580654154377e-01  2.7637984400583943e-01  2.8420451568828858e-01  2.7638317974763676e-01  2.6480576431192987e-01  2.6536589108131953e-01  2.6644890614635819e-01  2.6790951550540620e-01  2.6946372883349501e-01  2.7087307009064493e-01  2.7200604011458407e-01  2.7282457672345722e-01  2.7334977801072285e-01  2.7363051740678440e-01  2.7372250834773881e-01  2.7367720093830911e-01  2.7353732108686157e-01  2.7333611000228736e-01  2.7309827406550913e-01  2.7284151246305377e-01  2.7257806311525823e-01  2.7231603511608110e-01  2.7206046243732290e-01  2.7181408773359483e-01  2.7157791099749529e-01  2.7135154086379054e-01  2.7113337996197212e-01  2.7092066676080212e-01  2.7070938876124534e-01  2.7049407903603656e-01  2.7026751494742340e-01  2.7002036257560641e-01  2.6974086907823963e-01  2.6941481675493528e-01  2.6902614826884541e-01  2.6855897568365866e-01  2.6800190736965163e-01  2.6735589055353404e-01  2.6664537153689249e-01  2.6592950834561130e-01  2.6530454215052435e-01  2.6487331388860758e-01  2.6467265230778564e-01  2.7637979276468055e-01  2.7643109290615192e-01  2.6542653670507854e-01  2.6700340755122137e-01  2.6925346020987045e-01  2.7203641698278991e-01  2.7491442473184319e-01  2.7748139205531608e-01  2.7951668234777366e-01  2.8096557992449184e-01  2.8187563352207884e-01  2.8234020721733527e-01  2.8246234268855680e-01  2.8233608980323111e-01  2.8203922404567433e-01  2.8163220970964231e-01  2.8116002604458828e-01  2.8065494717056200e-01  2.8013933075739178e-01  2.7962802178264384e-01  2.7913026004373881e-01  2.7865110724164577e-01  2.7819245480196247e-01  2.7775367951825330e-01  2.7733200333286556e-01  2.7692259789050072e-01  2.7651846050377371e-01  2.7611008120469666e-01  2.7568492813473289e-01  2.7522681324108444e-01  2.7471528662082412e-01  2.7412537602762688e-01  2.7342830895420528e-01  2.7259431443687465e-01  2.7159920161748985e-01  2.7043705211595398e-01  2.6913899571503325e-01  2.6779573798747519e-01  2.6655945942605275e-01  2.6557477707474153e-01  2.6488379958663633e-01  2.7638531032140445e-01  2.7657602706926415e-01  2.6694695512776978e-01  2.7012243567977545e-01  2.7318135015995204e-01  2.7634584896800424e-01  2.7938083695477156e-01  2.8195339551794935e-01  2.8389563036415488e-01  2.8519559221383800e-01  2.8593072752568416e-01  2.8621256067954159e-01  2.8615417497315665e-01  2.8585477917328656e-01  2.8539459572547721e-01  2.8483508268352098e-01  2.8422144088583956e-01  2.8358575442189154e-01  2.8294997327602478e-01  2.8232842680950659e-01  2.8172979826592892e-01  2.8115859668399112e-01  2.8061619782928826e-01  2.8010152690318302e-01  2.7961144265028681e-01  2.7914086525936366e-01  2.7868267467351066e-01  2.7822739587832312e-01  2.7776268931634163e-01  2.7727268791318299e-01  2.7673728818596371e-01  2.7613163787329492e-01  2.7542634501230134e-01  2.7458932215592785e-01  2.7359103531711304e-01  2.7241524416666213e-01  2.7107664392080993e-01  2.6964384398304725e-01  2.6822439279410448e-01  2.6685723290710089e-01  2.6542726871135797e-01  2.7642051227194658e-01  2.7687473918422534e-01  2.6997260617300006e-01  2.7613019718397325e-01  2.7991161251188951e-01  2.8266798737495114e-01  2.8489593240177741e-01  2.8658220576054561e-01  2.8769935468893798e-01  2.8829332829592497e-01  2.8845420628198598e-01  2.8828325724084980e-01  2.8787434901648984e-01  2.8730613302267899e-01  2.8664042646956533e-01  2.8592358443995364e-01  2.8518901780746586e-01  2.8445988987148457e-01  2.8375154619969328e-01  2.8307351823069155e-01  2.8243108382986143e-01  2.8182642927721091e-01  2.8125947535145990e-01  2.8072842749453703e-01  2.8023009861955256e-01  2.7976003926020926e-01  2.7931249678947168e-01  2.7888021578295497e-01  2.7845408838280483e-01  2.7802267246623763e-01  2.7757162869337293e-01  2.7708319992490466e-01  2.7653602744128836e-01  2.7590581596823005e-01  2.7516806944422162e-01  2.7430359348895961e-01  2.7330916556073959e-01  2.7220083301689402e-01  2.7095456355429243e-01  2.6928075087009989e-01  2.6655514874639252e-01  2.7650634212828967e-01  2.7739057045021881e-01  2.7656799077091110e-01  2.8805540647806638e-01  2.9191930090206264e-01  2.9271042114602286e-01  2.9277116534580905e-01  2.9257481221409998e-01  2.9217817413813368e-01  2.9160200297147676e-01  2.9088046891382247e-01  2.9005516593432207e-01  2.8916661413370487e-01  2.8824965030648420e-01  2.8733185550959250e-01  2.8643367344337151e-01  2.8556932318958911e-01  2.8474797327720813e-01  2.8397489606273379e-01  2.8325247456787966e-01  2.8258102034251620e-01  2.8195940493456906e-01  2.8138552650987247e-01  2.8085663846281622e-01  2.8036956544605912e-01  2.7992082820490055e-01  2.7950669438128706e-01  2.7912316989012120e-01  2.7876594659659498e-01  2.7843033058973715e-01  2.7811119735289636e-01  2.7780306591434306e-01  2.7750048969846530e-01  2.7719906666009730e-01  2.7689781106631906e-01  2.7660249398831521e-01  2.7632972201074918e-01  2.7607418143873597e-01  2.7563508679961829e-01  2.7388925118592211e-01  2.6872244154115532e-01  2.7664953063609093e-01  2.8105542713208109e-01  2.9495952662341335e-01  3.1318981010506891e-01  3.1279086061064587e-01  3.0796246718188580e-01  3.0359684973209350e-01  3.0020662407333559e-01  2.9754276748703840e-01  2.9536007959460930e-01  2.9350004469635371e-01  2.9186811846727867e-01  2.9040855534108206e-01  2.8908798646708977e-01  2.8788562241810856e-01  2.8678760906875345e-01  2.8578386907775127e-01  2.8486639099217198e-01  2.8402834287917583e-01  2.8326364325885939e-01  2.8256677843780514e-01  2.8193274904886800e-01  2.8135708408327187e-01  2.8083589343602372e-01  2.8036594979550594e-01  2.7994480394814658e-01  2.7957094870656757e-01  2.7924405954241971e-01  2.7896535909322284e-01  2.7873818519265631e-01  2.7856889913033417e-01  2.7846838015722597e-01  2.7845455426569127e-01  2.7855675428329513e-01  2.7882355702507711e-01  2.7933553103022851e-01  2.8022410425847005e-01  2.8164901702967171e-01  2.8352149509058583e-01  2.8369797030374500e-01  2.7515597642403938e-01  2.7712783941635016e-01  3.1617453805865314e-01  3.5207617042990830e-01  3.6142596865015136e-01  3.4508439968809118e-01  3.2874679397437256e-01  3.1708599069986232e-01  3.0910467546327020e-01  3.0348874744095283e-01  2.9936065377976789e-01  2.9619350951822448e-01  2.9367106251970682e-01  2.9159917860872187e-01  2.8985533035595384e-01  2.8835982467348026e-01  2.8705915230791529e-01  2.8591617250407292e-01  2.8490423327968595e-01  2.8400360219042081e-01  2.8319927745300572e-01  2.8247963919315333e-01  2.8183562449070965e-01  2.8126024179166814e-01  2.8074832042239123e-01  2.8029644236538331e-01  2.7990304012109024e-01  2.7956867606226138e-01  2.7929655373993917e-01  2.7909336067025514e-01  2.7897062212184970e-01  2.7894688759789760e-01  2.7905134434967793e-01  2.7932997240654278e-01  2.7985647946053166e-01  2.8075255395098486e-01  2.8222595706999909e-01  2.8464342927638814e-01  2.8862153773964411e-01  2.9489415747227504e-01  3.0204329022839788e-01  2.9841067810586575e-01  2.8303512469592174e-01  4.0680482844254717e-01  4.6597978282150221e-01  4.2846599534124152e-01  3.8480036203669343e-01  3.5256369712471985e-01  3.3164719162488820e-01  3.1824841982872248e-01  3.0935808007513654e-01  3.0317848884786730e-01  2.9868630756834857e-01  2.9528787536705514e-01  2.9262734641959703e-01  2.9048386093791551e-01  2.8871572451866317e-01  2.8722916482203176e-01  2.8596028621885911e-01  2.8486435251084663e-01  2.8390926857106824e-01  2.8307153993928230e-01  2.8233373718550764e-01  2.8168290308025407e-01  2.8110957502244577e-01  2.8060723447625813e-01  2.8017208325457849e-01  2.7980310869827962e-01  2.7950245300331372e-01  2.7927616087212687e-01  2.7913546272061446e-01  2.7909888821572104e-01  2.7919575615598119e-01  2.7947207432264709e-01  2.8000086883700037e-01  2.8090113335271416e-01  2.8237406667301834e-01  2.8477600314644747e-01  2.8876788008592386e-01  2.9558290512148538e-01  3.0727980200394417e-01  3.2510810538862867e-01  3.4276890243253810e-01  3.0998262663503701e-01  4.7390853771343167e-01  5.5954870858193351e-01  4.8379449282553944e-01  4.2027703720179554e-01  3.7402703997020215e-01  3.4452964059541408e-01  3.2613445656841794e-01  3.1428478310336583e-01  3.0629439053555413e-01  3.0065667727950413e-01  2.9651381842490038e-01  2.9336017752165178e-01  2.9088619293712148e-01  2.8889549432264400e-01  2.8725941981151482e-01  2.8589117545043580e-01  2.8473066540265757e-01  2.8373532808255847e-01  2.8287446943194061e-01  2.8212570021636990e-01  2.8147268346403331e-01  2.8090373251351514e-01  2.8041099514426410e-01  2.7999008048132568e-01  2.7964006952241149e-01  2.7936392094656282e-01  2.7916936153967786e-01  2.7907046018050791e-01  2.7909026772739093e-01  2.7926524450503915e-01  2.7965286425349350e-01  2.8034517158877653e-01  2.8149407855267528e-01  2.8336076405827731e-01  2.8641761647874830e-01  2.9155970198764741e-01  3.0052746048716295e-01  3.1650920402319127e-01  3.4333616401802813e-01  3.8110032467497884e-01  3.4252853989493065e-01  4.9274022291335556e-01  5.9208007048288136e-01  5.0881787165513981e-01  4.4073351903100305e-01  3.8747265990168239e-01  3.5284986622862374e-01  3.3124291313515541e-01  3.1743450671159351e-01  3.0822943732734387e-01  3.0181768485902383e-01  2.9717039075454549e-01  2.9368305763377650e-01  2.9098686500104692e-01  2.8884852075845796e-01  2.8711554779569498e-01  2.8568534512865368e-01  2.8448708373295523e-01  2.8347078677215520e-01  2.8260057381134113e-01  2.8185040169487385e-01  2.8120135594962636e-01  2.8063994573836148e-01  2.8015708624263386e-01  2.7974759434573604e-01  2.7941012053807446e-01  2.7914751983186475e-01  2.7896775008634545e-01  2.7888550525354139e-01  2.7892498954815514e-01  2.7912460605071820e-01  2.7954506023887610e-01  2.8028389825204364e-01  2.8150278106997956e-01  2.8348129033214520e-01  2.8672830736785321e-01  2.9221535283025513e-01  3.0186250642220813e-01  3.1924831176972335e-01  3.4924453773147107e-01  3.9402565462720590e-01  3.5746725334079010e-01  4.6553646677997984e-01  5.7293159835980290e-01  5.0147496974768546e-01  4.4111298050770925e-01  3.8963898295568333e-01  3.5478801794586751e-01  3.3259255159446610e-01  3.1827093721528116e-01  3.0867851574306587e-01  3.0198817122044386e-01  2.9714552582622178e-01  2.9352413701431318e-01  2.9073847830969274e-01  2.8854288450332749e-01  2.8677578916495311e-01  2.8532791136985586e-01  2.8412349466909770e-01  2.8310890811795952e-01  2.8224554145502451e-01  2.8150528947450004e-01  2.8086765161226585e-01  2.8031787945609626e-01  2.7984584070909835e-01  2.7944541287379021e-01  2.7911431768926620e-01  2.7885438562559728e-01  2.7867232044209067e-01  2.7858114230754932e-01  2.7860266492195496e-01  2.7877168575297817e-01  2.7914320480844335e-01  2.7980530607135390e-01  2.8090319562308352e-01  2.8268645405012482e-01  2.8560622952153819e-01  2.9052200238498310e-01  2.9912997682421205e-01  3.1454615859385310e-01  3.4085109429444649e-01  3.7660358859931187e-01  3.4879588623525837e-01  3.8541578579189523e-01  5.0081552062748802e-01  4.6536879767589384e-01  4.2242180089096099e-01  3.8055941518534286e-01  3.5022268640133847e-01  3.3008488280871201e-01  3.1672463551126295e-01  3.0759408528975735e-01  3.0113555062042430e-01  2.9641644685992075e-01  2.9286725038279404e-01  2.9012948600576732e-01  2.8797039484399206e-01  2.8623448207310709e-01  2.8481517639344206e-01  2.8363776676195712e-01  2.8264884399722595e-01  2.8180961093924212e-01  2.8109156381920092e-01  2.8047367268219042e-01  2.7994054349530395e-01  2.7948125337490315e-01  2.7908867950663935e-01  2.7875922896175037e-01  2.7849294377890454e-01  2.7829402105813666e-01  2.7817187050915965e-01  2.7814296085034440e-01  2.7823393556268239e-01  2.7848691915008544e-01  2.7896883143196710e-01  2.7978845083940379e-01  2.8112925476684991e-01  2.8331561011403361e-01  2.8695105134812426e-01  2.9318264188236920e-01  3.0398590766573119e-01  3.2098843546009115e-01  3.3581321045442325e-01  3.2017136401124979e-01  3.0167973518236513e-01  3.9026454164348645e-01  4.1185439362003223e-01  3.9156987546920030e-01  3.6353789319996532e-01  3.4073206428451841e-01  3.2449765170559730e-01  3.1319095803011143e-01  3.0518605125648995e-01  2.9937580637455197e-01  2.9504970509044715e-01  2.9175198617548431e-01  2.8918430623959646e-01  2.8714674710291321e-01  2.8550224946676983e-01  2.8415482517101071e-01  2.8303593609983579e-01  2.8209579203578000e-01  2.8129768292142360e-01  2.8061422742869563e-01  2.8002486247739289e-01  2.7951415968991872e-01  2.7907071345973244e-01  2.7868644545244753e-01  2.7835623754412381e-01  2.7807785549416847e-01  2.7785217090574377e-01  2.7768374093772374e-01  2.7758187993186950e-01  2.7756248271921136e-01  2.7765109125290477e-01  2.7788815157824698e-01  2.7833834375353395e-01  2.7910781977585675e-01  2.8037718401531464e-01  2.8246358648713454e-01  2.8590718209417809e-01  2.9137506647557049e-01  2.9779187236737453e-01  2.9510143176836162e-01  2.8903025503185154e-01  2.8085592140061877e-01  3.1874035865195544e-01  3.6056353191493196e-01  3.5875595838512248e-01  3.4378998404547439e-01  3.2891055427236549e-01  3.1714533790340099e-01  3.0836704546775601e-01  3.0184139816181788e-01  2.9693269891375151e-01  2.9317969376837111e-01  2.9026189770452854e-01  2.8795661142203449e-01  2.8610756890786720e-01  2.8460358960666626e-01  2.8336439982688166e-01  2.8233118922669959e-01  2.8146026368498861e-01  2.8071873269374276e-01  2.8008154639656635e-01  2.7952944076466324e-01  2.7904750460057404e-01  2.7862418216530938e-01  2.7825059097875038e-01  2.7792007903070504e-01  2.7762797804741307e-01  2.7737153599626463e-01  2.7715003847029657e-01  2.7696516202937033e-01  2.7682165404401948e-01  2.7672852343543120e-01  2.7670109376030039e-01  2.7676458567131662e-01  2.7696046459772644e-01  2.7735748589581860e-01  2.7806719477178066e-01  2.7923819837064418e-01  2.8084051489581874e-01  2.8137199532598806e-01  2.7551329839519961e-01  2.7805950323476802e-01  2.7895806260581718e-01  2.9542272143886800e-01  3.2722035386715209e-01  3.3244230088858767e-01  3.2594442809556157e-01  3.1721391786747771e-01  3.0936236543577816e-01  3.0300714576165877e-01  2.9800230939879191e-01  2.9407461755666098e-01  2.9097451440954891e-01  2.8850533864028965e-01  2.8651817850949191e-01  2.8490170739395282e-01  2.8357269485016512e-01  2.8246859661984464e-01  2.8154203410651590e-01  2.8075676842432701e-01  2.8008478144547150e-01  2.7950415678490853e-01  2.7899753310070430e-01  2.7855096556623488e-01  2.7815307862595351e-01  2.7779442708035418e-01  2.7746700671157376e-01  2.7716387316641777e-01  2.7687884138423741e-01  2.7660625028303520e-01  2.7634079227928238e-01  2.7607743029760901e-01  2.7581146659434969e-01  2.7553890536484088e-01  2.7525739376212754e-01  2.7496824688995614e-01  2.7468011716667057e-01  2.7441285583158653e-01  2.7418498794187196e-01  2.7388931321518101e-01  2.7275669758986870e-01  2.6899664409688845e-01  2.7679755180805637e-01  2.7835724789209138e-01  2.8657432244587677e-01  3.0891293699237105e-01  3.1451693363564937e-01  3.1197275237042355e-01  3.0707401178449684e-01  3.0209106932902002e-01  2.9771440415751410e-01  2.9405640369650926e-01  2.9105410353901795e-01  2.8860145114507896e-01  2.8659515579511258e-01  2.8494659272427647e-01  2.8358357340791307e-01  2.8244854785717038e-01  2.8149602454282990e-01  2.8069007361678866e-01  2.8000220422164757e-01  2.7940964877955410e-01  2.7889400621899613e-01  2.7844017376985303e-01  2.7803549876264599e-01  2.7766909099009845e-01  2.7733124622654554e-01  2.7701294040150359e-01  2.7670536161515213e-01  2.7639945486721368e-01  2.7608546457262872e-01  2.7575247727694674e-01  2.7538800001217806e-01  2.7497767306391219e-01  2.7450533487707496e-01  2.7395387263482018e-01  2.7330763712197431e-01  2.7255760664025658e-01  2.7171005387123576e-01  2.7079288043096422e-01  2.6982159978093612e-01  2.6861443002743424e-01  2.6659919909126528e-01  2.7658530024405881e-01  2.7787999804979074e-01  2.8096602527798220e-01  2.9749800340283927e-01  3.0240779813548718e-01  3.0157835666475397e-01  2.9885853935432688e-01  2.9577106784288859e-01  2.9285374447877871e-01  2.9027734523928128e-01  2.8806899141292019e-01  2.8620198054696355e-01  2.8463259426129794e-01  2.8331479098109280e-01  2.8220626003711008e-01  2.8127031588961438e-01  2.8047605628479383e-01  2.7979779053517717e-01  2.7921423644482607e-01  2.7870769760015718e-01  2.7826330496529234e-01  2.7786834328415477e-01  2.7751165453718057e-01  2.7718309863805562e-01  2.7687304736183893e-01  2.7657188735298621e-01  2.7626951105757641e-01  2.7595478193973388e-01  2.7561497628335158e-01  2.7523523598907973e-01  2.7479812829158384e-01  2.7428352000051442e-01  2.7366916785772527e-01  2.7293273449438249e-01  2.7205636766709690e-01  2.7103541813588372e-01  2.6989251413108162e-01  2.6869416262647544e-01  2.6754989040809773e-01  2.6652618511620146e-01  2.6549485883861945e-01  2.7646839986583233e-01  2.7755110456804427e-01  2.7726913981968443e-01  2.8998297801432610e-01  2.9400910708256267e-01  2.9388529326885632e-01  2.9237357881008974e-01  2.9048025051537407e-01  2.8857989832473691e-01  2.8681957716984147e-01  2.8525020960720082e-01  2.8388018279207733e-01  2.8269806869395275e-01  2.8168419026959229e-01  2.8081656336401045e-01  2.8007377424678481e-01  2.7943625255808469e-01  2.7888666937464829e-01  2.7840989502658625e-01  2.7799274413243352e-01  2.7762362754517217e-01  2.7729216725296668e-01  2.7698879551795164e-01  2.7670434022524371e-01  2.7642958834243492e-01  2.7615481546685133e-01  2.7586927139647377e-01  2.7556062190823311e-01  2.7521437122263875e-01  2.7481333868309438e-01  2.7433735310879021e-01  2.7376348316700383e-01  2.7306736537039505e-01  2.7222651875606108e-01  2.7122688431114717e-01  2.7007387092600676e-01  2.6880809905926728e-01  2.6752221263351700e-01  2.6636422041799768e-01  2.6549180832616553e-01  2.6494349073765922e-01  2.7640986204542617e-01  2.7730884957743313e-01  2.7459673855352618e-01  2.8459194378258135e-01  2.8789873219935636e-01  2.8809952060472882e-01  2.8727059212852996e-01  2.8612264239089102e-01  2.8491216566759586e-01  2.8374523510741229e-01  2.8266911847005888e-01  2.8170256846618474e-01  2.8084857001996932e-01  2.8010167609974668e-01  2.7945226754620361e-01  2.7888907910989685e-01  2.7840061158374113e-01  2.7797584519956220e-01  2.7760453305764138e-01  2.7727724360118405e-01  2.7698525448649214e-01  2.7672035424078023e-01  2.7647457951395044e-01  2.7623989773518842e-01  2.7600783450865463e-01  2.7576904069611075e-01  2.7551279668535650e-01  2.7522646430868619e-01  2.7489492747482402e-01  2.7450012310357230e-01  2.7402087187731478e-01  2.7343339800182526e-01  2.7271318317999360e-01  2.7183911141349343e-01  2.7080106728363434e-01  2.6961176045937252e-01  2.6832195987476426e-01  2.6703437573824002e-01  2.6590468526352001e-01  2.6510849188434693e-01  2.6473609743356891e-01  2.7638581990878563e-01  2.7712511595983891e-01  2.7260283715215217e-01  2.8059575430828748e-01  2.8332421425925369e-01  2.8365957205376074e-01  2.8322579543457327e-01  2.8254830663787556e-01  2.8180192980206997e-01  2.810583644