<?xml version="1.0"?>
<VTKFile type="UnstructuredGrid"  version="0.1"  >
<UnstructuredGrid>
<Piece  NumberOfPoints="1681" NumberOfCells="3200">
<Points>
<DataArray  type="Float64"  NumberOfComponents="3"  format="ascii">0 0 0  0.025 0 0  0.05 0 0  0.075 0 0  0.1 0 0  0.125 0 0  0.15 0 0  0.175 0 0  0.2 0 0  0.225 0 0  0.25 0 0  0.275 0 0  0.3 0 0  0.325 0 0  0.35 0 0  0.375 0 0  0.4 0 0  0.425 0 0  0.45 0 0  0.475 0 0  0.5 0 0  0.525 0 0  0.55 0 0  0.575 0 0  0.6 0 0  0.625 0 0  0.65 0 0  0.675 0 0  0.7 0 0  0.725 0 0  0.75 0 0  0.775 0 0  0.8 0 0  0.825 0 0  0.85 0 0  0.875 0 0  0.9 0 0  0.925 0 0  0.95 0 0  0.975 0 0  1 0 0  0 0.025 0  0.025 0.025 0  0.05 0.025 0  0.075 0.025 0  0.1 0.025 0  0.125 0.025 0  0.15 0.025 0  0.175 0.025 0  0.2 0.025 0  0.225 0.025 0  0.25 0.025 0  0.275 0.025 0  0.3 0.025 0  0.325 0.025 0  0.35 0.025 0  0.375 0.025 0  0.4 0.025 0  0.425 0.025 0  0.45 0.025 0  0.475 0.025 0  0.5 0.025 0  0.525 0.025 0  0.55 0.025 0  0.575 0.025 0  0.6 0.025 0  0.625 0.025 0  0.65 0.025 0  0.675 0.025 0  0.7 0.025 0  0.725 0.025 0  0.75 0.025 0  0.775 0.025 0  0.8 0.025 0  0.825 0.025 0  0.85 0.025 0  0.875 0.025 0  0.9 0.025 0  0.925 0.025 0  0.95 0.025 0  0.975 0.025 0  1 0.025 0  0 0.05 0  0.025 0.05 0  0.05 0.05 0  0.075 0.05 0  0.1 0.05 0  0.125 0.05 0  0.15 0.05 0  0.175 0.05 0  0.2 0.05 0  0.225 0.05 0  0.25 0.05 0  0.275 0.05 0  0.3 0.05 0  0.325 0.05 0  0.35 0.05 0  0.375 0.05 0  0.4 0.05 0  0.425 0.05 0  0.45 0.05 0  0.475 0.05 0  0.5 0.05 0  0.525 0.05 0  0.55 0.05 0  0.575 0.05 0  0.6 0.05 0  0.625 0.05 0  0.65 0.05 0  0.675 0.05 0  0.7 0.05 0  0.725 0.05 0  0.75 0.05 0  0.775 0.05 0  0.8 0.05 0  0.825 0.05 0  0.85 0.05 0  0.875 0.05 0  0.9 0.05 0  0.925 0.05 0  0.95 0.05 0  0.975 0.05 0  1 0.05 0  0 0.075 0  0.025 0.075 0  0.05 0.075 0  0.075 0.075 0  0.1 0.075 0  0.125 0.075 0  0.15 0.075 0  0.175 0.075 0  0.2 0.075 0  0.225 0.075 0  0.25 0.075 0  0.275 0.075 0  0.3 0.075 0  0.325 0.075 0  0.35 0.075 0  0.375 0.075 0  0.4 0.075 0  0.425 0.075 0  0.45 0.075 0  0.475 0.075 0  0.5 0.075 0  0.525 0.075 0  0.55 0.075 0  0.575 0.075 0  0.6 0.075 0  0.625 0.075 0  0.65 0.075 0  0.675 0.075 0  0.7 0.075 0  0.725 0.075 0  0.75 0.075 0  0.775 0.075 0  0.8 0.075 0  0.825 0.075 0  0.85 0.075 0  0.875 0.075 0  0.9 0.075 0  0.925 0.075 0  0.95 0.075 0  0.975 0.075 0  1 0.075 0  0 0.1 0  0.025 0.1 0  0.05 0.1 0  0.075 0.1 0  0.1 0.1 0  0.125 0.1 0  0.15 0.1 0  0.175 0.1 0  0.2 0.1 0  0.225 0.1 0  0.25 0.1 0  0.275 0.1 0  0.3 0.1 0  0.325 0.1 0  0.35 0.1 0  0.375 0.1 0  0.4 0.1 0  0.425 0.1 0  0.45 0.1 0  0.475 0.1 0  0.5 0.1 0  0.525 0.1 0  0.55 0.1 0  0.575 0.1 0  0.6 0.1 0  0.625 0.1 0  0.65 0.1 0  0.675 0.1 0  0.7 0.1 0  0.725 0.1 0  0.75 0.1 0  0.775 0.1 0  0.8 0.1 0  0.825 0.1 0  0.85 0.1 0  0.875 0.1 0  0.9 0.1 0  0.925 0.1 0  0.95 0.1 0  0.975 0.1 0  1 0.1 0  0 0.125 0  0.025 0.125 0  0.05 0.125 0  0.075 0.125 0  0.1 0.125 0  0.125 0.125 0  0.15 0.125 0  0.175 0.125 0  0.2 0.125 0  0.225 0.125 0  0.25 0.125 0  0.275 0.125 0  0.3 0.125 0  0.325 0.125 0  0.35 0.125 0  0.375 0.125 0  0.4 0.125 0  0.425 0.125 0  0.45 0.125 0  0.475 0.125 0  0.5 0.125 0  0.525 0.125 0  0.55 0.125 0  0.575 0.125 0  0.6 0.125 0  0.625 0.125 0  0.65 0.125 0  0.675 0.125 0  0.7 0.125 0  0.725 0.125 0  0.75 0.125 0  0.775 0.125 0  0.8 0.125 0  0.825 0.125 0  0.85 0.125 0  0.875 0.125 0  0.9 0.125 0  0.925 0.125 0  0.95 0.125 0  0.975 0.125 0  1 0.125 0  0 0.15 0  0.025 0.15 0  0.05 0.15 0  0.075 0.15 0  0.1 0.15 0  0.125 0.15 0  0.15 0.15 0  0.175 0.15 0  0.2 0.15 0  0.225 0.15 0  0.25 0.15 0  0.275 0.15 0  0.3 0.15 0  0.325 0.15 0  0.35 0.15 0  0.375 0.15 0  0.4 0.15 0  0.425 0.15 0  0.45 0.15 0  0.475 0.15 0  0.5 0.15 0  0.525 0.15 0  0.55 0.15 0  0.575 0.15 0  0.6 0.15 0  0.625 0.15 0  0.65 0.15 0  0.675 0.15 0  0.7 0.15 0  0.725 0.15 0  0.75 0.15 0  0.775 0.15 0  0.8 0.15 0  0.825 0.15 0  0.85 0.15 0  0.875 0.15 0  0.9 0.15 0  0.925 0.15 0  0.95 0.15 0  0.975 0.15 0  1 0.15 0  0 0.175 0  0.025 0.175 0  0.05 0.175 0  0.075 0.175 0  0.1 0.175 0  0.125 0.175 0  0.15 0.175 0  0.175 0.175 0  0.2 0.175 0  0.225 0.175 0  0.25 0.175 0  0.275 0.175 0  0.3 0.175 0  0.325 0.175 0  0.35 0.175 0  0.375 0.175 0  0.4 0.175 0  0.425 0.175 0  0.45 0.175 0  0.475 0.175 0  0.5 0.175 0  0.525 0.175 0  0.55 0.175 0  0.575 0.175 0  0.6 0.175 0  0.625 0.175 0  0.65 0.175 0  0.675 0.175 0  0.7 0.175 0  0.725 0.175 0  0.75 0.175 0  0.775 0.175 0  0.8 0.175 0  0.825 0.175 0  0.85 0.175 0  0.875 0.175 0  0.9 0.175 0  0.925 0.175 0  0.95 0.175 0  0.975 0.175 0  1 0.175 0  0 0.2 0  0.025 0.2 0  0.05 0.2 0  0.075 0.2 0  0.1 0.2 0  0.125 0.2 0  0.15 0.2 0  0.175 0.2 0  0.2 0.2 0  0.225 0.2 0  0.25 0.2 0  0.275 0.2 0  0.3 0.2 0  0.325 0.2 0  0.35 0.2 0  0.375 0.2 0  0.4 0.2 0  0.425 0.2 0  0.45 0.2 0  0.475 0.2 0  0.5 0.2 0  0.525 0.2 0  0.55 0.2 0  0.575 0.2 0  0.6 0.2 0  0.625 0.2 0  0.65 0.2 0  0.675 0.2 0  0.7 0.2 0  0.725 0.2 0  0.75 0.2 0  0.775 0.2 0  0.8 0.2 0  0.825 0.2 0  0.85 0.2 0  0.875 0.2 0  0.9 0.2 0  0.925 0.2 0  0.95 0.2 0  0.975 0.2 0  1 0.2 0  0 0.225 0  0.025 0.225 0  0.05 0.225 0  0.075 0.225 0  0.1 0.225 0  0.125 0.225 0  0.15 0.225 0  0.175 0.225 0  0.2 0.225 0  0.225 0.225 0  0.25 0.225 0  0.275 0.225 0  0.3 0.225 0  0.325 0.225 0  0.35 0.225 0  0.375 0.225 0  0.4 0.225 0  0.425 0.225 0  0.45 0.225 0  0.475 0.225 0  0.5 0.225 0  0.525 0.225 0  0.55 0.225 0  0.575 0.225 0  0.6 0.225 0  0.625 0.225 0  0.65 0.225 0  0.675 0.225 0  0.7 0.225 0  0.725 0.225 0  0.75 0.225 0  0.775 0.225 0  0.8 0.225 0  0.825 0.225 0  0.85 0.225 0  0.875 0.225 0  0.9 0.225 0  0.925 0.225 0  0.95 0.225 0  0.975 0.225 0  1 0.225 0  0 0.25 0  0.025 0.25 0  0.05 0.25 0  0.075 0.25 0  0.1 0.25 0  0.125 0.25 0  0.15 0.25 0  0.175 0.25 0  0.2 0.25 0  0.225 0.25 0  0.25 0.25 0  0.275 0.25 0  0.3 0.25 0  0.325 0.25 0  0.35 0.25 0  0.375 0.25 0  0.4 0.25 0  0.425 0.25 0  0.45 0.25 0  0.475 0.25 0  0.5 0.25 0  0.525 0.25 0  0.55 0.25 0  0.575 0.25 0  0.6 0.25 0  0.625 0.25 0  0.65 0.25 0  0.675 0.25 0  0.7 0.25 0  0.725 0.25 0  0.75 0.25 0  0.775 0.25 0  0.8 0.25 0  0.825 0.25 0  0.85 0.25 0  0.875 0.25 0  0.9 0.25 0  0.925 0.25 0  0.95 0.25 0  0.975 0.25 0  1 0.25 0  0 0.275 0  0.025 0.275 0  0.05 0.275 0  0.075 0.275 0  0.1 0.275 0  0.125 0.275 0  0.15 0.275 0  0.175 0.275 0  0.2 0.275 0  0.225 0.275 0  0.25 0.275 0  0.275 0.275 0  0.3 0.275 0  0.325 0.275 0  0.35 0.275 0  0.375 0.275 0  0.4 0.275 0  0.425 0.275 0  0.45 0.275 0  0.475 0.275 0  0.5 0.275 0  0.525 0.275 0  0.55 0.275 0  0.575 0.275 0  0.6 0.275 0  0.625 0.275 0  0.65 0.275 0  0.675 0.275 0  0.7 0.275 0  0.725 0.275 0  0.75 0.275 0  0.775 0.275 0  0.8 0.275 0  0.825 0.275 0  0.85 0.275 0  0.875 0.275 0  0.9 0.275 0  0.925 0.275 0  0.95 0.275 0  0.975 0.275 0  1 0.275 0  0 0.3 0  0.025 0.3 0  0.05 0.3 0  0.075 0.3 0  0.1 0.3 0  0.125 0.3 0  0.15 0.3 0  0.175 0.3 0  0.2 0.3 0  0.225 0.3 0  0.25 0.3 0  0.275 0.3 0  0.3 0.3 0  0.325 0.3 0  0.35 0.3 0  0.375 0.3 0  0.4 0.3 0  0.425 0.3 0  0.45 0.3 0  0.475 0.3 0  0.5 0.3 0  0.525 0.3 0  0.55 0.3 0  0.575 0.3 0  0.6 0.3 0  0.625 0.3 0  0.65 0.3 0  0.675 0.3 0  0.7 0.3 0  0.725 0.3 0  0.75 0.3 0  0.775 0.3 0  0.8 0.3 0  0.825 0.3 0  0.85 0.3 0  0.875 0.3 0  0.9 0.3 0  0.925 0.3 0  0.95 0.3 0  0.975 0.3 0  1 0.3 0  0 0.325 0  0.025 0.325 0  0.05 0.325 0  0.075 0.325 0  0.1 0.325 0  0.125 0.325 0  0.15 0.325 0  0.175 0.325 0  0.2 0.325 0  0.225 0.325 0  0.25 0.325 0  0.275 0.325 0  0.3 0.325 0  0.325 0.325 0  0.35 0.325 0  0.375 0.325 0  0.4 0.325 0  0.425 0.325 0  0.45 0.325 0  0.475 0.325 0  0.5 0.325 0  0.525 0.325 0  0.55 0.325 0  0.575 0.325 0  0.6 0.325 0  0.625 0.325 0  0.65 0.325 0  0.675 0.325 0  0.7 0.325 0  0.725 0.325 0  0.75 0.325 0  0.775 0.325 0  0.8 0.325 0  0.825 0.325 0  0.85 0.325 0  0.875 0.325 0  0.9 0.325 0  0.925 0.325 0  0.95 0.325 0  0.975 0.325 0  1 0.325 0  0 0.35 0  0.025 0.35 0  0.05 0.35 0  0.075 0.35 0  0.1 0.35 0  0.125 0.35 0  0.15 0.35 0  0.175 0.35 0  0.2 0.35 0  0.225 0.35 0  0.25 0.35 0  0.275 0.35 0  0.3 0.35 0  0.325 0.35 0  0.35 0.35 0  0.375 0.35 0  0.4 0.35 0  0.425 0.35 0  0.45 0.35 0  0.475 0.35 0  0.5 0.35 0  0.525 0.35 0  0.55 0.35 0  0.575 0.35 0  0.6 0.35 0  0.625 0.35 0  0.65 0.35 0  0.675 0.35 0  0.7 0.35 0  0.725 0.35 0  0.75 0.35 0  0.775 0.35 0  0.8 0.35 0  0.825 0.35 0  0.85 0.35 0  0.875 0.35 0  0.9 0.35 0  0.925 0.35 0  0.95 0.35 0  0.975 0.35 0  1 0.35 0  0 0.375 0  0.025 0.375 0  0.05 0.375 0  0.075 0.375 0  0.1 0.375 0  0.125 0.375 0  0.15 0.375 0  0.175 0.375 0  0.2 0.375 0  0.225 0.375 0  0.25 0.375 0  0.275 0.375 0  0.3 0.375 0  0.325 0.375 0  0.35 0.375 0  0.375 0.375 0  0.4 0.375 0  0.425 0.375 0  0.45 0.375 0  0.475 0.375 0  0.5 0.375 0  0.525 0.375 0  0.55 0.375 0  0.575 0.375 0  0.6 0.375 0  0.625 0.375 0  0.65 0.375 0  0.675 0.375 0  0.7 0.375 0  0.725 0.375 0  0.75 0.375 0  0.775 0.375 0  0.8 0.375 0  0.825 0.375 0  0.85 0.375 0  0.875 0.375 0  0.9 0.375 0  0.925 0.375 0  0.95 0.375 0  0.975 0.375 0  1 0.375 0  0 0.4 0  0.025 0.4 0  0.05 0.4 0  0.075 0.4 0  0.1 0.4 0  0.125 0.4 0  0.15 0.4 0  0.175 0.4 0  0.2 0.4 0  0.225 0.4 0  0.25 0.4 0  0.275 0.4 0  0.3 0.4 0  0.325 0.4 0  0.35 0.4 0  0.375 0.4 0  0.4 0.4 0  0.425 0.4 0  0.45 0.4 0  0.475 0.4 0  0.5 0.4 0  0.525 0.4 0  0.55 0.4 0  0.575 0.4 0  0.6 0.4 0  0.625 0.4 0  0.65 0.4 0  0.675 0.4 0  0.7 0.4 0  0.725 0.4 0  0.75 0.4 0  0.775 0.4 0  0.8 0.4 0  0.825 0.4 0  0.85 0.4 0  0.875 0.4 0  0.9 0.4 0  0.925 0.4 0  0.95 0.4 0  0.975 0.4 0  1 0.4 0  0 0.425 0  0.025 0.425 0  0.05 0.425 0  0.075 0.425 0  0.1 0.425 0  0.125 0.425 0  0.15 0.425 0  0.175 0.425 0  0.2 0.425 0  0.225 0.425 0  0.25 0.425 0  0.275 0.425 0  0.3 0.425 0  0.325 0.425 0  0.35 0.425 0  0.375 0.425 0  0.4 0.425 0  0.425 0.425 0  0.45 0.425 0  0.475 0.425 0  0.5 0.425 0  0.525 0.425 0  0.55 0.425 0  0.575 0.425 0  0.6 0.425 0  0.625 0.425 0  0.65 0.425 0  0.675 0.425 0  0.7 0.425 0  0.725 0.425 0  0.75 0.425 0  0.775 0.425 0  0.8 0.425 0  0.825 0.425 0  0.85 0.425 0  0.875 0.425 0  0.9 0.425 0  0.925 0.425 0  0.95 0.425 0  0.975 0.425 0  1 0.425 0  0 0.45 0  0.02
[...]
<PointData  Scalars="ControlVisualisation"> 
<DataArray  type="Float64"  Name="ControlVisualisation"  format="ascii">6.9982690976015949e-02  4.9464198339148516e-02  4.9550862207073221e-02  4.9560786810873732e-02  4.9457508393848604e-02  4.9580005661892024e-02  5.0639829488691432e-02  5.3930950428006240e-02  5.8266062309156139e-02  6.1282360193278325e-02  6.3581516084125947e-02  6.6082415099426167e-02  6.8738659863598658e-02  7.1150219378590299e-02  7.3012293801086814e-02  7.4354567322008361e-02  7.5299700798115335e-02  7.5944758830729236e-02  7.6361281956936700e-02  7.6603262172829298e-02  7.6703466005808893e-02  7.6669183107818228e-02  7.6484001154159501e-02  7.6114051451092055e-02  7.5511154092915533e-02  7.4604029080531195e-02  7.3286308919600390e-02  7.1489588525484996e-02  6.9473669336013080e-02  6.7671557756910097e-02  6.5764873154908879e-02  6.1776313864501733e-02  5.5305308563860470e-02  5.0911994225437643e-02  4.9613808381473598e-02  4.9428541989176997e-02  4.9524785390387009e-02  4.9574915960276571e-02  4.9507622405118960e-02  4.9416111795774896e-02  1.2947147229584932e-01  4.9488148285969862e-02  2.8445544893349523e-02  2.8540337535021217e-02  2.8611765438511315e-02  2.9374906409092225e-02  3.1339286663787075e-02  3.5810397376909088e-02  5.4277730551315732e-02  1.3810296723440216e-01  3.5086765453308388e-01  5.1382423282405476e-01  6.4559834862565868e-01  7.5658855296001226e-01  8.2474352367036852e-01  8.5993757153971828e-01  8.7814197896009383e-01  8.8831709623988431e-01  8.9431861818001079e-01  8.9779743841911741e-01  8.9957828308955579e-01  9.0008507547177175e-01  8.9942396477856834e-01  8.9739328522340944e-01  8.9347319799229674e-01  8.8670222550861821e-01  8.7517989136111185e-01  8.5467540224840122e-01  8.1584920477040990e-01  7.4258678718384818e-01  6.2473178496422255e-01  4.8896986840356371e-01  3.2135219539187598e-01  1.2063401937892339e-01  5.2579109317286807e-02  3.6389380807964999e-02  3.0202062622721522e-02  2.8535418195505143e-02  2.8552411843305446e-02  2.8545333191603767e-02  2.8415911479912431e-02  4.9419013645732590e-02  4.9872993518392257e-02  2.8757435457698356e-02  2.8891368039894331e-02  3.0427724085946614e-02  4.0729615946410502e-02  1.5205019783644588e-01  5.9065420915863642e-01  8.7511812451850113e-01  9.5085103910778723e-01  9.6964553012244892e-01  9.7539560858719765e-01  9.7817158366403889e-01  9.7995070656240779e-01  9.8118718247665182e-01  9.8202740102119179e-01  9.8257523706319960e-01  9.8292828525604370e-01  9.8315269909178915e-01  9.8328803128178965e-01  9.8335808921549284e-01  9.8337598460500986e-01  9.8334543890839676e-01  9.8326078220572832e-01  9.8310636550040509e-01  9.8285500510771961e-01  9.8246384282662547e-01  9.8186447594825721e-01  9.8094425799660478e-01  9.7952211417753554e-01  9.7732292520155239e-01  9.7377602546407838e-01  9.6687228959185934e-01  9.4662359726483369e-01  8.6906555686694731e-01  5.4834643183749221e-01  1.3044131546990406e-01  3.9847462117914657e-02  2.9390765837221382e-02  2.8714827867075340e-02  2.8741066578133512e-02  4.9602498945302033e-02  5.0949304775276275e-02  2.9354677253417949e-02  3.2369209418562819e-02  8.1891618745018935e-02  6.8490061805746616e-01  9.6029976188198241e-01  9.7798745974189538e-01  9.8278295305299157e-01  9.8378421559404317e-01  9.8380147223891823e-01  9.8381578294990657e-01  9.8382739268438146e-01  9.8383662695693463e-01  9.8384380249015246e-01  9.8384919977740581e-01  9.8385310248979485e-01  9.8385580123282401e-01  9.8385757373704141e-01  9.8385865656702165e-01  9.8385922503745182e-01  9.8385938476818546e-01  9.8385916985189092e-01  9.8385854315054566e-01  9.8385739715729947e-01  9.8385555699713179e-01  9.8385278949299504e-01  9.8384882180882005e-01  9.8384336615068768e-01  9.8383613390975178e-01  9.8382681973476416e-01  9.8381505323274154e-01  9.8380033397735922e-01  9.8378216960761788e-01  9.8189689945675673e-01  9.7516860817068773e-01  9.5339001802297985e-01  6.2832695603248223e-01  8.0704241686317971e-02  3.0593536477679317e-02  2.9442880084712617e-02  5.0230103405851448e-02  5.2094369955610086e-02  3.2274527390090312e-02  2.0537853946756018e-01  9.5743651440003386e-01  9.8200843193437937e-01  9.8380176646048423e-01  9.8383943595510781e-01  9.8387196190301762e-01  9.8389741274112219e-01  9.8391659340415860e-01  9.8393080467571314e-01  9.8394140120257678e-01  9.8394939489237543e-01  9.8395543256852480e-01  9.8395992392774123e-01  9.8396316715156507e-01  9.8396541233620338e-01  9.8396688527466125e-01  9.8396778025892684e-01  9.8396824608821420e-01  9.8396837571702789e-01  9.8396820121798134e-01  9.8396769278539653e-01  9.8396676089170454e-01  9.8396526213590019e-01  9.8396300952576854e-01  9.8395978471477907e-01  9.8395534157227893e-01  9.8394938084791028e-01  9.8394147553510725e-01  9.8393094472067955e-01  9.8391672637101324e-01  9.8389740670399461e-01  9.8387151333756573e-01  9.8383783113489454e-01  9.8379614121165226e-01  9.7974776257816132e-01  9.4356984749844852e-01  2.1321323897581268e-01  3.1317553734598741e-02  5.1414531606212337e-02  5.3232934021435308e-02  2.0252286505332570e-01  9.7919102590316021e-01  9.8382831369916801e-01  9.8390181839927560e-01  9.8396433698497221e-01  9.8400781984852337e-01  9.8403604483390983e-01  9.8405373279319908e-01  9.8406453115434933e-01  9.8407101493904048e-01  9.8407494635717974e-01  9.8407744246328932e-01  9.8407911356628963e-01  9.8408026044050190e-01  9.8408102884149351e-01  9.8408150632343161e-01  9.8408176818222204e-01  9.8408188637359051e-01  9.8408192315602894e-01  9.8408192158859953e-01  9.8408189905047005e-01  9.8408184540990706e-01  9.8408172595590560e-01  9.8408148864491685e-01  9.8408107366773656e-01  9.8408041930723855e-01  9.8407945137425856e-01  9.8407803721199028e-01  9.8407588543169788e-01  9.8407238549113085e-01  9.8406640930615019e-01  9.8405611095304601e-01  9.8403868869607436e-01  9.8401003597092351e-01  9.8396476382551734e-01  9.8389791007494687e-01  9.8381123020275962e-01  9.7122235169219484e-01  7.5129777400252798e-02  5.4239992757095200e-02  8.6785449945080506e-01  9.8379737117649002e-01  9.8397129731218680e-01  9.8410715607197485e-01  9.8419639636929879e-01  9.8423926855126342e-01  9.8425344943872950e-01  9.8425254701242237e-01  9.8424489620583633e-01  9.8423504157791630e-01  9.8422526451509440e-01  9.8421661583448639e-01  9.8420947420784310e-01  9.8420383824598312e-01  9.8419952252906295e-01  9.8419628327790432e-01  9.8419389441015859e-01  9.8419218069418790e-01  9.8419102311904560e-01  9.8419035057542359e-01  9.8419012819252283e-01  9.8419034881732181e-01  9.8419103031226907e-01  9.8419221937182133e-01  9.8419400104984212e-01  9.8419651120308516e-01  9.8419994582122883e-01  9.8420455699906295e-01  9.8421062181283159e-01  9.8421836977575217e-01  9.8422785666133694e-01  9.8423876718862324e-01  9.8425008893901789e-01  9.8425950205437351e-01  9.8426223463168538e-01  9.8424924782931056e-01  9.8420507870391394e-01  9.8410837970337861e-01  9.8394290561224629e-01  9.8168388492854608e-01  7.0998265344885902e-02  9.8407933653925705e-01  9.8444412698916961e-01  9.8464783727485783e-01  9.8471240687861272e-01  9.8468899548228694e-01  9.8463019166359955e-01  9.8456422802247112e-01  9.8450354505813220e-01  9.8445221849634290e-01  9.8441064241427767e-01  9.8437780753316828e-01  9.8435233099160158e-01  9.8433285030131468e-01  9.8431814960754960e-01  9.8430719500935782e-01  9.8429914078071001e-01  9.8429332369529343e-01  9.8428924732748957e-01  9.8428656055748198e-01  9.8428503448845650e-01  9.8428454271134258e-01  9.8428504842850728e-01  9.8428660032298154e-01  9.8428933779516592e-01  9.8429350504078650e-01  9.8429947224659853e-01  9.8430776081348281e-01  9.8431906847302386e-01  9.8433429032442654e-01  9.8435453335999978e-01  9.8438112191799543e-01  9.8441557833170690e-01  9.8445951745530735e-01  9.8451428347885717e-01  9.8457995516279084e-01  9.8465302367954355e-01  9.8472145214923390e-01  9.8475564859676834e-01  9.8469588032000044e-01  9.8446930747860328e-01  9.8385369400340805e-01  9.8533994172773509e-01  9.8634282314753374e-01  9.8601895484510549e-01  9.8564899306927001e-01  9.8533104102798030e-01  9.8508042599902512e-01  9.8489073408930083e-01  9.8474949836236381e-01  9.8464477724547528e-01  9.8456708881415789e-01  9.8450935525129335e-01  9.8446641684938518e-01  9.8443451849983798e-01  9.8441090375138440e-01  9.8439352770451072e-01  9.8438086585104900e-01  9.8437178744700438e-01  9.8436546869588570e-01  9.8436133039719198e-01  9.8435899220546696e-01  9.8435824064541488e-01  9.8435901007889015e-01  9.8436137662075063e-01  9.8436556510102757e-01  9.8437196917072955e-01  9.8438118486688808e-01  9.8439405885188525e-01  9.8441175499744393e-01  9.8443584806317341e-01  9.8446846161909729e-01  9.8451247815312326e-01  9.8457185873592690e-01  9.8465211180282797e-01  9.8476091911247532e-01  9.8490884461066552e-01  9.8510969440677310e-01  9.8537895377714380e-01  9.8572619652861659e-01  9.8613055356633217e-01  9.8649000127153164e-01  9.8486626952624934e-01  9.8659805168771286e-01  9.8857361936839327e-01  9.8750568888646517e-01  9.8657913029526401e-01  9.8591435082813628e-01  9.8545942218658056e-01  9.8514940939171047e-01  9.8493531714358817e-01  9.8478498501098399e-01  9.8467778145169704e-01  9.8460037591150806e-01  9.8454399857427954e-01  9.8450273946532008e-01  9.8447251451089390e-01  9.8445043657326814e-01  9.8443443161262212e-01  9.8442300096551250e-01  9.8441507013189100e-01  9.8440988927498296e-01  9.8440696653955950e-01  9.8440602461408389e-01  9.8440697599633009e-01  9.8440991502486141e-01  9.8441512617595239e-01  9.8442310931067867e-01  9.8443462407095184e-01  9.8445075830058471e-01  9.8447303054623547e-01  9.8450354626595815e-01  9.8454524381866615e-01  9.8460229276637878e-01  9.8468074971746089e-01  9.8478964573247707e-01  9.8494278667425827e-01  9.8516171762354421e-01  9.8548019823310007e-01  9.8594969410387012e-01  9.8663923693913547e-01  9.8759670536250566e-01  9.8866951909677003e-01  9.8625826955053564e-01  9.8697491142261828e-01  9.8955176241173304e-01  9.8817723718493244e-01  9.8699577398307625e-01  9.8616803832920519e-01  9.8561943291189269e-01  9.8525580063973373e-01  9.8501018353111369e-01  9.8484062861666266e-01  9.8472123995277328e-01  9.8463584774408774e-01  9.8457409426102349e-01  9.8452914401526570e-01  9.8449635036318695e-01  9.8447247121544068e-01  9.8445520191730940e-01  9.8444289092639625e-01  9.8443436124922412e-01  9.8442879446159870e-01  9.8442565423284578e-01  9.8442463742198472e-01  9.8442564663625876e-01  9.8442878123585698e-01  9.8443434586778467e-01  9.8444287752299742e-01  9.8445519424902006e-01  9.8447247177092534e-01  9.8449635996105367e-01  9.8452916206509344e-01  9.8457411951975293e-01  9.8463587908095096e-01  9.8472127661237108e-01  9.8484066951343718e-01  9.8501022544561012e-01  9.8525583530763172e-01  9.8561944214457076e-01  9.8616798790668936e-01  9.8699561696919269e-01  9.8817692926514900e-01  9.8955138020021971e-01  9.8697481043388591e-01  9.8625868976323361e-01  9.8867301637367400e-01  9.8760379362408157e-01  9.8664827101612851e-01  9.8595936131610151e-01  9.8548980694118549e-01  9.8517094743402756e-01  9.8495151003379011e-01  9.8479784263253789e-01  9.8468846829294021e-01  9.8460962526953621e-01  9.8455230324499055e-01  9.8451044276396527e-01  9.8447985301171914e-01  9.8445756584719424e-01  9.8444144755317187e-01  9.8442995889835361e-01  9.8442199988641499e-01  9.8441680500794682e-01  9.8441387211810782e-01  9.8441291651114560e-01  9.8441384523699282e-01  9.8441674851923666e-01  9.8442190708571475e-01  9.8442981648706185e-01  9.8444123155614338e-01  9.8445723598801571e-01  9.8447934514395519e-01  9.8450965791500999e-01  9.8455108959546900e-01  9.8460774580185673e-01  9.8468554039043787e-01  9.8479322204002750e-01  9.8494407346494961e-01  9.8515864917600671e-01  9.8546898805841954e-01  9.8592387500813461e-01  9.8658785656863135e-01  9.8751224965641737e-01  9.8857647361547329e-01  9.8659829646309061e-01  9.8486685277815178e-01  9.8649509016621839e-01  9.8614130697107483e-01  9.8574049741794567e-01  9.8539495475625982e-01  9.8512622717059828e-01  9.8492522543677141e-01  9.8477677322642898e-01  9.8466727598167747e-01  9.8458633068779100e-01  9.8452637364142115e-01  9.8448196153671819e-01  9.8444914114531068e-01  9.8442499288737606e-01  9.8440733602741270e-01  9.8439454282514949e-01  9.8438541356435172e-01  9.8437908298725019e-01  9.8437494699303585e-01  9.8437260812944916e-01  9.8437183973402032e-01  9.8437256644235682e-01  9.8437485770047872e-01  9.8437893252980502e-01  9.8438517688881999e-01  9.8439417697072418e-01  9.8440677096511298e-01  9.8442411949245034e-01  9.8444779481781197e-01  9.8447989659322865e-01  9.8452321937669141e-01  9.8458151306822994e-01  9.8465987370168451e-01  9.8476525891253064e-01  9.8490698351934947e-01  9.8509677226803827e-01  9.8534678628215222e-01  9.8566299509625188e-01  9.8602948567042481e-01  9.8634781547825789e-01  9.8534047321518015e-01  9.8385405656954694e-01  9.8447336094178828e-01  9.8470558421457632e-01  9.8476994360347814e-01  9.8473885666136074e-01  9.8467225226760602e-01  9.8460001924518448e-01  9.8453447755002443e-01  9.8447940453161498e-01  9.8443498137609664e-01  9.8440008648469968e-01  9.8437324565934847e-01  9.8435297282134826e-01  9.8433789489720913e-01  9.8432681985658332e-01  9.8431877785510968e-01  9.8431302807756926e-01  9.8430903317658958e-01  9.8430641871302038e-01  9.8430493677631214e-01  9.8430444350994617e-01  9.8430488951237594e-01  9.8430631727702700e-01  9.8430886224747605e-01  9.8431275995054246e-01  9.8431836486679236e-01  9.8432618331025079e-01  9.8433691214056585e-01  9.8435146312349486e-01  9.8437095200425373e-01  9.8439664677241556e-01  9.8442988127572795e-01  9.8447190535039020e-01  9.8452350619711093e-01  9.8458402854156279e-01  9.8464912797048421e-01  9.8470608215802558e-01  9.8472640402750700e-01  9.8465744093211671e-01  9.8444846035917222e-01  9.8407986008054260e-01  7.1300390891049240e-02  9.8191510922904190e-01  9.8394855850930141e-01  9.8411883090606722e-01  9.8421976326829319e-01  9.8426718249790435e-01  9.8428237405932417e-01  9.8428090266923052e-01  9.8427202127481372e-01  9.8426081450644609e-01  9.8424993232969638e-01  9.8424062244566013e-01  9.8423327365407898e-01  9.8422776355195418e-01  9.8422374139558566e-01  9.8422083550689810e-01  9.8421875535277148e-01  9.8421730482801084e-01  9.8421635458933521e-01  9.8421581534985447e-01  9.8421562912542460e-01  9.8421577332115151e-01  9.8421626445113330e-01  9.8421715430222279e-01  9.8421852356107475e-01  9.8422048547434859e-01  9.8422320769284632e-01  9.8422693932025929e-01  9.8423200391181875e-01  9.8423870477981057e-01  9.8424711773110296e-01  9.8425680985705932e-01  9.8426651497349016e-01  9.8427362388859074e-01  9.8427328265665859e-01  9.8425694261763552e-01  9.8421090483216100e-01  9.8411754543367691e-01  9.8397690960536055e-01  9.8379929854089088e-01  8.7089975473249470e-01  5.4034454487373942e-02  7.9275076178428897e-02  9.7269962248645281e-01  9.8381716414274167e-01  9.8390805774893253e-01  9.8397888688987423e-01  9.8402746136061703e-01  9.8405853216228645e-01  9.8407749474082373e-01  9.8408872066617192e-01  9.8409540748740842e-01  9.8409972639451926e-01  9.8410291204090894e-01  9.8410547054597153e-01  9.8410751842454314e-01  9.8410907582518758e-01  9.8411019938581723e-01  9.8411098174473455e-01  9.8411150448246099e-01  9.8411180904781193e-01  9.8411190271277005e-01  9.8411178178163738e-01  9.8411144488711944e-01  9.8411088269035851e-01  9.8411005333331059e-01  9.8410886913614570e-01  9.8410721618412467e-01  9.8410499911479854e-01  9.8410216020112640e-01  9.8409856829972375e-01  9.8409373329624272e-01  9.8408647037976527e-01  9.8407473196613071e-01  9.8405554835290232e-01  9.8402499850373026e-01  9.8397833836746340e-01  9.8391197494748739e-01  9.8383435161489396e-01  9.7977813074854947e-01  2.3185016646702034e-01  5.3232067671954590e-02  5.1303508032508140e-02  3.1403792871908594e-02  2.5288146629091485e-01  9.4486189818168698e-01  9.8079843551801749e-01  9.8380549867168277e-01  9.8385087048483055e-01  9.8388773377522520e-01  9.8391604040752434e-01  9.8393710692744851e-01  9.8395276791124453e-01  9.8396482486375447e-01  9.8397447496590507e-01  9.8398223588316147e-01  9.8398829057934578e-01  9.8399281613457779e-01  9.8399607994441796e-01  9.8399837188114603e-01  9.8399991236587037e-01  9.8400081571644027e-01  9.8400111498709886e-01  9.8400081036842513e-01  9.8399989535526744e-01  9.8399833863545128e-01  9.8399603686011372e-01  9.8399277990771483e-01  9.8398826782823590e-01  9.8398219236748519e-01  9.8397433221167463e-01  9.8396450544804992e-01  9.8395227075877623e-01  9.8393653540900594e-01  9.8391565295166494e-01  9.8388790863334818e-01  9.8385229494852999e-01  9.8381041837151562e-01  9.8281478270241796e-01  9.6283505711923756e-01  2.3937669549121557e-01  3.2374374720483177e-02  5.1995699079194255e-02  5.0157195113733073e-02  2.9343798451944937e-02  3.0895091588430318e-02  9.2666468131458346e-02  7.1828856950546116e-01  9.6005995623037177e-01  9.7787536598103264e-01  9.8360053779260115e-01  9.8379622251790311e-01  9.8381692749016048e-01  9.8383372020478144e-01  9.8384759706772662e-01  9.8385921892507922e-01  9.8386874754681830e-01  9.8387621138066650e-01  9.8388179262458741e-01  9.8388583843153665e-01  9.8388871624885443e-01  9.8389068636038757e-01  9.8389186507028836e-01  9.8389226911884908e-01  9.8389188745017653e-01  9.8389071987800369e-01  9.8388875320494140e-01  9.8388589451119790e-01  9.8388191405455305e-01  9.8387644757626114e-01  9.8386909536788225e-01  9.8385960007153272e-01  9.8384795989102447e-01  9.8383410926399850e-01  9.8381741563398084e-01  9.8379750690000078e-01  9.8377568001590177e-01  9.8034184119115320e-01  9.6780448858455126e-01  7.7474292960283897e-01  9.1920299350586140e-02  3.2810156243803588e-02  2.9302793336423244e-02  5.0843406665126378e-02  4.9570391135516687e-02  2.8678499645043664e-02  2.8653025332662209e-02  2.9773990673083530e-02  4.3523863433682745e-02  1.7665022952652062e-01  6.4224533298134889e-01  9.1985967971116656e-01  9.6438526836475880e-01  9.7081114549739944e-01  9.7723103977967152e-01  9.8031431051841800e-01  9.8169469356201589e-01  9.8295708829995276e-01  9.8378145565397102e-01  9.8378600223302415e-01  9.8378942340655384e-01  9.8379197337632185e-01  9.8379378826001873e-01  9.8379490459188235e-01  9.8379529850960479e-01  9.8379494653997868e-01  9.8379386490179166e-01  9.8379209760719999e-01  9.8378966202612206e-01  9.8378645960022615e-01  9.8378216236466198e-01  9.8299577047039699e-01  9.8216566262609295e-01  9.8073777010612617e-01  9.7716487638099969e-01  9.7367820676680361e-01  9.7042703783003592e-01  9.2665488940200436e-01  6.6164174497444750e-01  2.0736172971911843e-01  4.3782817476795279e-02  3.0796667304230575e-02  2.8901450879940428e-02  2.8693777294496639e-02  4.9815362578836890e-02  4.9413200043417579e-02  2.8393286195992129e-02  2.8474510278359656e-02  2.8547969229327619e-02  2.8852576019073223e-02  3.1509780798805793e-02  4.1010598621301721e-02  7.4053637103385167e-02  2.3666753370951221e-01  4.9240363735261367e-01  7.6755245026975294e-01  9.4111076558708961e-01  9.2032835024266013e-01  9.1693360331486284e-01  9.3758055852005440e-01  9.5629600440203144e-01  9.6697907353764778e-01  9.7106897647804802e-01  9.7210273736904806e-01  9.7221947236827511e-01  9.7228103481341077e-01  9.7249913026089252e-01  9.7266964913087928e-01  9.7199291267026311e-01  9.6847954515745760e-01  9.5860355339153236e-01  9.4015585713501415e-01  9.1847770980280719e-01  9.0958856579399050e-01  9.1826680003032468e-01  7.8667577546056233e-01  4.9307471884920179e-01  2.7489248823946028e-01  7.7613348667673526e-02  3.9296647589557414e-02  3.2416707896112083e-02  2.9982440376869611e-02  2.8679662200384027e-02  2.8471980738595463e-02  2.8414333017441510e-02  4.9471606662159343e-02  4.9388458766378304e-02  2.8329000877737667e-02  2.8374754065839908e-02  2.8443423552726606e-02  2.8518611526349397e-02  2.8603753104220340e-02  2.8856309769367872e-02  2.9936438229131241e-02  3.330137041