<?xml version="1.0"?>
<VTKFile type="UnstructuredGrid"  version="0.1"  >
<UnstructuredGrid>
<Piece  NumberOfPoints="1681" NumberOfCells="3200">
<Points>
<DataArray  type="Float64"  NumberOfComponents="3"  format="ascii">0 0 0  0.025 0 0  0.05 0 0  0.075 0 0  0.1 0 0  0.125 0 0  0.15 0 0  0.175 0 0  0.2 0 0  0.225 0 0  0.25 0 0  0.275 0 0  0.3 0 0  0.325 0 0  0.35 0 0  0.375 0 0  0.4 0 0  0.425 0 0  0.45 0 0  0.475 0 0  0.5 0 0  0.525 0 0  0.55 0 0  0.575 0 0  0.6 0 0  0.625 0 0  0.65 0 0  0.675 0 0  0.7 0 0  0.725 0 0  0.75 0 0  0.775 0 0  0.8 0 0  0.825 0 0  0.85 0 0  0.875 0 0  0.9 0 0  0.925 0 0  0.95 0 0  0.975 0 0  1 0 0  0 0.025 0  0.025 0.025 0  0.05 0.025 0  0.075 0.025 0  0.1 0.025 0  0.125 0.025 0  0.15 0.025 0  0.175 0.025 0  0.2 0.025 0  0.225 0.025 0  0.25 0.025 0  0.275 0.025 0  0.3 0.025 0  0.325 0.025 0  0.35 0.025 0  0.375 0.025 0  0.4 0.025 0  0.425 0.025 0  0.45 0.025 0  0.475 0.025 0  0.5 0.025 0  0.525 0.025 0  0.55 0.025 0  0.575 0.025 0  0.6 0.025 0  0.625 0.025 0  0.65 0.025 0  0.675 0.025 0  0.7 0.025 0  0.725 0.025 0  0.75 0.025 0  0.775 0.025 0  0.8 0.025 0  0.825 0.025 0  0.85 0.025 0  0.875 0.025 0  0.9 0.025 0  0.925 0.025 0  0.95 0.025 0  0.975 0.025 0  1 0.025 0  0 0.05 0  0.025 0.05 0  0.05 0.05 0  0.075 0.05 0  0.1 0.05 0  0.125 0.05 0  0.15 0.05 0  0.175 0.05 0  0.2 0.05 0  0.225 0.05 0  0.25 0.05 0  0.275 0.05 0  0.3 0.05 0  0.325 0.05 0  0.35 0.05 0  0.375 0.05 0  0.4 0.05 0  0.425 0.05 0  0.45 0.05 0  0.475 0.05 0  0.5 0.05 0  0.525 0.05 0  0.55 0.05 0  0.575 0.05 0  0.6 0.05 0  0.625 0.05 0  0.65 0.05 0  0.675 0.05 0  0.7 0.05 0  0.725 0.05 0  0.75 0.05 0  0.775 0.05 0  0.8 0.05 0  0.825 0.05 0  0.85 0.05 0  0.875 0.05 0  0.9 0.05 0  0.925 0.05 0  0.95 0.05 0  0.975 0.05 0  1 0.05 0  0 0.075 0  0.025 0.075 0  0.05 0.075 0  0.075 0.075 0  0.1 0.075 0  0.125 0.075 0  0.15 0.075 0  0.175 0.075 0  0.2 0.075 0  0.225 0.075 0  0.25 0.075 0  0.275 0.075 0  0.3 0.075 0  0.325 0.075 0  0.35 0.075 0  0.375 0.075 0  0.4 0.075 0  0.425 0.075 0  0.45 0.075 0  0.475 0.075 0  0.5 0.075 0  0.525 0.075 0  0.55 0.075 0  0.575 0.075 0  0.6 0.075 0  0.625 0.075 0  0.65 0.075 0  0.675 0.075 0  0.7 0.075 0  0.725 0.075 0  0.75 0.075 0  0.775 0.075 0  0.8 0.075 0  0.825 0.075 0  0.85 0.075 0  0.875 0.075 0  0.9 0.075 0  0.925 0.075 0  0.95 0.075 0  0.975 0.075 0  1 0.075 0  0 0.1 0  0.025 0.1 0  0.05 0.1 0  0.075 0.1 0  0.1 0.1 0  0.125 0.1 0  0.15 0.1 0  0.175 0.1 0  0.2 0.1 0  0.225 0.1 0  0.25 0.1 0  0.275 0.1 0  0.3 0.1 0  0.325 0.1 0  0.35 0.1 0  0.375 0.1 0  0.4 0.1 0  0.425 0.1 0  0.45 0.1 0  0.475 0.1 0  0.5 0.1 0  0.525 0.1 0  0.55 0.1 0  0.575 0.1 0  0.6 0.1 0  0.625 0.1 0  0.65 0.1 0  0.675 0.1 0  0.7 0.1 0  0.725 0.1 0  0.75 0.1 0  0.775 0.1 0  0.8 0.1 0  0.825 0.1 0  0.85 0.1 0  0.875 0.1 0  0.9 0.1 0  0.925 0.1 0  0.95 0.1 0  0.975 0.1 0  1 0.1 0  0 0.125 0  0.025 0.125 0  0.05 0.125 0  0.075 0.125 0  0.1 0.125 0  0.125 0.125 0  0.15 0.125 0  0.175 0.125 0  0.2 0.125 0  0.225 0.125 0  0.25 0.125 0  0.275 0.125 0  0.3 0.125 0  0.325 0.125 0  0.35 0.125 0  0.375 0.125 0  0.4 0.125 0  0.425 0.125 0  0.45 0.125 0  0.475 0.125 0  0.5 0.125 0  0.525 0.125 0  0.55 0.125 0  0.575 0.125 0  0.6 0.125 0  0.625 0.125 0  0.65 0.125 0  0.675 0.125 0  0.7 0.125 0  0.725 0.125 0  0.75 0.125 0  0.775 0.125 0  0.8 0.125 0  0.825 0.125 0  0.85 0.125 0  0.875 0.125 0  0.9 0.125 0  0.925 0.125 0  0.95 0.125 0  0.975 0.125 0  1 0.125 0  0 0.15 0  0.025 0.15 0  0.05 0.15 0  0.075 0.15 0  0.1 0.15 0  0.125 0.15 0  0.15 0.15 0  0.175 0.15 0  0.2 0.15 0  0.225 0.15 0  0.25 0.15 0  0.275 0.15 0  0.3 0.15 0  0.325 0.15 0  0.35 0.15 0  0.375 0.15 0  0.4 0.15 0  0.425 0.15 0  0.45 0.15 0  0.475 0.15 0  0.5 0.15 0  0.525 0.15 0  0.55 0.15 0  0.575 0.15 0  0.6 0.15 0  0.625 0.15 0  0.65 0.15 0  0.675 0.15 0  0.7 0.15 0  0.725 0.15 0  0.75 0.15 0  0.775 0.15 0  0.8 0.15 0  0.825 0.15 0  0.85 0.15 0  0.875 0.15 0  0.9 0.15 0  0.925 0.15 0  0.95 0.15 0  0.975 0.15 0  1 0.15 0  0 0.175 0  0.025 0.175 0  0.05 0.175 0  0.075 0.175 0  0.1 0.175 0  0.125 0.175 0  0.15 0.175 0  0.175 0.175 0  0.2 0.175 0  0.225 0.175 0  0.25 0.175 0  0.275 0.175 0  0.3 0.175 0  0.325 0.175 0  0.35 0.175 0  0.375 0.175 0  0.4 0.175 0  0.425 0.175 0  0.45 0.175 0  0.475 0.175 0  0.5 0.175 0  0.525 0.175 0  0.55 0.175 0  0.575 0.175 0  0.6 0.175 0  0.625 0.175 0  0.65 0.175 0  0.675 0.175 0  0.7 0.175 0  0.725 0.175 0  0.75 0.175 0  0.775 0.175 0  0.8 0.175 0  0.825 0.175 0  0.85 0.175 0  0.875 0.175 0  0.9 0.175 0  0.925 0.175 0  0.95 0.175 0  0.975 0.175 0  1 0.175 0  0 0.2 0  0.025 0.2 0  0.05 0.2 0  0.075 0.2 0  0.1 0.2 0  0.125 0.2 0  0.15 0.2 0  0.175 0.2 0  0.2 0.2 0  0.225 0.2 0  0.25 0.2 0  0.275 0.2 0  0.3 0.2 0  0.325 0.2 0  0.35 0.2 0  0.375 0.2 0  0.4 0.2 0  0.425 0.2 0  0.45 0.2 0  0.475 0.2 0  0.5 0.2 0  0.525 0.2 0  0.55 0.2 0  0.575 0.2 0  0.6 0.2 0  0.625 0.2 0  0.65 0.2 0  0.675 0.2 0  0.7 0.2 0  0.725 0.2 0  0.75 0.2 0  0.775 0.2 0  0.8 0.2 0  0.825 0.2 0  0.85 0.2 0  0.875 0.2 0  0.9 0.2 0  0.925 0.2 0  0.95 0.2 0  0.975 0.2 0  1 0.2 0  0 0.225 0  0.025 0.225 0  0.05 0.225 0  0.075 0.225 0  0.1 0.225 0  0.125 0.225 0  0.15 0.225 0  0.175 0.225 0  0.2 0.225 0  0.225 0.225 0  0.25 0.225 0  0.275 0.225 0  0.3 0.225 0  0.325 0.225 0  0.35 0.225 0  0.375 0.225 0  0.4 0.225 0  0.425 0.225 0  0.45 0.225 0  0.475 0.225 0  0.5 0.225 0  0.525 0.225 0  0.55 0.225 0  0.575 0.225 0  0.6 0.225 0  0.625 0.225 0  0.65 0.225 0  0.675 0.225 0  0.7 0.225 0  0.725 0.225 0  0.75 0.225 0  0.775 0.225 0  0.8 0.225 0  0.825 0.225 0  0.85 0.225 0  0.875 0.225 0  0.9 0.225 0  0.925 0.225 0  0.95 0.225 0  0.975 0.225 0  1 0.225 0  0 0.25 0  0.025 0.25 0  0.05 0.25 0  0.075 0.25 0  0.1 0.25 0  0.125 0.25 0  0.15 0.25 0  0.175 0.25 0  0.2 0.25 0  0.225 0.25 0  0.25 0.25 0  0.275 0.25 0  0.3 0.25 0  0.325 0.25 0  0.35 0.25 0  0.375 0.25 0  0.4 0.25 0  0.425 0.25 0  0.45 0.25 0  0.475 0.25 0  0.5 0.25 0  0.525 0.25 0  0.55 0.25 0  0.575 0.25 0  0.6 0.25 0  0.625 0.25 0  0.65 0.25 0  0.675 0.25 0  0.7 0.25 0  0.725 0.25 0  0.75 0.25 0  0.775 0.25 0  0.8 0.25 0  0.825 0.25 0  0.85 0.25 0  0.875 0.25 0  0.9 0.25 0  0.925 0.25 0  0.95 0.25 0  0.975 0.25 0  1 0.25 0  0 0.275 0  0.025 0.275 0  0.05 0.275 0  0.075 0.275 0  0.1 0.275 0  0.125 0.275 0  0.15 0.275 0  0.175 0.275 0  0.2 0.275 0  0.225 0.275 0  0.25 0.275 0  0.275 0.275 0  0.3 0.275 0  0.325 0.275 0  0.35 0.275 0  0.375 0.275 0  0.4 0.275 0  0.425 0.275 0  0.45 0.275 0  0.475 0.275 0  0.5 0.275 0  0.525 0.275 0  0.55 0.275 0  0.575 0.275 0  0.6 0.275 0  0.625 0.275 0  0.65 0.275 0  0.675 0.275 0  0.7 0.275 0  0.725 0.275 0  0.75 0.275 0  0.775 0.275 0  0.8 0.275 0  0.825 0.275 0  0.85 0.275 0  0.875 0.275 0  0.9 0.275 0  0.925 0.275 0  0.95 0.275 0  0.975 0.275 0  1 0.275 0  0 0.3 0  0.025 0.3 0  0.05 0.3 0  0.075 0.3 0  0.1 0.3 0  0.125 0.3 0  0.15 0.3 0  0.175 0.3 0  0.2 0.3 0  0.225 0.3 0  0.25 0.3 0  0.275 0.3 0  0.3 0.3 0  0.325 0.3 0  0.35 0.3 0  0.375 0.3 0  0.4 0.3 0  0.425 0.3 0  0.45 0.3 0  0.475 0.3 0  0.5 0.3 0  0.525 0.3 0  0.55 0.3 0  0.575 0.3 0  0.6 0.3 0  0.625 0.3 0  0.65 0.3 0  0.675 0.3 0  0.7 0.3 0  0.725 0.3 0  0.75 0.3 0  0.775 0.3 0  0.8 0.3 0  0.825 0.3 0  0.85 0.3 0  0.875 0.3 0  0.9 0.3 0  0.925 0.3 0  0.95 0.3 0  0.975 0.3 0  1 0.3 0  0 0.325 0  0.025 0.325 0  0.05 0.325 0  0.075 0.325 0  0.1 0.325 0  0.125 0.325 0  0.15 0.325 0  0.175 0.325 0  0.2 0.325 0  0.225 0.325 0  0.25 0.325 0  0.275 0.325 0  0.3 0.325 0  0.325 0.325 0  0.35 0.325 0  0.375 0.325 0  0.4 0.325 0  0.425 0.325 0  0.45 0.325 0  0.475 0.325 0  0.5 0.325 0  0.525 0.325 0  0.55 0.325 0  0.575 0.325 0  0.6 0.325 0  0.625 0.325 0  0.65 0.325 0  0.675 0.325 0  0.7 0.325 0  0.725 0.325 0  0.75 0.325 0  0.775 0.325 0  0.8 0.325 0  0.825 0.325 0  0.85 0.325 0  0.875 0.325 0  0.9 0.325 0  0.925 0.325 0  0.95 0.325 0  0.975 0.325 0  1 0.325 0  0 0.35 0  0.025 0.35 0  0.05 0.35 0  0.075 0.35 0  0.1 0.35 0  0.125 0.35 0  0.15 0.35 0  0.175 0.35 0  0.2 0.35 0  0.225 0.35 0  0.25 0.35 0  0.275 0.35 0  0.3 0.35 0  0.325 0.35 0  0.35 0.35 0  0.375 0.35 0  0.4 0.35 0  0.425 0.35 0  0.45 0.35 0  0.475 0.35 0  0.5 0.35 0  0.525 0.35 0  0.55 0.35 0  0.575 0.35 0  0.6 0.35 0  0.625 0.35 0  0.65 0.35 0  0.675 0.35 0  0.7 0.35 0  0.725 0.35 0  0.75 0.35 0  0.775 0.35 0  0.8 0.35 0  0.825 0.35 0  0.85 0.35 0  0.875 0.35 0  0.9 0.35 0  0.925 0.35 0  0.95 0.35 0  0.975 0.35 0  1 0.35 0  0 0.375 0  0.025 0.375 0  0.05 0.375 0  0.075 0.375 0  0.1 0.375 0  0.125 0.375 0  0.15 0.375 0  0.175 0.375 0  0.2 0.375 0  0.225 0.375 0  0.25 0.375 0  0.275 0.375 0  0.3 0.375 0  0.325 0.375 0  0.35 0.375 0  0.375 0.375 0  0.4 0.375 0  0.425 0.375 0  0.45 0.375 0  0.475 0.375 0  0.5 0.375 0  0.525 0.375 0  0.55 0.375 0  0.575 0.375 0  0.6 0.375 0  0.625 0.375 0  0.65 0.375 0  0.675 0.375 0  0.7 0.375 0  0.725 0.375 0  0.75 0.375 0  0.775 0.375 0  0.8 0.375 0  0.825 0.375 0  0.85 0.375 0  0.875 0.375 0  0.9 0.375 0  0.925 0.375 0  0.95 0.375 0  0.975 0.375 0  1 0.375 0  0 0.4 0  0.025 0.4 0  0.05 0.4 0  0.075 0.4 0  0.1 0.4 0  0.125 0.4 0  0.15 0.4 0  0.175 0.4 0  0.2 0.4 0  0.225 0.4 0  0.25 0.4 0  0.275 0.4 0  0.3 0.4 0  0.325 0.4 0  0.35 0.4 0  0.375 0.4 0  0.4 0.4 0  0.425 0.4 0  0.45 0.4 0  0.475 0.4 0  0.5 0.4 0  0.525 0.4 0  0.55 0.4 0  0.575 0.4 0  0.6 0.4 0  0.625 0.4 0  0.65 0.4 0  0.675 0.4 0  0.7 0.4 0  0.725 0.4 0  0.75 0.4 0  0.775 0.4 0  0.8 0.4 0  0.825 0.4 0  0.85 0.4 0  0.875 0.4 0  0.9 0.4 0  0.925 0.4 0  0.95 0.4 0  0.975 0.4 0  1 0.4 0  0 0.425 0  0.025 0.425 0  0.05 0.425 0  0.075 0.425 0  0.1 0.425 0  0.125 0.425 0  0.15 0.425 0  0.175 0.425 0  0.2 0.425 0  0.225 0.425 0  0.25 0.425 0  0.275 0.425 0  0.3 0.425 0  0.325 0.425 0  0.35 0.425 0  0.375 0.425 0  0.4 0.425 0  0.425 0.425 0  0.45 0.425 0  0.475 0.425 0  0.5 0.425 0  0.525 0.425 0  0.55 0.425 0  0.575 0.425 0  0.6 0.425 0  0.625 0.425 0  0.65 0.425 0  0.675 0.425 0  0.7 0.425 0  0.725 0.425 0  0.75 0.425 0  0.775 0.425 0  0.8 0.425 0  0.825 0.425 0  0.85 0.425 0  0.875 0.425 0  0.9 0.425 0  0.925 0.425 0  0.95 0.425 0  0.975 0.425 0  1 0.425 0  0 0.45 0  0.02
[...]
<PointData  Scalars="ControlVisualisation"> 
<DataArray  type="Float64"  Name="ControlVisualisation"  format="ascii">1.8522555166008506e-01  1.5364781464998700e-01  1.5390142497927572e-01  1.5437113393607765e-01  1.5496009079425893e-01  1.5557028387463395e-01  1.5612858289026824e-01  1.5659404525573112e-01  1.5695271443556505e-01  1.5720787248296333e-01  1.5737144815700238e-01  1.5745823263208081e-01  1.5748267348174066e-01  1.5745742223799752e-01  1.5739289731031156e-01  1.5729736122507923e-01  1.5717721668083934e-01  1.5703736463205328e-01  1.5688154980688593e-01  1.5671266374086010e-01  1.5653299785926195e-01  1.5634444918272791e-01  1.5614868488584679e-01  1.5594727238863118e-01  1.5574178072288897e-01  1.5553385746519410e-01  1.5532528406702673e-01  1.5511801109907716e-01  1.5491417398471524e-01  1.5471608920436339e-01  1.5452623088521553e-01  1.5434718792702312e-01  1.5418160307545006e-01  1.5403209501523321e-01  1.5390117046466725e-01  1.5379112365824360e-01  1.5370397593516538e-01  1.5364141119469141e-01  1.5360491784220567e-01  1.5359344120989307e-01  2.1971189777913194e-01  1.5364864199009540e-01  7.8789355655584342e-02  8.0349451366457270e-02  8.3046750139228062e-02  8.6519218848213869e-02  9.0227748031692478e-02  9.3719357759121352e-02  9.6710916714352738e-02  9.9078045601644849e-02  1.0080974057561551e-01  1.0195964723302334e-01  1.0260915451215555e-01  1.0284459217327806e-01  1.0274538560518844e-01  1.0237925459870326e-01  1.0180136601995921e-01  1.0105542175462236e-01  1.0017550866235272e-01  9.9188092898343141e-02  9.8113869443573476e-02  9.6969356892808681e-02  9.5768217307690681e-02  9.4522320470398574e-02  9.3242585035981054e-02  9.1939629248291216e-02  9.0624258546027958e-02  8.9307810481007999e-02  8.8002370830177395e-02  8.6720869853890270e-02  8.5477064689789217e-02  8.4285413222558170e-02  8.3160846198425314e-02  8.2118448805390154e-02  8.1173064253876326e-02  8.0338852569958263e-02  7.9628808556703165e-02  7.9054350370249285e-02  7.8624776680862263e-02  7.8345210570380214e-02  7.8199445179609667e-02  1.5359343920000870e-01  1.5392867634284413e-01  8.0528529241687685e-02  8.3815322455636943e-02  8.8293284555361923e-02  9.3913143110648717e-02  9.9881736246438729e-02  1.0547916416854819e-01  1.1025699579327668e-01  1.1402059403287751e-01  1.1675426359423295e-01  1.1854390349996038e-01  1.1951960816124235e-01  1.1982001017947168e-01  1.1957343479210024e-01  1.1888999683962904e-01  1.1785997160520784e-01  1.1655532951142844e-01  1.1503257818060697e-01  1.1333590413118518e-01  1.1150012421766321e-01  1.0955324781854248e-01  1.0751860176752508e-01  1.0541653945732900e-01  1.0326578127062305e-01  1.0108443694575069e-01  9.8890754307997222e-02  9.6703629588653001e-02  9.4542905830610618e-02  9.2429479508464793e-02  9.0385232074583211e-02  8.8432802988848216e-02  8.6595223116625458e-02  8.4895433324447989e-02  8.3355714855894672e-02  8.1997082154744008e-02  8.0838621835668450e-02  7.9896884410122992e-02  7.9183821874404453e-02  7.8695161102060693e-02  7.8346013249811719e-02  1.5360494492957874e-01  1.5456753851243776e-01  8.4270015391455955e-02  8.9977923327061018e-02  9.5254943656377170e-02  1.0121423213764383e-01  1.0720303067851361e-01  1.1257432304174557e-01  1.1698292187764894e-01  1.2032361180039362e-01  1.2263687171439339e-01  1.2403552716630731e-01  1.2465794879630880e-01  1.2464136074027046e-01  1.2410870785605983e-01  1.2316380738044579e-01  1.2189111992720288e-01  1.2035779425093913e-01  1.1861659396789989e-01  1.1670894796318454e-01  1.1466775582119335e-01  1.1251980252087718e-01  1.1028775361932380e-01  1.0799175646218095e-01  1.0565069226520384e-01  1.0328312550122350e-01  1.0090799065662226e-01  9.8545048007463942e-02  9.6215132238026663e-02  9.3940212381427746e-02  9.1743279089148477e-02  8.9648075986736769e-02  8.7678694844660787e-02  8.5859060866779302e-02  8.4212335555468892e-02  8.2760284937517026e-02  8.1522569465659847e-02  8.0515812789184460e-02  7.9749076175067019e-02  7.9194790248839853e-02  7.8631326598653781e-02  1.5364190027645483e-01  1.5570647834751891e-01  9.1046722109778294e-02  1.0144658139392387e-01  1.0748432774670365e-01  1.1288932354012421e-01  1.1767421505498604e-01  1.2157366239368719e-01  1.2450191526978721e-01  1.2650513514248499e-01  1.2768777041804866e-01  1.2817138262589176e-01  1.2807456673583545e-01  1.2750366589826886e-01  1.2654929651787677e-01  1.2528605116386954e-01  1.2377389618822482e-01  1.2206034889867230e-01  1.2018287912486020e-01  1.1817122216082336e-01  1.1604944889629851e-01  1.1383773644723083e-01  1.1155383606810522e-01  1.0921426028405555e-01  1.0683521917488800e-01  1.0443333430975282e-01  1.0202615345640909e-01  9.9632482742958189e-02  9.7272547507173540e-02  9.4967989691115834e-02  9.2741708966563585e-02  9.0617557006915678e-02  8.8619898726140844e-02  8.6773062337157397e-02  8.5100701501936354e-02  8.3625111616027842e-02  8.2366409310511951e-02  8.1341114326335534e-02  8.0554108133494340e-02  7.9943475264618369e-02  7.9080509708764457e-02  1.5370657627379453e-01  1.5740182905301783e-01  1.0411995510091164e-01  1.2299362473016592e-01  1.2891444179852835e-01  1.3159474992157671e-01  1.3315482703205672e-01  1.3399830090921891e-01  1.3428605863326340e-01  1.3412876183629313e-01  1.3360619088572045e-01  1.3277840233061541e-01  1.3169304509194613e-01  1.3038933517119386e-01  1.2889995563572773e-01  1.2725205430061914e-01  1.2546800505235373e-01  1.2356618129458238e-01  1.2156178436176884e-01  1.1946769302882659e-01  1.1729528787013982e-01  1.1505521504799936e-01  1.1275806838219961e-01  1.1041497895940193e-01  1.0803810725512870e-01  1.0564103415838860e-01  1.0323904641832306e-01  1.0084931007125870e-01  9.8490923778204925e-02  9.6184843691053096e-02  9.3953673162053830e-02  9.1821315001893722e-02  8.9812490473882053e-02  8.7952139614228764e-02  8.6264720423547381e-02  8.4773441679496436e-02  8.3499279438620205e-02  8.2458876433523717e-02  8.1651641246174689e-02  8.0969182821813257e-02  7.9702536852724548e-02  1.5379954926975942e-01  1.6494461111656991e-01  1.3460132851981949e-01  1.6537988811337337e-01  1.6492021856847322e-01  1.5959270337550874e-01  1.5441869563250271e-01  1.5001289748326352e-01  1.4632104652454794e-01  1.4318886634130834e-01  1.4046327780780901e-01  1.3801699506912496e-01  1.3575209465419985e-01  1.3359660008937962e-01  1.3149902364964317e-01  1.2942315904560101e-01  1.2734388517053566e-01  1.2524406946142272e-01  1.2311241307881081e-01  1.2094202177394187e-01  1.1872950435886877e-01  1.1647444022430609e-01  1.1417909669272591e-01  1.1184830861653583e-01  1.0948945513285938e-01  1.0711248347978622e-01  1.0472993913158821e-01  1.0235696702505409e-01  1.0001125247484968e-01  9.7712873776636622e-02  9.5484042932089036e-02  9.3348717640114209e-02  9.1332076508779170e-02  8.9459862796539336e-02  8.7757606865036419e-02  8.6249751767397742e-02  8.4958445048437858e-02  8.3900475273519293e-02  8.3067898994101622e-02  8.2292338844516061e-02  8.0507263155449413e-02  1.5392202511054170e-01  2.1904539869890877e-01  2.1627654666185470e-01  2.3919145343262924e-01  2.1758809123335685e-01  1.9660181722694164e-01  1.8051569311842272e-01  1.6862954766021973e-01  1.5978151099754645e-01  1.5305903178982924e-01  1.4781203347264046e-01  1.4358509792886176e-01  1.4006041366461694e-01  1.3701585217739504e-01  1.3429546332350750e-01  1.3178917748967689e-01  1.2941894512541735e-01  1.2712929717752186e-01  1.2488091972461289e-01  1.2264628330140344e-01  1.2040667834898648e-01  1.1815021764794882e-01  1.1587050647757061e-01  1.1356577373203147e-01  1.1123831780255375e-01  1.0889416014535436e-01  1.0654282450201888e-01  1.0419717533943962e-01  1.0187325917465173e-01  9.9590099832852969e-02  9.7369405473098664e-02  9.5235153860136521e-02  9.3213033125389866e-02  9.1329731554421173e-02  8.9612076216536357e-02  8.8086026965929320e-02  8.6775157641671402e-02  8.5696253299722691e-02  8.4831578320052350e-02  8.3937657850934405e-02  8.1507446426226760e-02  1.5407565787717545e-01  3.4321466944595469e-01  3.5758935678137910e-01  3.2637612429552942e-01  2.7683965474813271e-01  2.3680957021689569e-01  2.0780866714300586e-01  1.8748523663234293e-01  1.7309623732107343e-01  1.6268032675887636e-01  1.5493187245686918e-01  1.4898916788744454e-01  1.4427894239510691e-01  1.4041435113822950e-01  1.3713035507559962e-01  1.3424277137108029e-01  1.3162204608114558e-01  1.2917621643426963e-01  1.2683967704595606e-01  1.2456567528583787e-01  1.2232124851955940e-01  1.2008379102217200e-01  1.1783872729867348e-01  1.1557794695866896e-01  1.1329876685217219e-01  1.1100325539484918e-01  1.0869779695116891e-01  1.0639280054269570e-01  1.0410247331275937e-01  1.0184458958300835e-01  9.9640194505237187e-02  9.7513190498744823e-02  9.5489766331963793e-02  9.3597647055413347e-02  9.1865149035506119e-02  9.0320015979015955e-02  8.8987474751027182e-02  8.7883999541346763e-02  8.6978957791209649e-02  8.5936599481062331e-02  8.2719258852108360e-02  1.5426256831744073e-01  4.1551986978042166e-01  4.5221407046508244e-01  3.8732733398932684e-01  3.2445014437744335e-01  2.7016155425690980e-01  2.3061371713390208e-01  2.0322563561615969e-01  1.8420721305231227e-01  1.7074834016186369e-01  1.6097185620124524e-01  1.5366044224542824e-01  1.4801988197093910e-01  1.4352352713634081e-01  1.3981555897478223e-01  1.3665116828605181e-01  1.3385920982714819e-01  1.3131848045862959e-01  1.2894235769700862e-01  1.2666866915132427e-01  1.2445290969074965e-01  1.2226365249311925e-01  1.2007943154411245e-01  1.1788663160041297e-01  1.1567807838631404e-01  1.1345211774522213e-01  1.1121203096851942e-01  1.0896566849832726e-01  1.0672520457235357e-01  1.0450692687612745e-01  1.0233098269556798e-01  1.0022101068516090e-01  9.8203597653120728e-02  9.6307518236699211e-02  9.4562717872427537e-02  9.2998964738432971e-02  9.1643329910072638e-02  9.0511464330471081e-02  8.9555846642339232e-02  8.8328634566448211e-02  8.4162754490538033e-02  1.5448536284108833e-01  4.3388693995602984e-01  4.8053580492919079e-01  4.1300401748360094e-01  3.4851251746185835e-01  2.8800668188718725e-01  2.4358328992150863e-01  2.1260928122929504e-01  1.9113433147623118e-01  1.7602119476000055e-01  1.6512901713421874e-01  1.5706428567248723e-01  1.5091777716498861e-01  1.4608797782366573e-01  1.4216939247029647e-01  1.3888340080200212e-01  1.3603521374089525e-01  1.3348664531081295e-01  1.3113855287685100e-01  1.2891929045571765e-01  1.2677698658467282e-01  1.2467431602451914e-01  1.2258493975476184e-01  1.2049108876971422e-01  1.1838194866151525e-01  1.1625261224631660e-01  1.1410343403178783e-01  1.1193965921819868e-01  1.0977122104746469e-01  1.0761261014967644e-01  1.0548272332082745e-01  1.0340460210076860e-01  1.0140497692295158e-01  9.9513547567161451e-02  9.7761923843651122e-02  9.6182071937190430e-02  9.4803022866738529e-02  9.3638788316769694e-02  9.2619760556038808e-02  9.1162879755453646e-02  8.5862523328212245e-02  1.5474720132959455e-01  4.1214356016269288e-01  4.6084317756978094e-01  4.0173098922822081e-01  3.4408403498627221e-01  2.8643357205778980e-01  2.4380022185924199e-01  2.1368398952825762e-01  1.9261041504640702e-01  1.7766568860440282e-01  1.6684271608579082e-01  1.5881305548225128e-01  1.5269757358157476e-01  1.4790811840816395e-01  1.4404437221327759e-01  1.4082897328204300e-01  1.3806651623941071e-01  1.3561731879742150e-01  1.3338034222018214e-01  1.3128186590065927e-01  1.2926785440018795e-01  1.2729875177510380e-01  1.2534591413514842e-01  1.2338917790118827e-01  1.2141523573867753e-01  1.1941659871562488e-01  1.1739098737561743e-01  1.1534103116835606e-01  1.1327417362416117e-01  1.1120268583433852e-01  1.0914368784159205e-01  1.0711907188073937e-01  1.0515521712314857e-01  1.0328239098305807e-01  1.0153370590290245e-01  9.9943350852521234e-02  9.8542274169373834e-02  9.7341567230623038e-02  9.6242692880881164e-02  9.4500145956437465e-02  8.7848483563030211e-02  1.5505187022064273e-01  3.2279509526992067e-01  3.8956459823400991e-01  3.5389645883840520e-01  3.1203406519334315e-01  2.6620832555528923e-01  2.3150271080411750e-01  2.0641914606501435e-01  1.8848271273733930e-01  1.7549916061343573e-01  1.6593897444894473e-01  1.5875368034324708e-01  1.5322923915765935e-01  1.4887526647748553e-01  1.4535038982402318e-01  1.4241353392798889e-01  1.3989203252331231e-01  1.3766062900235976e-01  1.3562745509507793e-01  1.3372452881188251e-01  1.3190122849441005e-01  1.3011976968407657e-01  1.2835206489226092e-01  1.2657756557412889e-01  1.2478182272485405e-01  1.2295558821128437e-01  1.2109433111969005e-01  1.1919807247522098e-01  1.1727145361750616e-01  1.1532395184405257e-01  1.1337014495138803e-01  1.1142990827789581e-01  1.0952840774126187e-01  1.0769573946188718e-01  1.0596600428134086e-01  1.0437534096696965e-01  1.0295625957056245e-01  1.0171492473078231e-01  1.0051476414388813e-01  9.8415561671175794e-02  9.0156853256215641e-02  1.5540386681565740e-01  1.9830345136380897e-01  2.5786617558332831e-01  2.8167412696478594e-01  2.6086986400822376e-01  2.3281932556988805e-01  2.0999239498966224e-01  1.9265744865260112e-01  1.7973149799600702e-01  1.7002961687181181e-01  1.6266981315181339e-01  1.5700055800091603e-01  1.5255358315708673e-01  1.4899140823642923e-01  1.4606969561021538e-01  1.4361017038061979e-01  1.4148159586278414e-01  1.3958649365630382e-01  1.3785182720257663e-01  1.3622242202537624e-01  1.3465628648899303e-01  1.3312127316082015e-01  1.3159270727249922e-01  1.3005173309606444e-01  1.2848421193968387e-01  1.2688006011418834e-01  1.2523295015113617e-01  1.2354031740048593e-01  1.2180361948752948e-01  1.2002878799452843e-01  1.1822679046507814e-01  1.1641418842844065e-01  1.1461353544487086e-01  1.1285341588285178e-01  1.1116779993957326e-01  1.0959394269720490e-01  1.0816496538321654e-01  1.0687894565285318e-01  1.0554902339436079e-01  1.0300189151899453e-01  9.2831306403335909e-02  1.5580848869291675e-01  1.6311182822319442e-01  1.5625374971128922e-01  2.0695525094496611e-01  2.0593136380312771e-01  1.9523787807961837e-01  1.8451908746072018e-01  1.7543053030187977e-01  1.6811668555705303e-01  1.6228349068888595e-01  1.5763497765982601e-01  1.5390335700867883e-01  1.5087181267834224e-01  1.4836862327107808e-01  1.4626040633421242e-01  1.4444422816364744e-01  1.4284079189961890e-01  1.4138889806614641e-01  1.4004110120924906e-01  1.3876036774953129e-01  1.3751753082861448e-01  1.3628937162556928e-01  1.3505719658291232e-01  1.3380581658109580e-01  1.3252286508178363e-01  1.3119841664611878e-01  1.2982488535840347e-01  1.2839719324111934e-01  1.2691320031919598e-01  1.2537437740238189e-01  1.2378667599955898e-01  1.2216150572237792e-01  1.2051666300644526e-01  1.1887696732183325e-01  1.1727413648899634e-01  1.1574469516729013e-01  1.1432032062763928e-01  1.1298596589227392e-01  1.1148778520144090e-01  1.0837370615762928e-01  9.5924318637181843e-02  1.5627192231361811e-01  1.5877164785868175e-01  1.1898036638387856e-01  1.5436084625276875e-01  1.6173655217995067e-01  1.6190382365577569e-01  1.6013291211789590e-01  1.5785648820169901e-01  1.5559556891728041e-01  1.5349806611343339e-01  1.5162131990236083e-01  1.4996412852744195e-01  1.4850392789311317e-01  1.4720931688254935e-01  1.4604816703577478e-01  1.4499081601510611e-01  1.4401129292308798e-01  1.4308742764470717e-01  1.4220047603934735e-01  1.4133455975975548e-01  1.4047607276043317e-01  1.3961312818470331e-01  1.3873508199971665e-01  1.3783215464302406e-01  1.3689516963124457e-01  1.3591543232152117e-01  1.3488477958458941e-01  1.3379583876065623e-01  1.3264253826895150e-01  1.3142090694103994e-01  1.3013017755843112e-01  1.2877416433887162e-01  1.2736279631068209e-01  1.2591355299955723e-01  1.2445217745756545e-01  1.2301084354396147e-01  1.2161570112671601e-01  1.2023040350080495e-01  1.1851101727665124e-01  1.1467256727140318e-01  9.9498675580797169e-02  1.5680131678091414e-01  1.5698447400581036e-01  1.0316948795875916e-01  1.2430633483153623e-01  1.3191497226999102e-01  1.3654186804758048e-01  1.3983438826584768e-01  1.4217997148947306e-01  1.4378393800019423e-01  1.4481457456581753e-01  1.4542637732601404e-01  1.4573615174347909e-01  1.4583130684789283e-01  1.4577416864305084e-01  1.4560878275808212e-01  1.4536587930900691e-01  1.4506670793883558e-01  1.4472572867135339e-01  1.4435248583506471e-01  1.4395287871670301e-01  1.4353000180036707e-01  1.4308467803203900e-01  1.4261577589033836e-01  1.4212038064891647e-01  1.4159388034273787e-01  1.4103002535151743e-01  1.4042102627483888e-01  1.3975776593355196e-01  1.3903021487630166e-01  1.3822815098660948e-01  1.3734228348509617e-01  1.3636585259049747e-01  1.3529669440384323e-01  1.3413959207349077e-01  1.3290814221476496e-01  1.3162350996400093e-01  1.3029854466115706e-01  1.2886206553524160e-01  1.2684748461634174e-01  1.2207339264219152e-01  1.0362906320198775e-01  1.5740481717037469e-01  1.5560293478405726e-01  9.2947509350745125e-02  1.0582348720028627e-01  1.1254858612417200e-01  1.1865309855373823e-01  1.2439509407159186e-01  1.2947313494558121e-01  1.3370494294635596e-01  1.3709317499127241e-01  1.3973041326325322e-01  1.4173904323806319e-01  1.4324178182648670e-01  1.4434729093248738e-01  1.4514653533245919e-01  1.4571299873423499e-01  1.4610477079182424e-01  1.4636705330121952e-01  1.4653456082271882e-01  1.4663357192575713e-01  1.4668356942288407e-01  1.4669847882230858e-01  1.4668754589534574e-01  1.4665590544844748e-01  1.4660489746398131e-01  1.4653219160654171e-01  1.4643179109023710e-01  1.4629400540747270e-01  1.4610550898842845e-01  1.4584964075785306e-01  1.4550713628497600e-01  1.4505750634724016e-01  1.4448125618812996e-01  1.4376294545287435e-01  1.4289429007786256e-01  1.4187383343860241e-01  1.4068681373388212e-01  1.3920423055596773e-01  1.3678966858896055e-01  1.3079213322818031e-01  1.0840355780390296e-01  1.5809151287842940e-01  1.5466792817087854e-01  8.6383070569352377e-02  9.4326762396982677e-02  1.0010392126943637e-01  1.0655804267576539e-01  1.1339021164791893e-01  1.1996207580028251e-01  1.2585184052031989e-01  1.3088502395480428e-01  1.3504636593273986e-01  1.3841055855651047e-01  1.4109035911061363e-01  1.4320659929270860e-01  1.4487279703450545e-01  1.4618841210266906e-01  1.4723709682837569e-01  1.4808739058268158e-01  1.4879447652241781e-01  1.4940221080222496e-01  1.4994502678244223e-01  1.5044952704176764e-01  1.5093569153478759e-01  1.5141768854989371e-01  1.5190430287317738e-01  1.5239901075826293e-01  1.5289974543343487e-01  1.5339841902495291e-01  1.5388030543112119e-01  1.5432345252219964e-01  1.5469837378816453e-01  1.5496839138972285e-01  1.5509107198990718e-01  1.5502107991395894e-01  1.5471400140770999e-01  1.5412655684150531e-01  1.5319028356171013e-01  1.5167818746642933e-01  1.4871371462610847e-01  1.4109490699357216e-01  1.1392479408017420e-01  1.5887123695693006e-01  1.5405215176386752e-01  8.2106614130491584e-02  8.7020394690166342e-02  9.2230976326142577e-02  9.8793822030721457e-02  1.0612981725748558e-01  1.1350936091840687e-01  1.2040070868689914e-01  1.2651049619824364e-01  1.3173506668014309e-01  1.3609531178072171e-01  1.3967922063420260e-01  1.4260308783551429e-01  1.4498777812997252e-01  1.4694616928757034e-01  1.4857767101346858e-01  1.4996681667671038e-01  1.5118398035619920e-01  1.5228701173731859e-01  1.5332310013791584e-01  1.5433049209060892e-01  1.5533987033970378e-01  1.5637530015395465e-01  1.5745469601802023e-01  1.5858978147670838e-01  1.5978552431774837e-01  1.6103904200451113e-01  1.6233800531824988e-01  1.6365863540237016e-01  1.6496351046839783e-01  1.6619962192040588e-01  1.6729726881458035e-01  1.6817069216095704e-01  1.6872032169884221e-01  1.6883041999921239e-01  1.6833318487446480e-01  1.6683420207381147e-01  1.6310712951315964e-01  1.5331003191747317e-01  1.2031040731661995e-01  1.5975402819201107e-01  1.5370804409939162e-01  7.9632960803730460e-02  8.2848836602963077e-02  8.7817478621072920e-02  9.4482643787358184e-02  1.0211157803895486e-01  1.0994832831632001e-01  1.1741611412870569e-01  1.241672321