<?xml version="1.0"?>
<VTKFile type="UnstructuredGrid"  version="0.1"  >
<UnstructuredGrid>
<Piece  NumberOfPoints="1681" NumberOfCells="3200">
<Points>
<DataArray  type="Float64"  NumberOfComponents="3"  format="ascii">0 0 0  0.025 0 0  0.05 0 0  0.075 0 0  0.1 0 0  0.125 0 0  0.15 0 0  0.175 0 0  0.2 0 0  0.225 0 0  0.25 0 0  0.275 0 0  0.3 0 0  0.325 0 0  0.35 0 0  0.375 0 0  0.4 0 0  0.425 0 0  0.45 0 0  0.475 0 0  0.5 0 0  0.525 0 0  0.55 0 0  0.575 0 0  0.6 0 0  0.625 0 0  0.65 0 0  0.675 0 0  0.7 0 0  0.725 0 0  0.75 0 0  0.775 0 0  0.8 0 0  0.825 0 0  0.85 0 0  0.875 0 0  0.9 0 0  0.925 0 0  0.95 0 0  0.975 0 0  1 0 0  0 0.025 0  0.025 0.025 0  0.05 0.025 0  0.075 0.025 0  0.1 0.025 0  0.125 0.025 0  0.15 0.025 0  0.175 0.025 0  0.2 0.025 0  0.225 0.025 0  0.25 0.025 0  0.275 0.025 0  0.3 0.025 0  0.325 0.025 0  0.35 0.025 0  0.375 0.025 0  0.4 0.025 0  0.425 0.025 0  0.45 0.025 0  0.475 0.025 0  0.5 0.025 0  0.525 0.025 0  0.55 0.025 0  0.575 0.025 0  0.6 0.025 0  0.625 0.025 0  0.65 0.025 0  0.675 0.025 0  0.7 0.025 0  0.725 0.025 0  0.75 0.025 0  0.775 0.025 0  0.8 0.025 0  0.825 0.025 0  0.85 0.025 0  0.875 0.025 0  0.9 0.025 0  0.925 0.025 0  0.95 0.025 0  0.975 0.025 0  1 0.025 0  0 0.05 0  0.025 0.05 0  0.05 0.05 0  0.075 0.05 0  0.1 0.05 0  0.125 0.05 0  0.15 0.05 0  0.175 0.05 0  0.2 0.05 0  0.225 0.05 0  0.25 0.05 0  0.275 0.05 0  0.3 0.05 0  0.325 0.05 0  0.35 0.05 0  0.375 0.05 0  0.4 0.05 0  0.425 0.05 0  0.45 0.05 0  0.475 0.05 0  0.5 0.05 0  0.525 0.05 0  0.55 0.05 0  0.575 0.05 0  0.6 0.05 0  0.625 0.05 0  0.65 0.05 0  0.675 0.05 0  0.7 0.05 0  0.725 0.05 0  0.75 0.05 0  0.775 0.05 0  0.8 0.05 0  0.825 0.05 0  0.85 0.05 0  0.875 0.05 0  0.9 0.05 0  0.925 0.05 0  0.95 0.05 0  0.975 0.05 0  1 0.05 0  0 0.075 0  0.025 0.075 0  0.05 0.075 0  0.075 0.075 0  0.1 0.075 0  0.125 0.075 0  0.15 0.075 0  0.175 0.075 0  0.2 0.075 0  0.225 0.075 0  0.25 0.075 0  0.275 0.075 0  0.3 0.075 0  0.325 0.075 0  0.35 0.075 0  0.375 0.075 0  0.4 0.075 0  0.425 0.075 0  0.45 0.075 0  0.475 0.075 0  0.5 0.075 0  0.525 0.075 0  0.55 0.075 0  0.575 0.075 0  0.6 0.075 0  0.625 0.075 0  0.65 0.075 0  0.675 0.075 0  0.7 0.075 0  0.725 0.075 0  0.75 0.075 0  0.775 0.075 0  0.8 0.075 0  0.825 0.075 0  0.85 0.075 0  0.875 0.075 0  0.9 0.075 0  0.925 0.075 0  0.95 0.075 0  0.975 0.075 0  1 0.075 0  0 0.1 0  0.025 0.1 0  0.05 0.1 0  0.075 0.1 0  0.1 0.1 0  0.125 0.1 0  0.15 0.1 0  0.175 0.1 0  0.2 0.1 0  0.225 0.1 0  0.25 0.1 0  0.275 0.1 0  0.3 0.1 0  0.325 0.1 0  0.35 0.1 0  0.375 0.1 0  0.4 0.1 0  0.425 0.1 0  0.45 0.1 0  0.475 0.1 0  0.5 0.1 0  0.525 0.1 0  0.55 0.1 0  0.575 0.1 0  0.6 0.1 0  0.625 0.1 0  0.65 0.1 0  0.675 0.1 0  0.7 0.1 0  0.725 0.1 0  0.75 0.1 0  0.775 0.1 0  0.8 0.1 0  0.825 0.1 0  0.85 0.1 0  0.875 0.1 0  0.9 0.1 0  0.925 0.1 0  0.95 0.1 0  0.975 0.1 0  1 0.1 0  0 0.125 0  0.025 0.125 0  0.05 0.125 0  0.075 0.125 0  0.1 0.125 0  0.125 0.125 0  0.15 0.125 0  0.175 0.125 0  0.2 0.125 0  0.225 0.125 0  0.25 0.125 0  0.275 0.125 0  0.3 0.125 0  0.325 0.125 0  0.35 0.125 0  0.375 0.125 0  0.4 0.125 0  0.425 0.125 0  0.45 0.125 0  0.475 0.125 0  0.5 0.125 0  0.525 0.125 0  0.55 0.125 0  0.575 0.125 0  0.6 0.125 0  0.625 0.125 0  0.65 0.125 0  0.675 0.125 0  0.7 0.125 0  0.725 0.125 0  0.75 0.125 0  0.775 0.125 0  0.8 0.125 0  0.825 0.125 0  0.85 0.125 0  0.875 0.125 0  0.9 0.125 0  0.925 0.125 0  0.95 0.125 0  0.975 0.125 0  1 0.125 0  0 0.15 0  0.025 0.15 0  0.05 0.15 0  0.075 0.15 0  0.1 0.15 0  0.125 0.15 0  0.15 0.15 0  0.175 0.15 0  0.2 0.15 0  0.225 0.15 0  0.25 0.15 0  0.275 0.15 0  0.3 0.15 0  0.325 0.15 0  0.35 0.15 0  0.375 0.15 0  0.4 0.15 0  0.425 0.15 0  0.45 0.15 0  0.475 0.15 0  0.5 0.15 0  0.525 0.15 0  0.55 0.15 0  0.575 0.15 0  0.6 0.15 0  0.625 0.15 0  0.65 0.15 0  0.675 0.15 0  0.7 0.15 0  0.725 0.15 0  0.75 0.15 0  0.775 0.15 0  0.8 0.15 0  0.825 0.15 0  0.85 0.15 0  0.875 0.15 0  0.9 0.15 0  0.925 0.15 0  0.95 0.15 0  0.975 0.15 0  1 0.15 0  0 0.175 0  0.025 0.175 0  0.05 0.175 0  0.075 0.175 0  0.1 0.175 0  0.125 0.175 0  0.15 0.175 0  0.175 0.175 0  0.2 0.175 0  0.225 0.175 0  0.25 0.175 0  0.275 0.175 0  0.3 0.175 0  0.325 0.175 0  0.35 0.175 0  0.375 0.175 0  0.4 0.175 0  0.425 0.175 0  0.45 0.175 0  0.475 0.175 0  0.5 0.175 0  0.525 0.175 0  0.55 0.175 0  0.575 0.175 0  0.6 0.175 0  0.625 0.175 0  0.65 0.175 0  0.675 0.175 0  0.7 0.175 0  0.725 0.175 0  0.75 0.175 0  0.775 0.175 0  0.8 0.175 0  0.825 0.175 0  0.85 0.175 0  0.875 0.175 0  0.9 0.175 0  0.925 0.175 0  0.95 0.175 0  0.975 0.175 0  1 0.175 0  0 0.2 0  0.025 0.2 0  0.05 0.2 0  0.075 0.2 0  0.1 0.2 0  0.125 0.2 0  0.15 0.2 0  0.175 0.2 0  0.2 0.2 0  0.225 0.2 0  0.25 0.2 0  0.275 0.2 0  0.3 0.2 0  0.325 0.2 0  0.35 0.2 0  0.375 0.2 0  0.4 0.2 0  0.425 0.2 0  0.45 0.2 0  0.475 0.2 0  0.5 0.2 0  0.525 0.2 0  0.55 0.2 0  0.575 0.2 0  0.6 0.2 0  0.625 0.2 0  0.65 0.2 0  0.675 0.2 0  0.7 0.2 0  0.725 0.2 0  0.75 0.2 0  0.775 0.2 0  0.8 0.2 0  0.825 0.2 0  0.85 0.2 0  0.875 0.2 0  0.9 0.2 0  0.925 0.2 0  0.95 0.2 0  0.975 0.2 0  1 0.2 0  0 0.225 0  0.025 0.225 0  0.05 0.225 0  0.075 0.225 0  0.1 0.225 0  0.125 0.225 0  0.15 0.225 0  0.175 0.225 0  0.2 0.225 0  0.225 0.225 0  0.25 0.225 0  0.275 0.225 0  0.3 0.225 0  0.325 0.225 0  0.35 0.225 0  0.375 0.225 0  0.4 0.225 0  0.425 0.225 0  0.45 0.225 0  0.475 0.225 0  0.5 0.225 0  0.525 0.225 0  0.55 0.225 0  0.575 0.225 0  0.6 0.225 0  0.625 0.225 0  0.65 0.225 0  0.675 0.225 0  0.7 0.225 0  0.725 0.225 0  0.75 0.225 0  0.775 0.225 0  0.8 0.225 0  0.825 0.225 0  0.85 0.225 0  0.875 0.225 0  0.9 0.225 0  0.925 0.225 0  0.95 0.225 0  0.975 0.225 0  1 0.225 0  0 0.25 0  0.025 0.25 0  0.05 0.25 0  0.075 0.25 0  0.1 0.25 0  0.125 0.25 0  0.15 0.25 0  0.175 0.25 0  0.2 0.25 0  0.225 0.25 0  0.25 0.25 0  0.275 0.25 0  0.3 0.25 0  0.325 0.25 0  0.35 0.25 0  0.375 0.25 0  0.4 0.25 0  0.425 0.25 0  0.45 0.25 0  0.475 0.25 0  0.5 0.25 0  0.525 0.25 0  0.55 0.25 0  0.575 0.25 0  0.6 0.25 0  0.625 0.25 0  0.65 0.25 0  0.675 0.25 0  0.7 0.25 0  0.725 0.25 0  0.75 0.25 0  0.775 0.25 0  0.8 0.25 0  0.825 0.25 0  0.85 0.25 0  0.875 0.25 0  0.9 0.25 0  0.925 0.25 0  0.95 0.25 0  0.975 0.25 0  1 0.25 0  0 0.275 0  0.025 0.275 0  0.05 0.275 0  0.075 0.275 0  0.1 0.275 0  0.125 0.275 0  0.15 0.275 0  0.175 0.275 0  0.2 0.275 0  0.225 0.275 0  0.25 0.275 0  0.275 0.275 0  0.3 0.275 0  0.325 0.275 0  0.35 0.275 0  0.375 0.275 0  0.4 0.275 0  0.425 0.275 0  0.45 0.275 0  0.475 0.275 0  0.5 0.275 0  0.525 0.275 0  0.55 0.275 0  0.575 0.275 0  0.6 0.275 0  0.625 0.275 0  0.65 0.275 0  0.675 0.275 0  0.7 0.275 0  0.725 0.275 0  0.75 0.275 0  0.775 0.275 0  0.8 0.275 0  0.825 0.275 0  0.85 0.275 0  0.875 0.275 0  0.9 0.275 0  0.925 0.275 0  0.95 0.275 0  0.975 0.275 0  1 0.275 0  0 0.3 0  0.025 0.3 0  0.05 0.3 0  0.075 0.3 0  0.1 0.3 0  0.125 0.3 0  0.15 0.3 0  0.175 0.3 0  0.2 0.3 0  0.225 0.3 0  0.25 0.3 0  0.275 0.3 0  0.3 0.3 0  0.325 0.3 0  0.35 0.3 0  0.375 0.3 0  0.4 0.3 0  0.425 0.3 0  0.45 0.3 0  0.475 0.3 0  0.5 0.3 0  0.525 0.3 0  0.55 0.3 0  0.575 0.3 0  0.6 0.3 0  0.625 0.3 0  0.65 0.3 0  0.675 0.3 0  0.7 0.3 0  0.725 0.3 0  0.75 0.3 0  0.775 0.3 0  0.8 0.3 0  0.825 0.3 0  0.85 0.3 0  0.875 0.3 0  0.9 0.3 0  0.925 0.3 0  0.95 0.3 0  0.975 0.3 0  1 0.3 0  0 0.325 0  0.025 0.325 0  0.05 0.325 0  0.075 0.325 0  0.1 0.325 0  0.125 0.325 0  0.15 0.325 0  0.175 0.325 0  0.2 0.325 0  0.225 0.325 0  0.25 0.325 0  0.275 0.325 0  0.3 0.325 0  0.325 0.325 0  0.35 0.325 0  0.375 0.325 0  0.4 0.325 0  0.425 0.325 0  0.45 0.325 0  0.475 0.325 0  0.5 0.325 0  0.525 0.325 0  0.55 0.325 0  0.575 0.325 0  0.6 0.325 0  0.625 0.325 0  0.65 0.325 0  0.675 0.325 0  0.7 0.325 0  0.725 0.325 0  0.75 0.325 0  0.775 0.325 0  0.8 0.325 0  0.825 0.325 0  0.85 0.325 0  0.875 0.325 0  0.9 0.325 0  0.925 0.325 0  0.95 0.325 0  0.975 0.325 0  1 0.325 0  0 0.35 0  0.025 0.35 0  0.05 0.35 0  0.075 0.35 0  0.1 0.35 0  0.125 0.35 0  0.15 0.35 0  0.175 0.35 0  0.2 0.35 0  0.225 0.35 0  0.25 0.35 0  0.275 0.35 0  0.3 0.35 0  0.325 0.35 0  0.35 0.35 0  0.375 0.35 0  0.4 0.35 0  0.425 0.35 0  0.45 0.35 0  0.475 0.35 0  0.5 0.35 0  0.525 0.35 0  0.55 0.35 0  0.575 0.35 0  0.6 0.35 0  0.625 0.35 0  0.65 0.35 0  0.675 0.35 0  0.7 0.35 0  0.725 0.35 0  0.75 0.35 0  0.775 0.35 0  0.8 0.35 0  0.825 0.35 0  0.85 0.35 0  0.875 0.35 0  0.9 0.35 0  0.925 0.35 0  0.95 0.35 0  0.975 0.35 0  1 0.35 0  0 0.375 0  0.025 0.375 0  0.05 0.375 0  0.075 0.375 0  0.1 0.375 0  0.125 0.375 0  0.15 0.375 0  0.175 0.375 0  0.2 0.375 0  0.225 0.375 0  0.25 0.375 0  0.275 0.375 0  0.3 0.375 0  0.325 0.375 0  0.35 0.375 0  0.375 0.375 0  0.4 0.375 0  0.425 0.375 0  0.45 0.375 0  0.475 0.375 0  0.5 0.375 0  0.525 0.375 0  0.55 0.375 0  0.575 0.375 0  0.6 0.375 0  0.625 0.375 0  0.65 0.375 0  0.675 0.375 0  0.7 0.375 0  0.725 0.375 0  0.75 0.375 0  0.775 0.375 0  0.8 0.375 0  0.825 0.375 0  0.85 0.375 0  0.875 0.375 0  0.9 0.375 0  0.925 0.375 0  0.95 0.375 0  0.975 0.375 0  1 0.375 0  0 0.4 0  0.025 0.4 0  0.05 0.4 0  0.075 0.4 0  0.1 0.4 0  0.125 0.4 0  0.15 0.4 0  0.175 0.4 0  0.2 0.4 0  0.225 0.4 0  0.25 0.4 0  0.275 0.4 0  0.3 0.4 0  0.325 0.4 0  0.35 0.4 0  0.375 0.4 0  0.4 0.4 0  0.425 0.4 0  0.45 0.4 0  0.475 0.4 0  0.5 0.4 0  0.525 0.4 0  0.55 0.4 0  0.575 0.4 0  0.6 0.4 0  0.625 0.4 0  0.65 0.4 0  0.675 0.4 0  0.7 0.4 0  0.725 0.4 0  0.75 0.4 0  0.775 0.4 0  0.8 0.4 0  0.825 0.4 0  0.85 0.4 0  0.875 0.4 0  0.9 0.4 0  0.925 0.4 0  0.95 0.4 0  0.975 0.4 0  1 0.4 0  0 0.425 0  0.025 0.425 0  0.05 0.425 0  0.075 0.425 0  0.1 0.425 0  0.125 0.425 0  0.15 0.425 0  0.175 0.425 0  0.2 0.425 0  0.225 0.425 0  0.25 0.425 0  0.275 0.425 0  0.3 0.425 0  0.325 0.425 0  0.35 0.425 0  0.375 0.425 0  0.4 0.425 0  0.425 0.425 0  0.45 0.425 0  0.475 0.425 0  0.5 0.425 0  0.525 0.425 0  0.55 0.425 0  0.575 0.425 0  0.6 0.425 0  0.625 0.425 0  0.65 0.425 0  0.675 0.425 0  0.7 0.425 0  0.725 0.425 0  0.75 0.425 0  0.775 0.425 0  0.8 0.425 0  0.825 0.425 0  0.85 0.425 0  0.875 0.425 0  0.9 0.425 0  0.925 0.425 0  0.95 0.425 0  0.975 0.425 0  1 0.425 0  0 0.45 0  0.02
[...]
<PointData  Scalars="ControlVisualisation"> 
<DataArray  type="Float64"  Name="ControlVisualisation"  format="ascii">4.1122738269722586e-01  4.0453734873992869e-01  4.0454787166462464e-01  4.0460093634115246e-01  4.0469434151070904e-01  4.0480776903734711e-01  4.0492098029757295e-01  4.0502095361492924e-01  4.0510221673483970e-01  4.0516448177870690e-01  4.0521013068591327e-01  4.0524245053747587e-01  4.0526466614122941e-01  4.0527952672983342e-01  4.0528920245047201e-01  4.0529532463914958e-01  4.0529907641206786e-01  4.0530128799959475e-01  4.0530251791701449e-01  4.0530311412062092e-01  4.0530325477597973e-01  4.0530296988969094e-01  4.0530214488862087e-01  4.0530050634056497e-01  4.0529758901115037e-01  4.0529268288941883e-01  4.0528475949898424e-01  4.0527238038904978e-01  4.0525359993393778e-01  4.0522589483187327e-01  4.0518619146118190e-01  4.0513112163304960e-01  4.0505773042663268e-01  4.0496488788531076e-01  4.0485553504084887e-01  4.0473941695783244e-01  4.0463421498151886e-01  4.0456190253087160e-01  4.0453558556247399e-01  4.0453954032847089e-01  4.1791450080132081e-01  4.0453669619974053e-01  3.8453130681544800e-01  3.8481325591894883e-01  3.8547651409482697e-01  3.8650701429404544e-01  3.8773059730722204e-01  3.8895316820182946e-01  3.9004306111719123e-01  3.9094127811925750e-01  3.9164125594636867e-01  3.9216474466631535e-01  3.9254407785103534e-01  3.9281202592955983e-01  3.9299717263068601e-01  3.9312251503499479e-01  3.9320564118260576e-01  3.9325951885596289e-01  3.9329340201092494e-01  3.9331363602262920e-01  3.9332428371001066e-01  3.9332755721908647e-01  3.9332406297580719e-01  3.9331286915145208e-01  3.9329139876721847e-01  3.9325514317844479e-01  3.9319718545567089e-01  3.9310752820048755e-01  3.9297224883674864e-01  3.9277258009409233e-01  3.9248417867211161e-01  3.9207715286024786e-01  3.9151794262083195e-01  3.9077490121607344e-01  3.8982986777200967e-01  3.8869782180006318e-01  3.8745195039288266e-01  3.8623995154370194e-01  3.8526412592914622e-01  3.8468244329159784e-01  3.8448255693039229e-01  4.0453943907370465e-01  4.0454232750037117e-01  3.8482381003595656e-01  3.8590189484155690e-01  3.8767404917189724e-01  3.9005928359513570e-01  3.9274863760825640e-01  3.9537818057089430e-01  3.9769938359270157e-01  3.9960554109788082e-01  4.0109187052106632e-01  4.0220744056381075e-01  4.0302061191314970e-01  4.0359956496617555e-01  4.0400353563468572e-01  4.0428023418495090e-01  4.0446628130157369e-01  4.0458881504924338e-01  4.0466732188267451e-01  4.0471526732521645e-01  4.0474137204221200e-01  4.0475050191091066e-01  4.0474418505328713e-01  4.0472077436324982e-01  4.0467526252937946e-01  4.0459874027520565e-01  4.0447747718308891e-01  4.0429161051488027e-01  4.0401347363283274e-01  4.0360572128185057e-01  4.0301969111858987e-01  4.0219496968184559e-01  4.0106209728353204e-01  3.9955166643037154e-01  3.9761448396330262e-01  3.9525781351296396e-01  3.9259366099486021e-01  3.8987928890590318e-01  3.8748346565468383e-01  3.8570532320903306e-01  3.8467693999604458e-01  4.0453320442796031e-01  4.0458908216845690e-01  3.8564558066730720e-01  3.8816038172314449e-01  3.9110717133316075e-01  3.9433370912709448e-01  3.9764113242977650e-01  4.0072187394762004e-01  4.0336409104224391e-01  4.0549324921207963e-01  4.0713198852176491e-01  4.0835041481496537e-01  4.0923206128574452e-01  4.0985577859712041e-01  4.1028828640393133e-01  4.1058257264354803e-01  4.1077899864376310e-01  4.1090735481644075e-01  4.1098899585827314e-01  4.1103868055317627e-01  4.1106599161450591e-01  4.1107632172321990e-01  4.1107144901958775e-01  4.1104972619007962e-01  4.1100589215515820e-01  4.1093049553940070e-01  4.1080890320988289e-01  4.1061986627509695e-01  4.1033365018118700e-01  4.0990984007471865e-01  4.0929518063485804e-01  4.0842228444768047e-01  4.0721098675816098e-01  4.0557537256910581e-01  4.0344174434909275e-01  4.0078259966357183e-01  3.9766541280389012e-01  3.9429700069161860e-01  3.9096353444210313e-01  3.8786385060744039e-01  3.8531907658639758e-01  4.0455068757344459e-01  4.0470412210399581e-01  3.8740357230980449e-01  3.9266545099508515e-01  3.9703097785098607e-01  4.0050085878224367e-01  4.0347826247121099e-01  4.0602668866508906e-01  4.0811330438501880e-01  4.0974378046694010e-01  4.1096911882503295e-01  4.1186116848402793e-01  4.1249325896693001e-01  4.1293026443597269e-01  4.1322523475943695e-01  4.1341946478268443e-01  4.1354401643560590e-01  4.1362162842112576e-01  4.1366851225654555e-01  4.1369583739830318e-01  4.1371085552015591e-01  4.1371767529822345e-01  4.1371771576323524e-01  4.1370986132284654e-01  4.1369032704832182e-01  4.1365222540344554e-01  4.1358481012036263e-01  4.1347236565459261e-01  4.1329272279975438e-01  4.1301543306514477e-01  4.1259977141788279e-01  4.1199300134102734e-01  4.1112992950760979e-01  4.0993544748331523e-01  4.0833356689885325e-01  4.0626365924938451e-01  4.0370275952432821e-01  4.0064899755109351e-01  3.9696726298596807e-01  3.9223322692549883e-01  3.8681123814782908e-01  4.0462005621844599e-01  4.0491894080545143e-01  3.9154644415200579e-01  4.0196463851535952e-01  4.0775260917520317e-01  4.1021180256755813e-01  4.1152081244971711e-01  4.1245334621401147e-01  4.1317969118579140e-01  4.1373276741691017e-01  4.1413357899318237e-01  4.1440867089064626e-01  4.1458637868660930e-01  4.1469264334072647e-01  4.1474912012211274e-01  4.1477285983034495e-01  4.1477675528922536e-01  4.1477025313898797e-01  4.1476007773122492e-01  4.1475085578919774e-01  4.1474560342750061e-01  4.1474607039742295e-01  4.1475294834092180e-01  4.1476595092555663e-01  4.1478376984643611e-01  4.1480390531811495e-01  4.1482236548705853e-01  4.1483322947201218e-01  4.1482807847137176e-01  4.1479532832931498e-01  4.1471956176297559e-01  4.1458107004083139e-01  4.1435607611258135e-01  4.1401809959362573e-01  4.1354129748459084e-01  4.1289936286127887e-01  4.1204130599066413e-01  4.1071512500805452e-01  4.0795441454373510e-01  4.0126300358967676e-01  3.8993022028917934e-01  4.0472736411603538e-01  4.0725261604254703e-01  4.0446717319097641e-01  4.2240826210405846e-01  4.2670854227902527e-01  4.2495980147944840e-01  4.2239080429595777e-01  4.2034876995336312e-01  4.1890442620395801e-01  4.1789557006545819e-01  4.1717768197141075e-01  4.1665354676454730e-01  4.1626152249228432e-01  4.1596264191150439e-01  4.1573189754758755e-01  4.1555290674814849e-01  4.1541471882381864e-01  4.1530990242829191e-01  4.1523339358014655e-01  4.1518179977002662e-01  4.1515298359015945e-01  4.1514582458945698e-01  4.1516010332052522e-01  4.1519648037821599e-01  4.1525656402046401e-01  4.1534307863763537e-01  4.1546016806804137e-01  4.1561389865218473e-01  4.1581307580300048e-01  4.1607056992255420e-01  4.1640548361896407e-01  4.1684672530150435e-01  4.1743893159036538e-01  4.1825189000079771e-01  4.1939474925167863e-01  4.2102571753286505e-01  4.2331714605940896e-01  4.2613779472034297e-01  4.2791837254373205e-01  4.2259416217321710e-01  4.0150963222980413e-01  4.0537436971099350e-01  4.3377498955954635e-01  4.4890634287471270e-01  4.6345708245349682e-01  4.5640014339614121e-01  4.4488938004540707e-01  4.3562969273936247e-01  4.2923518513844061e-01  4.2495478355166461e-01  4.2206551369894751e-01  4.2007883323834999e-01  4.1868672279839431e-01  4.1769514807436686e-01  4.1697960948193258e-01  4.1645845822386762e-01  4.1607709420972039e-01  4.1579846041356522e-01  4.1559719723535249e-01  4.1545597653198346e-01  4.1536317593386052e-01  4.1531141047981879e-01  4.1529664162715124e-01  4.1531770504510968e-01  4.1537617702850665e-01  4.1547655734162531e-01  4.1562679876736763e-01  4.1583927368626034e-01  4.1613235131384474e-01  4.1653289022063805e-01  4.1708017202379166e-01  4.1783219092300700e-01  4.1887592727469747e-01  4.2034447931910751e-01  4.2244609051199700e-01  4.2551295809846273e-01  4.3007182265399585e-01  4.3690296311319204e-01  4.4677157105045762e-01  4.5887797651590700e-01  4.6616251922084601e-01  4.5377276273955103e-01  4.1948796894003321e-01  5.0480787953989170e-01  5.4289407265145673e-01  5.2280685773875057e-01  4.9280014818096524e-01  4.6699613023711523e-01  4.4922346092970133e-01  4.3781954562342473e-01  4.3051928621488861e-01  4.2574667308734704e-01  4.2254831496137896e-01  4.2035690544110743e-01  4.1882826092563680e-01  4.1774728027147906e-01  4.1697557198549612e-01  4.1642189097245114e-01  4.1602496349313539e-01  4.1574319671063709e-01  4.1554834474609426e-01  4.1542154048701047e-01  4.1535080811986230e-01  4.1532955669311750e-01  4.1535577660048639e-01  4.1543179922763268e-01  4.1556457942036434e-01  4.1576654911186223e-01  4.1605719228054844e-01  4.1646563564011080e-01  4.1703478293713864e-01  4.1782792899957710e-01  4.1893954097237251e-01  4.2051332071284248e-01  4.2277338696992173e-01  4.2607974594107956e-01  4.3102764614135508e-01  4.3861874868703898e-01  4.5050200407131424e-01  4.6894328199126989e-01  4.9516010939625271e-01  5.2337076162473095e-01  5.5384589009620888e-01  4.8539203726815122e-01  5.5773919007913986e-01  6.1964112853986864e-01  5.7114749001409926e-01  5.2345490634847103e-01  4.8508811705681409e-01  4.5988957592973728e-01  4.4428735150353227e-01  4.3455763153963139e-01  4.2832652289057260e-01  4.2421980366018941e-01  4.2144511199690043e-01  4.1953323521804869e-01  4.1819643661928479e-01  4.1725231032086757e-01  4.1658193770840035e-01  4.1610613081956549e-01  4.1577146810846494e-01  4.1554182999479844e-01  4.1539315712021468e-01  4.1531019057476121e-01  4.1528450599850392e-01  4.1531346366921806e-01  4.1539988577097747e-01  4.1555240492986345e-01  4.1578654511558683e-01  4.1612673058803112e-01  4.1660961176540373e-01  4.1728941547094311e-01  4.1824659610763643e-01  4.1960213409487690e-01  4.2154190234315542e-01  4.2435965082792687e-01  4.2853532904555347e-01  4.3488009589371546e-01  4.4480153133332512e-01  4.6071753394952775e-01  4.8631019040039597e-01  5.2472685176420475e-01  5.6931761047123386e-01  6.2304372001895292e-01  5.5195320963891670e-01  5.7280755753848156e-01  6.4204637244443052e-01  5.8779202356384941e-01  5.3633387359237017e-01  4.9291440010374510e-01  4.6446635771114458e-01  4.4698221251835235e-01  4.3616647909651118e-01  4.2929232906330350e-01  4.2479207828733562e-01  4.2177001980918033e-01  4.1969971564367964e-01  4.1826041797170438e-01  4.1724983412927175e-01  4.1653658048786307e-01  4.1603340394833521e-01  4.1568154794263740e-01  4.1544132857859084e-01  4.1528632242984637e-01  4.1519976084353666e-01  4.1517235678158160e-01  4.1520114120814727e-01  4.1528909780726814e-01  4.1544553204049295e-01  4.1568723904549582e-01  4.1604068223331275e-01  4.1654560649805394e-01  4.1726086149223779e-01  4.1827384244697352e-01  4.1971615062041656e-01  4.2179041213719559e-01  4.2481788027763379e-01  4.2932572506686267e-01  4.3621055386638791e-01  4.4704054577061553e-01  4.6453985896544292e-01  4.9298923277771051e-01  5.3636173140200993e-01  5.8772721262877881e-01  6.4203309827757171e-01  5.7290361246177668e-01  5.5189811774236308e-01  6.2389406164437322e-01  5.7143675464509802e-01  5.2683474962831500e-01  4.8773981433993885e-01  4.6150751072242169e-01  4.4514676370671447e-01  4.3494067854593566e-01  4.2841866150323282e-01  4.2413507987928167e-01  4.2125442236521859e-01  4.1928117655416552e-01  4.1791133581266554e-01  4.1695203408239528e-01  4.1627739438630312e-01  4.1580348026610492e-01  4.1547357944168634e-01  4.1524928339284362e-01  4.1510495707236189e-01  4.1502429168457855e-01  4.1499821740510134e-01  4.1502377923895745e-01  4.1510377674969773e-01  4.1524710578264379e-01  4.1546985976971718e-01  4.1579738411235118e-01  4.1626767095365774e-01  4.1693680038067071e-01  4.1788770275937176e-01  4.1924458354266292e-01  4.2119742329428544e-01  4.2404506492676142e-01  4.2827345276451034e-01  4.3470061781659963e-01  4.4473922039191710e-01  4.6081125556498431e-01  4.8665414054977418e-01  5.2563835583997354e-01  5.7323332883855438e-01  6.2044533067292928e-01  5.5775368624532407e-01  4.8569143181172003e-01  5.5624548727039458e-01  5.2746233481082960e-01  4.9897708895404586e-01  4.7155792725203538e-01  4.5197598816547724e-01  4.3927347149330742e-01  4.3114369334525821e-01  4.2585385021376315e-01  4.2233680857842643e-01  4.1995316156257417e-01  4.1831355621675798e-01  4.1717399426520069e-01  4.1637697539503243e-01  4.1581827524862514e-01  4.1542763380824149e-01  4.1515717686433884e-01  4.1497427096261380e-01  4.1485702525762014e-01  4.1479145140419782e-01  4.1476972542282259e-01  4.1478924218229957e-01  4.1485230510126148e-01  4.1496640074929120e-01  4.1514510125754883e-01  4.1540974212539034e-01  4.1579216908567085e-01  4.1633908247388784e-01  4.1711891708556637e-01  4.1823294623792889e-01  4.1983371820443149e-01  4.2215664733654162e-01  4.2557567734002250e-01  4.3070234339168340e-01  4.3855426821045518e-01  4.5078722823067879e-01  4.6970121810287629e-01  4.9671188679664108e-01  5.2705225027046498e-01  5.4528779452625353e-01  5.0496400989315471e-01  4.1996947471271268e-01  4.5732287931675886e-01  4.7146151627168575e-01  4.6359298633811180e-01  4.5001784099604358e-01  4.3874724222972727e-01  4.3086930306900023e-01  4.2559776920822412e-01  4.2206775229458399e-01  4.1967770358758777e-01  4.1804059013970901e-01  4.1690940702889412e-01  4.1612360780740448e-01  4.1557659454812917e-01  4.1519626809098709e-01  4.1493320583072357e-01  4.1475330836679236e-01  4.1463311565349709e-01  4.1455677972886451e-01  4.1451411178927744e-01  4.1449936618894484e-01  4.1451056879087389e-01  4.1454928946492858e-01  4.1462082545285478e-01  4.1473482101163989e-01  4.1490641340195927e-01  4.1515808226728868e-01  4.1552251362155757e-01  4.1604701421989360e-01  4.1680040599641227e-01  4.1788403589912770e-01  4.1944978719066001e-01  4.2172999867623528e-01  4.2508619611063952e-01  4.3007870186340430e-01  4.3751036153391487e-01  4.4815268009764203e-01  4.6112985655602112e-01  4.6879747650351367e-01  4.5239247689319562e-01  4.3422279561628030e-01  4.0568504719846227e-01  4.0447054367856633e-01  4.2762416206401382e-01  4.3256803564722901e-01  4.2941882268890674e-01  4.2519222136344142e-01  4.2178625414736504e-01  4.1936273298058424e-01  4.1769178841121629e-01  4.1654820740021437e-01  4.1576656699795073e-01  4.1523359267611742e-01  4.1487199456457002e-01  4.1462868408686188e-01  4.1446685380389336e-01  4.1436082785472939e-01  4.1429267758902577e-01  4.1424996779949591e-01  4.1422424674826303e-01  4.1421004315925114e-01  4.1420422655007666e-01  4.1420564557012146e-01  4.1421499838724851e-01  4.1423491894646375e-01  4.1427028939391852e-01  4.1432881744063238e-01  4.1442195384918512e-01  4.1456627811524754e-01  4.1478556362181279e-01  4.1511386933710526e-01  4.1560022539791164e-01  4.1631579966779314e-01  4.1736466749178841e-01  4.1889818808459606e-01  4.2112417459907781e-01  4.2425812311986688e-01  4.2819938448459638e-01  4.3128813824330398e-01  4.2736178132012892e-01  4.0746878526614183e-01  4.0765689886643008e-01  4.0493949579362243e-01  3.9202932611124142e-01  4.0524732931093554e-01  4.1190218420995062e-01  4.1360672279093330e-01  4.1370262847012340e-01  4.1351442838381020e-01  4.1338105149273546e-01  4.1333361878911934e-01  4.1334861285501140e-01  4.1340033064030068e-01  4.1347075613230949e-01  4.1354809835761719e-01  4.1362485964085477e-01  4.1369628773279055e-01  4.1375939200593403e-01  4.1381230647040779e-01  4.1385387710968297e-01  4.1388338983647627e-01  4.1390039000968532e-01  4.1390456481785631e-01  4.1389567177606013e-01  4.1387350424091218e-01  4.1383789026962026e-01  4.1378872588883903e-01  4.1372604917690586e-01  4.1365016908450586e-01  4.1356187514793313e-01  4.1346277548318006e-01  4.1335584763636418e-01  4.1324634839413132e-01  4.1314330068700539e-01  4.1306170879918575e-01  4.1302460299442306e-01  4.1305808888340340e-01  4.1314758997124235e-01  4.1304216621465795e-01  4.1163206452044554e-01  4.0593534317030555e-01  3.9376881052357565e-01  4.0516903544969790e-01  4.0478351341667995e-01  3.8838366213514708e-01  3.9524923896958503e-01  4.0006975384146798e-01  4.0301643402419313e-01  4.0512094394109971e-01  4.0683331355979202e-01  4.0826600729678619e-01  4.0944980915538498e-01  4.1041175996094981e-01  4.1118292059322575e-01  4.1179551933168113e-01  4.1227892067775546e-01  4.1265807653906095e-01  4.1295322540884311e-01  4.1318028062208190e-01  4.1335143031479887e-01  4.1347574757640654e-01  4.1355971435788275e-01  4.1360762710743260e-01  4.1362187816031670e-01  4.1360311645866005e-01  4.1355029222231493e-01  4.1346058755125337e-01  4.1332923151085649e-01  4.1314919641442188e-01  4.1291077492199896e-01  4.1260105063878083e-01  4.1220330796662008e-01  4.1169649870596975e-01  4.1105502325450372e-01  4.1024933311031514e-01  4.0924821892379837e-01  4.0802375181605094e-01  4.0655783740808393e-01  4.0483844243983863e-01  4.0279658146105307e-01  4.0007313593706623e-01  3.9568082715574243e-01  3.8905732559173706e-01  4.0489725882520844e-01  4.0466125631067767e-01  3.8641367759734080e-01  3.9002912858282140e-01  3.9334244395509527e-01  3.9634512209361333e-01  3.9922202877544277e-01  4.0190979768824664e-01  4.0429178254344128e-01  4.0631150906317764e-01  4.0796956284953073e-01  4.0930059210022141e-01  4.1035276809729271e-01  4.1117527377140717e-01  4.1181240474675118e-01  4.1230135680802588e-01  4.1267200062241494e-01  4.1294751208416813e-01  4.1314528183400828e-01  4.1327780666863750e-01  4.1335343053376045e-01  4.1337688285276136e-01  4.1334959923193704e-01  4.1326982315123789e-01  4.1313248995921392e-01  4.1292889433155977e-01  4.1264614616571982e-01  4.1226643602178548e-01  4.1176617235305557e-01  4.1111514035753793e-01  4.1027600131717712e-01  4.0920475257457994e-01  4.0785327288888445e-01  4.0617580265387132e-01  4.0414190131786759e-01  4.0175781797373417e-01  3.9909167784942812e-01  3.9627500384817538e-01  3.9340943750545709e-01  3.9032615536192466e-01  3.8682787145286185e-01  4.0473013562150795e-01  4.0458942294712752e-01  3.8532412114732911e-01  3.8718743217504448e-01  3.8952839863480992e-01  3.9233839484318084e-01  3.9546426976642357e-01  3.9860420193079021e-01  4.0150863766095662e-01  4.0404097300538666e-01  4.0615893644177165e-01  4.0787982104007781e-01  4.0924972433359302e-01  4.1032397570805551e-01  4.1115633692864567e-01  4.1179399564928476e-01  4.1227591801913588e-01  4.1263289492602800e-01  4.1288831630740153e-01  4.1305913512742115e-01  4.1315674990692181e-01  4.1318767924409894e-01  4.1315397643060320e-01  4.1305336645542440e-01  4.1287910231338759e-01  4.1261954652606037e-01  4.1225749935131922e-01  4.1176933149013406e-01  4.1112405640972882e-01  4.1028262723177450e-01  4.0919800848100479e-01  4.0781701001841181e-01  4.0608551997746950e-01  4.0395953972982096e-01  4.0142492597999940e-01  3.9852747832587371e-01  3.9540838973342118e-01  3.9232192488257850e-01  3.8957782790909479e-01  3.8734689864838939e-01  3.8554417143751590e-01  4.0462947734657295e-01  4.0455286258298456e-01  3.8475913378028803e-01  3.8571652548885454e-01  3.8753968220605833e-01  3.9019938235039708e-01  3.9338777767127864e-01  3.9671455511914611e-01  3.9987060448222045e-01  4.0267281091575496e-01  4.0504800065283891e-01  4.0699620836553790e-01  4.0855691459830690e-01  4.0978556341541816e-01  4.1073948967236523e-01  4.1147076941537764e-01  4.1202331947694137e-01  4.1243232311021838e-01  4.1272475605618913e-01  4.1292029835579142e-01  4.1303225028116886e-01  4.1306826273851149e-01  4.1303079676634857e-01  4.1291727858389837e-01  4.1271994223847913e-01  4.1242536960052462e-01  4.1201376356750019e-01  4.1145804331757702e-01  4.1072295593143837e-01  4.0976459335432774e-01  4.0853103254456224e-01  4.0696533169072269e-01  4.0501279055925377e-01  4.0263504414832829e-01  3.9983360262977330e-01  3.9668308418871823e-01  3.9336749568810414e-01  3.9019773000021851e-01  3.8756677484988222e-01  3.8578885135573826e-01  3.8485810463339076e-01  4.0457158973907065e-01  4.0454707794421868e-01  3.8461228191649821e-01  3.8528116320245848e-01  3.8692964735825530e-01  3.8952709043737022e-01  3.9271945037149925e-01  3.9609287474929850e-01  3.9932090370828066e-01  4.022060504