<?xml version="1.0"?>
<VTKFile type="UnstructuredGrid"  version="0.1"  >
<UnstructuredGrid>
<Piece  NumberOfPoints="1681" NumberOfCells="3200">
<Points>
<DataArray  type="Float64"  NumberOfComponents="3"  format="ascii">0 0 0  0.025 0 0  0.05 0 0  0.075 0 0  0.1 0 0  0.125 0 0  0.15 0 0  0.175 0 0  0.2 0 0  0.225 0 0  0.25 0 0  0.275 0 0  0.3 0 0  0.325 0 0  0.35 0 0  0.375 0 0  0.4 0 0  0.425 0 0  0.45 0 0  0.475 0 0  0.5 0 0  0.525 0 0  0.55 0 0  0.575 0 0  0.6 0 0  0.625 0 0  0.65 0 0  0.675 0 0  0.7 0 0  0.725 0 0  0.75 0 0  0.775 0 0  0.8 0 0  0.825 0 0  0.85 0 0  0.875 0 0  0.9 0 0  0.925 0 0  0.95 0 0  0.975 0 0  1 0 0  0 0.025 0  0.025 0.025 0  0.05 0.025 0  0.075 0.025 0  0.1 0.025 0  0.125 0.025 0  0.15 0.025 0  0.175 0.025 0  0.2 0.025 0  0.225 0.025 0  0.25 0.025 0  0.275 0.025 0  0.3 0.025 0  0.325 0.025 0  0.35 0.025 0  0.375 0.025 0  0.4 0.025 0  0.425 0.025 0  0.45 0.025 0  0.475 0.025 0  0.5 0.025 0  0.525 0.025 0  0.55 0.025 0  0.575 0.025 0  0.6 0.025 0  0.625 0.025 0  0.65 0.025 0  0.675 0.025 0  0.7 0.025 0  0.725 0.025 0  0.75 0.025 0  0.775 0.025 0  0.8 0.025 0  0.825 0.025 0  0.85 0.025 0  0.875 0.025 0  0.9 0.025 0  0.925 0.025 0  0.95 0.025 0  0.975 0.025 0  1 0.025 0  0 0.05 0  0.025 0.05 0  0.05 0.05 0  0.075 0.05 0  0.1 0.05 0  0.125 0.05 0  0.15 0.05 0  0.175 0.05 0  0.2 0.05 0  0.225 0.05 0  0.25 0.05 0  0.275 0.05 0  0.3 0.05 0  0.325 0.05 0  0.35 0.05 0  0.375 0.05 0  0.4 0.05 0  0.425 0.05 0  0.45 0.05 0  0.475 0.05 0  0.5 0.05 0  0.525 0.05 0  0.55 0.05 0  0.575 0.05 0  0.6 0.05 0  0.625 0.05 0  0.65 0.05 0  0.675 0.05 0  0.7 0.05 0  0.725 0.05 0  0.75 0.05 0  0.775 0.05 0  0.8 0.05 0  0.825 0.05 0  0.85 0.05 0  0.875 0.05 0  0.9 0.05 0  0.925 0.05 0  0.95 0.05 0  0.975 0.05 0  1 0.05 0  0 0.075 0  0.025 0.075 0  0.05 0.075 0  0.075 0.075 0  0.1 0.075 0  0.125 0.075 0  0.15 0.075 0  0.175 0.075 0  0.2 0.075 0  0.225 0.075 0  0.25 0.075 0  0.275 0.075 0  0.3 0.075 0  0.325 0.075 0  0.35 0.075 0  0.375 0.075 0  0.4 0.075 0  0.425 0.075 0  0.45 0.075 0  0.475 0.075 0  0.5 0.075 0  0.525 0.075 0  0.55 0.075 0  0.575 0.075 0  0.6 0.075 0  0.625 0.075 0  0.65 0.075 0  0.675 0.075 0  0.7 0.075 0  0.725 0.075 0  0.75 0.075 0  0.775 0.075 0  0.8 0.075 0  0.825 0.075 0  0.85 0.075 0  0.875 0.075 0  0.9 0.075 0  0.925 0.075 0  0.95 0.075 0  0.975 0.075 0  1 0.075 0  0 0.1 0  0.025 0.1 0  0.05 0.1 0  0.075 0.1 0  0.1 0.1 0  0.125 0.1 0  0.15 0.1 0  0.175 0.1 0  0.2 0.1 0  0.225 0.1 0  0.25 0.1 0  0.275 0.1 0  0.3 0.1 0  0.325 0.1 0  0.35 0.1 0  0.375 0.1 0  0.4 0.1 0  0.425 0.1 0  0.45 0.1 0  0.475 0.1 0  0.5 0.1 0  0.525 0.1 0  0.55 0.1 0  0.575 0.1 0  0.6 0.1 0  0.625 0.1 0  0.65 0.1 0  0.675 0.1 0  0.7 0.1 0  0.725 0.1 0  0.75 0.1 0  0.775 0.1 0  0.8 0.1 0  0.825 0.1 0  0.85 0.1 0  0.875 0.1 0  0.9 0.1 0  0.925 0.1 0  0.95 0.1 0  0.975 0.1 0  1 0.1 0  0 0.125 0  0.025 0.125 0  0.05 0.125 0  0.075 0.125 0  0.1 0.125 0  0.125 0.125 0  0.15 0.125 0  0.175 0.125 0  0.2 0.125 0  0.225 0.125 0  0.25 0.125 0  0.275 0.125 0  0.3 0.125 0  0.325 0.125 0  0.35 0.125 0  0.375 0.125 0  0.4 0.125 0  0.425 0.125 0  0.45 0.125 0  0.475 0.125 0  0.5 0.125 0  0.525 0.125 0  0.55 0.125 0  0.575 0.125 0  0.6 0.125 0  0.625 0.125 0  0.65 0.125 0  0.675 0.125 0  0.7 0.125 0  0.725 0.125 0  0.75 0.125 0  0.775 0.125 0  0.8 0.125 0  0.825 0.125 0  0.85 0.125 0  0.875 0.125 0  0.9 0.125 0  0.925 0.125 0  0.95 0.125 0  0.975 0.125 0  1 0.125 0  0 0.15 0  0.025 0.15 0  0.05 0.15 0  0.075 0.15 0  0.1 0.15 0  0.125 0.15 0  0.15 0.15 0  0.175 0.15 0  0.2 0.15 0  0.225 0.15 0  0.25 0.15 0  0.275 0.15 0  0.3 0.15 0  0.325 0.15 0  0.35 0.15 0  0.375 0.15 0  0.4 0.15 0  0.425 0.15 0  0.45 0.15 0  0.475 0.15 0  0.5 0.15 0  0.525 0.15 0  0.55 0.15 0  0.575 0.15 0  0.6 0.15 0  0.625 0.15 0  0.65 0.15 0  0.675 0.15 0  0.7 0.15 0  0.725 0.15 0  0.75 0.15 0  0.775 0.15 0  0.8 0.15 0  0.825 0.15 0  0.85 0.15 0  0.875 0.15 0  0.9 0.15 0  0.925 0.15 0  0.95 0.15 0  0.975 0.15 0  1 0.15 0  0 0.175 0  0.025 0.175 0  0.05 0.175 0  0.075 0.175 0  0.1 0.175 0  0.125 0.175 0  0.15 0.175 0  0.175 0.175 0  0.2 0.175 0  0.225 0.175 0  0.25 0.175 0  0.275 0.175 0  0.3 0.175 0  0.325 0.175 0  0.35 0.175 0  0.375 0.175 0  0.4 0.175 0  0.425 0.175 0  0.45 0.175 0  0.475 0.175 0  0.5 0.175 0  0.525 0.175 0  0.55 0.175 0  0.575 0.175 0  0.6 0.175 0  0.625 0.175 0  0.65 0.175 0  0.675 0.175 0  0.7 0.175 0  0.725 0.175 0  0.75 0.175 0  0.775 0.175 0  0.8 0.175 0  0.825 0.175 0  0.85 0.175 0  0.875 0.175 0  0.9 0.175 0  0.925 0.175 0  0.95 0.175 0  0.975 0.175 0  1 0.175 0  0 0.2 0  0.025 0.2 0  0.05 0.2 0  0.075 0.2 0  0.1 0.2 0  0.125 0.2 0  0.15 0.2 0  0.175 0.2 0  0.2 0.2 0  0.225 0.2 0  0.25 0.2 0  0.275 0.2 0  0.3 0.2 0  0.325 0.2 0  0.35 0.2 0  0.375 0.2 0  0.4 0.2 0  0.425 0.2 0  0.45 0.2 0  0.475 0.2 0  0.5 0.2 0  0.525 0.2 0  0.55 0.2 0  0.575 0.2 0  0.6 0.2 0  0.625 0.2 0  0.65 0.2 0  0.675 0.2 0  0.7 0.2 0  0.725 0.2 0  0.75 0.2 0  0.775 0.2 0  0.8 0.2 0  0.825 0.2 0  0.85 0.2 0  0.875 0.2 0  0.9 0.2 0  0.925 0.2 0  0.95 0.2 0  0.975 0.2 0  1 0.2 0  0 0.225 0  0.025 0.225 0  0.05 0.225 0  0.075 0.225 0  0.1 0.225 0  0.125 0.225 0  0.15 0.225 0  0.175 0.225 0  0.2 0.225 0  0.225 0.225 0  0.25 0.225 0  0.275 0.225 0  0.3 0.225 0  0.325 0.225 0  0.35 0.225 0  0.375 0.225 0  0.4 0.225 0  0.425 0.225 0  0.45 0.225 0  0.475 0.225 0  0.5 0.225 0  0.525 0.225 0  0.55 0.225 0  0.575 0.225 0  0.6 0.225 0  0.625 0.225 0  0.65 0.225 0  0.675 0.225 0  0.7 0.225 0  0.725 0.225 0  0.75 0.225 0  0.775 0.225 0  0.8 0.225 0  0.825 0.225 0  0.85 0.225 0  0.875 0.225 0  0.9 0.225 0  0.925 0.225 0  0.95 0.225 0  0.975 0.225 0  1 0.225 0  0 0.25 0  0.025 0.25 0  0.05 0.25 0  0.075 0.25 0  0.1 0.25 0  0.125 0.25 0  0.15 0.25 0  0.175 0.25 0  0.2 0.25 0  0.225 0.25 0  0.25 0.25 0  0.275 0.25 0  0.3 0.25 0  0.325 0.25 0  0.35 0.25 0  0.375 0.25 0  0.4 0.25 0  0.425 0.25 0  0.45 0.25 0  0.475 0.25 0  0.5 0.25 0  0.525 0.25 0  0.55 0.25 0  0.575 0.25 0  0.6 0.25 0  0.625 0.25 0  0.65 0.25 0  0.675 0.25 0  0.7 0.25 0  0.725 0.25 0  0.75 0.25 0  0.775 0.25 0  0.8 0.25 0  0.825 0.25 0  0.85 0.25 0  0.875 0.25 0  0.9 0.25 0  0.925 0.25 0  0.95 0.25 0  0.975 0.25 0  1 0.25 0  0 0.275 0  0.025 0.275 0  0.05 0.275 0  0.075 0.275 0  0.1 0.275 0  0.125 0.275 0  0.15 0.275 0  0.175 0.275 0  0.2 0.275 0  0.225 0.275 0  0.25 0.275 0  0.275 0.275 0  0.3 0.275 0  0.325 0.275 0  0.35 0.275 0  0.375 0.275 0  0.4 0.275 0  0.425 0.275 0  0.45 0.275 0  0.475 0.275 0  0.5 0.275 0  0.525 0.275 0  0.55 0.275 0  0.575 0.275 0  0.6 0.275 0  0.625 0.275 0  0.65 0.275 0  0.675 0.275 0  0.7 0.275 0  0.725 0.275 0  0.75 0.275 0  0.775 0.275 0  0.8 0.275 0  0.825 0.275 0  0.85 0.275 0  0.875 0.275 0  0.9 0.275 0  0.925 0.275 0  0.95 0.275 0  0.975 0.275 0  1 0.275 0  0 0.3 0  0.025 0.3 0  0.05 0.3 0  0.075 0.3 0  0.1 0.3 0  0.125 0.3 0  0.15 0.3 0  0.175 0.3 0  0.2 0.3 0  0.225 0.3 0  0.25 0.3 0  0.275 0.3 0  0.3 0.3 0  0.325 0.3 0  0.35 0.3 0  0.375 0.3 0  0.4 0.3 0  0.425 0.3 0  0.45 0.3 0  0.475 0.3 0  0.5 0.3 0  0.525 0.3 0  0.55 0.3 0  0.575 0.3 0  0.6 0.3 0  0.625 0.3 0  0.65 0.3 0  0.675 0.3 0  0.7 0.3 0  0.725 0.3 0  0.75 0.3 0  0.775 0.3 0  0.8 0.3 0  0.825 0.3 0  0.85 0.3 0  0.875 0.3 0  0.9 0.3 0  0.925 0.3 0  0.95 0.3 0  0.975 0.3 0  1 0.3 0  0 0.325 0  0.025 0.325 0  0.05 0.325 0  0.075 0.325 0  0.1 0.325 0  0.125 0.325 0  0.15 0.325 0  0.175 0.325 0  0.2 0.325 0  0.225 0.325 0  0.25 0.325 0  0.275 0.325 0  0.3 0.325 0  0.325 0.325 0  0.35 0.325 0  0.375 0.325 0  0.4 0.325 0  0.425 0.325 0  0.45 0.325 0  0.475 0.325 0  0.5 0.325 0  0.525 0.325 0  0.55 0.325 0  0.575 0.325 0  0.6 0.325 0  0.625 0.325 0  0.65 0.325 0  0.675 0.325 0  0.7 0.325 0  0.725 0.325 0  0.75 0.325 0  0.775 0.325 0  0.8 0.325 0  0.825 0.325 0  0.85 0.325 0  0.875 0.325 0  0.9 0.325 0  0.925 0.325 0  0.95 0.325 0  0.975 0.325 0  1 0.325 0  0 0.35 0  0.025 0.35 0  0.05 0.35 0  0.075 0.35 0  0.1 0.35 0  0.125 0.35 0  0.15 0.35 0  0.175 0.35 0  0.2 0.35 0  0.225 0.35 0  0.25 0.35 0  0.275 0.35 0  0.3 0.35 0  0.325 0.35 0  0.35 0.35 0  0.375 0.35 0  0.4 0.35 0  0.425 0.35 0  0.45 0.35 0  0.475 0.35 0  0.5 0.35 0  0.525 0.35 0  0.55 0.35 0  0.575 0.35 0  0.6 0.35 0  0.625 0.35 0  0.65 0.35 0  0.675 0.35 0  0.7 0.35 0  0.725 0.35 0  0.75 0.35 0  0.775 0.35 0  0.8 0.35 0  0.825 0.35 0  0.85 0.35 0  0.875 0.35 0  0.9 0.35 0  0.925 0.35 0  0.95 0.35 0  0.975 0.35 0  1 0.35 0  0 0.375 0  0.025 0.375 0  0.05 0.375 0  0.075 0.375 0  0.1 0.375 0  0.125 0.375 0  0.15 0.375 0  0.175 0.375 0  0.2 0.375 0  0.225 0.375 0  0.25 0.375 0  0.275 0.375 0  0.3 0.375 0  0.325 0.375 0  0.35 0.375 0  0.375 0.375 0  0.4 0.375 0  0.425 0.375 0  0.45 0.375 0  0.475 0.375 0  0.5 0.375 0  0.525 0.375 0  0.55 0.375 0  0.575 0.375 0  0.6 0.375 0  0.625 0.375 0  0.65 0.375 0  0.675 0.375 0  0.7 0.375 0  0.725 0.375 0  0.75 0.375 0  0.775 0.375 0  0.8 0.375 0  0.825 0.375 0  0.85 0.375 0  0.875 0.375 0  0.9 0.375 0  0.925 0.375 0  0.95 0.375 0  0.975 0.375 0  1 0.375 0  0 0.4 0  0.025 0.4 0  0.05 0.4 0  0.075 0.4 0  0.1 0.4 0  0.125 0.4 0  0.15 0.4 0  0.175 0.4 0  0.2 0.4 0  0.225 0.4 0  0.25 0.4 0  0.275 0.4 0  0.3 0.4 0  0.325 0.4 0  0.35 0.4 0  0.375 0.4 0  0.4 0.4 0  0.425 0.4 0  0.45 0.4 0  0.475 0.4 0  0.5 0.4 0  0.525 0.4 0  0.55 0.4 0  0.575 0.4 0  0.6 0.4 0  0.625 0.4 0  0.65 0.4 0  0.675 0.4 0  0.7 0.4 0  0.725 0.4 0  0.75 0.4 0  0.775 0.4 0  0.8 0.4 0  0.825 0.4 0  0.85 0.4 0  0.875 0.4 0  0.9 0.4 0  0.925 0.4 0  0.95 0.4 0  0.975 0.4 0  1 0.4 0  0 0.425 0  0.025 0.425 0  0.05 0.425 0  0.075 0.425 0  0.1 0.425 0  0.125 0.425 0  0.15 0.425 0  0.175 0.425 0  0.2 0.425 0  0.225 0.425 0  0.25 0.425 0  0.275 0.425 0  0.3 0.425 0  0.325 0.425 0  0.35 0.425 0  0.375 0.425 0  0.4 0.425 0  0.425 0.425 0  0.45 0.425 0  0.475 0.425 0  0.5 0.425 0  0.525 0.425 0  0.55 0.425 0  0.575 0.425 0  0.6 0.425 0  0.625 0.425 0  0.65 0.425 0  0.675 0.425 0  0.7 0.425 0  0.725 0.425 0  0.75 0.425 0  0.775 0.425 0  0.8 0.425 0  0.825 0.425 0  0.85 0.425 0  0.875 0.425 0  0.9 0.425 0  0.925 0.425 0  0.95 0.425 0  0.975 0.425 0  1 0.425 0  0 0.45 0  0.02
[...]
<PointData  Scalars="ControlVisualisation"> 
<DataArray  type="Float64"  Name="ControlVisualisation"  format="ascii">3.4423120170232513e-01  2.9316102681069706e-01  2.9315225789684807e-01  2.9263591702705172e-01  2.9162313091871039e-01  2.9046173980516760e-01  2.8946575967344007e-01  2.8873220982614933e-01  2.8820353418120653e-01  2.8778573743006469e-01  2.8740928842740315e-01  2.8704016557968404e-01  2.8667167285780915e-01  2.8631301601203990e-01  2.8597971209546708e-01  2.8568701601220120e-01  2.8544647086376812e-01  2.8526503890676530e-01  2.8514583810887101e-01  2.8508949562353042e-01  2.8509539602792250e-01  2.8516240532224885e-01  2.8528888700055299e-01  2.8547201249847681e-01  2.8570655929684824e-01  2.8598363863794968e-01  2.8629012531576187e-01  2.8660988838284190e-01  2.8692793352105006e-01  2.8723777477496565e-01  2.8755097831679621e-01  2.8790587677642904e-01  2.8837083644683792e-01  2.8903813964947134e-01  2.8998221231247301e-01  2.9115403830341918e-01  2.9229744596650609e-01  2.9304567243875074e-01  2.9322502474985906e-01  2.9309181389411054e-01  4.1072848564552200e-01  2.9319621409258351e-01  1.9677052617004456e-01  1.9548897540548260e-01  1.9183153158702890e-01  1.8640336663147580e-01  1.8153377355916608e-01  1.7906807016787657e-01  1.7914058130858049e-01  1.8069444712318836e-01  1.8249366050968557e-01  1.8370265152608431e-01  1.8397928755013407e-01  1.8334263113147156e-01  1.8200831161501763e-01  1.8026265438449268e-01  1.7838531601128121e-01  1.7661117248984701e-01  1.7511838587797363e-01  1.7403086790488698e-01  1.7342651750065655e-01  1.7334571704483151e-01  1.7379688026341650e-01  1.7475743179974207e-01  1.7616973177580020e-01  1.7793243858469535e-01  1.7988909802558928e-01  1.8181804799692963e-01  1.8343165439326026e-01  1.8439804920812577e-01  1.8440292602997338e-01  1.8326926898027368e-01  1.8113720074108070e-01  1.7866139122879787e-01  1.7707545668421640e-01  1.7780600967414031e-01  1.8157843149858380e-01  1.8748001039408316e-01  1.9306564519031663e-01  1.9623918631531839e-01  1.9694555108112646e-01  2.9309535751013277e-01  2.9362612748243605e-01  1.9628676534470374e-01  1.9103598698611454e-01  1.8598002870705341e-01  1.8859763962687093e-01  2.0331845046835750e-01  2.3008150407010602e-01  2.6715508495111701e-01  3.1012173737309118e-01  3.5150870699825676e-01  3.8443133411939173e-01  4.0571754536274790e-01  4.1587476233976539e-01  4.1740529948771499e-01  4.1330182285955386e-01  4.0624917554930212e-01  3.9835068268995677e-01  3.9111904120512170e-01  3.8556786188663505e-01  3.8232110374786865e-01  3.8170329246764018e-01  3.8379617082538425e-01  3.8845728250060607e-01  3.9529946678216926e-01  4.0363222669306253e-01  4.1237063344880814e-01  4.1992944593728221e-01  4.2414489821512047e-01  4.2230955785038532e-01  4.1146969380191495e-01  3.8919855272669901e-01  3.5498139347046148e-01  3.1170704504443703e-01  2.6548479269806091e-01  2.2351721781955414e-01  1.9337031125372836e-01  1.8094718910031143e-01  1.8384120270626902e-01  1.9198596170429025e-01  1.9697871412022974e-01  2.9336192159939828e-01  2.9464199086902920e-01  1.9451072890692131e-01  1.9363276975507759e-01  2.2756207789777416e-01  3.3576304183443667e-01  5.7998679668827613e-01  8.5198790951493852e-01  9.7266556312294949e-01  9.8945041281830370e-01  9.7767766315782889e-01  9.6436994214133887e-01  9.5430034070554781e-01  9.4669988545877237e-01  9.4049235797168151e-01  9.3511892209268188e-01  9.3040572895739637e-01  9.2637496185277890e-01  9.2311920319857421e-01  9.2073160399732368e-01  9.1927600288709133e-01  9.1878137840619012e-01  9.1924625467487409e-01  9.2064263037729033e-01  9.2291516370914617e-01  9.2597829276646182e-01  9.2972042803118682e-01  9.3402951603270234e-01  9.3885752324082494e-01  9.4434201614696256e-01  9.5099004851776969e-01  9.5978523753760570e-01  9.7117863002718252e-01  9.7891549953929613e-01  9.5297707949154220e-01  8.2747584940830754e-01  5.6980327345614779e-01  3.2923127683782116e-01  2.1247050355848837e-01  1.8594037881937861e-01  1.9644715628613707e-01  2.9405601605524839e-01  2.9594158189817443e-01  1.9943832742169265e-01  2.8978498073753856e-01  7.6226474207461825e-01  9.9800659447399753e-01  9.5747238591119044e-01  9.7084475277718907e-01  9.7193550480285218e-01  9.7161434893495435e-01  9.7186892766494548e-01  9.7203007166294464e-01  9.7192893702706673e-01  9.7160449312074937e-01  9.7113913758614212e-01  9.7061675091812216e-01  9.7010782484664904e-01  9.6966200234970457e-01  9.6930719595588410e-01  9.6905414315485461e-01  9.6890352947777036e-01  9.6885284077173373e-01  9.6890102883214424e-01  9.6905000502020333e-01  9.6930265277511463e-01  9.6965758904841981e-01  9.7010154735298137e-01  9.7060116111072592e-01  9.7109692482092524e-01  9.7150243735762443e-01  9.7171059954728700e-01  9.7160663400254843e-01  9.7110016713512370e-01  9.7026975995821407e-01  9.6978557226901763e-01  9.6857638924523204e-01  9.5772666324950018e-01  9.8288410805812187e-01  7.1990666023751304e-01  2.6278240313233198e-01  1.9424692371868221e-01  2.9527908902822264e-01  3.0091645415011298e-01  3.3105286263655570e-01  9.8026716433047623e-01  9.7031057219188732e-01  9.7492117867117378e-01  9.8006950121924152e-01  9.8259090119853421e-01  9.8421501170149261e-01  9.8514709379298104e-01  9.8558922158606765e-01  9.8572733699434456e-01  9.8567247867851371e-01  9.8549664311074703e-01  9.8525635970277570e-01  9.8499680554097102e-01  9.8475070403527964e-01  9.8453847134229888e-01  9.8437048395823479e-01  9.8425038356591210e-01  9.8417825754346899e-01  9.8415304730849729e-01  9.8417398668912970e-01  9.8424107289699725e-01  9.8435457803327286e-01  9.8451355457166911e-01  9.8471332827776159e-01  9.8494225264695423e-01  9.8517856965607320e-01  9.8538884199332133e-01  9.8552934431096118e-01  9.8554978787417336e-01  9.8539367092189212e-01  9.8498185573221675e-01  9.8415817390018412e-01  9.8257878494679707e-01  9.7948617805608706e-01  9.7251274462125947e-01  9.6638171154287855e-01  9.3306767503968591e-01  2.4958816336887257e-01  2.9886546530638014e-01  5.7072889362844925e-01  9.6605174848834019e-01  9.7661462594502901e-01  9.8435474380643950e-01  9.8756448951933784e-01  9.8905776584768068e-01  9.8974353545498983e-01  9.9012463891003810e-01  9.9034523155620879e-01  9.9047201935853657e-01  9.9053575795474003e-01  9.9054909685093195e-01  9.9052173417613820e-01  9.9046656796755583e-01  9.9039806749389980e-01  9.9032868193887313e-01  9.9026685427434635e-01  9.9021706060469161e-01  9.9018093736553980e-01  9.9015859567612341e-01  9.9014966380041980e-01  9.9015392241159772e-01  9.9017152287251842e-01  9.9020278822960706e-01  9.9024757839276212e-01  9.9030423498154474e-01  9.9036830293292166e-01  9.9043160999311730e-01  9.9048267221035613e-01  9.9050909814036159e-01  9.9050078961116028e-01  9.9044964080946674e-01  9.9034095566132563e-01  9.9013818263133291e-01  9.8976608490829132e-01  9.8906786745069697e-01  9.8763296903110676e-01  9.8402742958408473e-01  9.7343012935017148e-01  9.5142374518631290e-01  3.2841809886734746e-01  9.8247670197534653e-01  9.9187330968280418e-01  9.9400729655692721e-01  9.9432940632741951e-01  9.9412863751884595e-01  9.9381040930397013e-01  9.9350462282123186e-01  9.9327518961676853e-01  9.9312716929112888e-01  9.9303787035996272e-01  9.9298268149102975e-01  9.9294380204270949e-01  9.9291175348290650e-01  9.9288409779813558e-01  9.9286206564700852e-01  9.9284707457462051e-01  9.9283897850564451e-01  9.9283610419874213e-01  9.9283609704068998e-01  9.9283676680085708e-01  9.9283664180367248e-01  9.9283524711513305e-01  9.9283318638466933e-01  9.9283205256593587e-01  9.9283410816831708e-01  9.9284163524565727e-01  9.9285598872069281e-01  9.9287683099307666e-01  9.9290259231996258e-01  9.9293304503882029e-01  9.9297328473918955e-01  9.9303673747470644e-01  9.9314582577797794e-01  9.9332996983478583e-01  9.9361301638647237e-01  9.9397969177684475e-01  9.9435048271852045e-01  9.9457666507936460e-01  9.9441975023484264e-01  9.9208294714670109e-01  9.6235027168669018e-01  9.9626403133189667e-01  9.9770161305070693e-01  9.9741959104090883e-01  9.9701219510302574e-01  9.9653036761877678e-01  9.9602293036110090e-01  9.9553712640626035e-01  9.9511380068694522e-01  9.9478347015437074e-01  9.9454885670035909e-01  9.9438972398300507e-01  9.9428044600893273e-01  9.9420298239577787e-01  9.9414974011817836e-01  9.9411849129171448e-01  9.9410633908071377e-01  9.9410774838519977e-01  9.9411606996914925e-01  9.9412560917298010e-01  9.9413257702418967e-01  9.9413500407297106e-01  9.9413233402383017e-01  9.9412525467930435e-01  9.9411592513325397e-01  9.9410832543281868e-01  9.9410806755506120e-01  9.9412101469344871e-01  9.9415112575964992e-01  9.9419995147470785e-01  9.9427058778574040e-01  9.9437474713406382e-01  9.9453633923349738e-01  9.9478614804082077e-01  9.9514707412255288e-01  9.9561160460185849e-01  9.9612936480104752e-01  9.9664256166112664e-01  9.9711437571211303e-01  9.9755052137959610e-01  9.9781030131630877e-01  9.9460719193411262e-01  9.9799760811707161e-01  9.9885091579647456e-01  9.9848107238274952e-01  9.9798897975970469e-01  9.9742753894224356e-01  9.9683656889281369e-01  9.9632584979119676e-01  9.9591683508094109e-01  9.9557776257004527e-01  9.9531044303981642e-01  9.9511711095446198e-01  9.9497715707449541e-01  9.9486809616819194e-01  9.9478414623878675e-01  9.9473058915520807e-01  9.9470900526079686e-01  9.9471180711757479e-01  9.9472684753745921e-01  9.9474350382146448e-01  9.9475522621321644e-01  9.9475904460985098e-01  9.9475427486004508e-01  9.9474196553480254e-01  9.9472551002922238e-01  9.9471180568769868e-01  9.9471124719916404e-01  9.9473448567334155e-01  9.9478647736736003e-01  9.9486408474697119e-01  9.9496459596133269e-01  9.9509982350191994e-01  9.9529619860547980e-01  9.9557419483062792e-01  9.9593303706007374e-01  9.9636748773151207e-01  9.9688724011585017e-01  9.9747090825664297e-01  9.9803443372912493e-01  9.9854135518690557e-01  9.9888514741384327e-01  9.9763200397712526e-01  9.9827378192156668e-01  9.9908109064638528e-01  9.9873834183962007e-01  9.9825794362985254e-01  9.9770390758313177e-01  9.9707562288170792e-01  9.9649886226500783e-01  9.9607922429552676e-01  9.9576443315807817e-01  9.9550665297796970e-01  9.9531485923477259e-01  9.9517931154800265e-01  9.9507042996611805e-01  9.9497837506574383e-01  9.9491525402418868e-01  9.9489022348757927e-01  9.9489668576817225e-01  9.9491879264139049e-01  9.9494205664723878e-01  9.9495792269239214e-01  9.9496289880281907e-01  9.9495630026354698e-01  9.9493925875814593e-01  9.9491571134555012e-01  9.9489449284704956e-01  9.9488976808797680e-01  9.9491596991088160e-01  9.9497754503793123e-01  9.9506446705934848e-01  9.9516701525133788e-01  9.9529871256031999e-01  9.9548969369370832e-01  9.9574965374973723e-01  9.9607371816894963e-01  9.9650311477546105e-01  9.9707655787284100e-01  9.9770074047690116e-01  9.9825700581384114e-01  9.9873841060570479e-01  9.9907958929313900e-01  9.9827325416796553e-01  9.9763739329520695e-01  9.9888509696479877e-01  9.9851900426869999e-01  9.9800341212064825e-01  9.9742798075757710e-01  9.9678253367660496e-01  9.9617541832899892e-01  9.9573261556215076e-01  9.9543086009325876e-01  9.9520377333890697e-01  9.9504410668056353e-01  9.9494084476598499e-01  9.9486163366924640e-01  9.9479240235519717e-01  9.9474346064741315e-01  9.9472400505839931e-01  9.9472847953621779e-01  9.9474343260387998e-01  9.9475789550256621e-01  9.9476680945681384e-01  9.9476909287276694e-01  9.9476488718579725e-01  9.9475441514342222e-01  9.9473899984402614e-01  9.9472368504395470e-01  9.9471911208824715e-01  9.9473826026453971e-01  9.9478637971075679e-01  9.9485413711890336e-01  9.9493074761162803e-01  9.9502928155632242e-01  9.9518200463187445e-01  9.9540267257903647e-01  9.9570018411141814e-01  9.9613581186821032e-01  9.9673480386711066e-01  9.9737886143999688e-01  9.9795354449030005e-01  9.9846091439657880e-01  9.9884914737843733e-01  9.9799973136443665e-01  9.9461384201129432e-01  9.9777909441757573e-01  9.9745085307196812e-01  9.9694068214292897e-01  9.9636418367669655e-01  9.9573002220893581e-01  9.9514305568026562e-01  9.9471244014762183e-01  9.9444354272289059e-01  9.9428800894052816e-01  9.9421853709681907e-01  9.9420440412921662e-01  9.9420579444351542e-01  9.9420125293493711e-01  9.9419127556946851e-01  9.9418086818558038e-01  9.9417021900041913e-01  9.9415777384813653e-01  9.9414445129542151e-01  9.9413360684394358e-01  9.9412864997130701e-01  9.9413099602453148e-01  9.9413934375109780e-01  9.9415036378561505e-01  9.9416069166377896e-01  9.9416939504489610e-01  9.9417845156472828e-01  9.9418885339535679e-01  9.9419622054975909e-01  9.9419733080198591e-01  9.9420786446057074e-01  9.9426469338358670e-01  9.9440101868097686e-01  9.9464516494219235e-01  9.9504715165447410e-01  9.9561528997867110e-01  9.9624529041432230e-01  9.9681992496308292e-01  9.9730081934392922e-01  9.9767026728422825e-01  9.9625813107743011e-01  9.6106627146324219e-01  9.9188563739420355e-01  9.9369660010259708e-01  9.9371931086260812e-01  9.9347099071099021e-01  9.9307466883951179e-01  9.9268773161395640e-01  9.9243600310644098e-01  9.9235394963993362e-01  9.9241264995960976e-01  9.9256646553954342e-01  9.9275830513267016e-01  9.9293405900912968e-01  9.9306480806851305e-01  9.9314847266868345e-01  9.9319592168887372e-01  9.9321963250955492e-01  9.9322975439463257e-01  9.9323351633759471e-01  9.9323520281373645e-01  9.9323650218304393e-01  9.9323726843605553e-01  9.9323614650284775e-01  9.9323058291504707e-01  9.9321640621688423e-01  9.9318752489045836e-01  9.9313590932200135e-01  9.9305180813352922e-01  9.9292579277422888e-01  9.9275649963178536e-01  9.9256352172142670e-01  9.9239205571088041e-01  9.9229746029022048e-01  9.9232766353431967e-01  9.9251750004438821e-01  9.9285292073519082e-01  9.9322726562601860e-01  9.9348563714167548e-01  9.9336969676340614e-01  9.9185300271901611e-01  9.8214772486439150e-01  3.1002118050862626e-01  8.5347023946897549e-01  9.6417078634495834e-01  9.7959168385778439e-01  9.8398004312433407e-01  9.8576607397531624e-01  9.8670839645467689e-01  9.8738046080562658e-01  9.8800673229789282e-01  9.8866466028401234e-01  9.8934208634484466e-01  9.8998037726676791e-01  9.9052533713282109e-01  9.9095765451465345e-01  9.9129043069445133e-01  9.9154988712528225e-01  9.9175865745902991e-01  9.9192858735920320e-01  9.9206097567047213e-01  9.9215051479130556e-01  9.9219021078707925e-01  9.9217543257766216e-01  9.9210585282658093e-01  9.9198475738715408e-01  9.9181600638758172e-01  9.9159969165113160e-01  9.9132817807176854e-01  9.9098482475201144e-01  9.9054823682802506e-01  9.9000407048917338e-01  9.8936120166489239e-01  9.8865946755805323e-01  9.8795201208140759e-01  9.8725897831050202e-01  9.8651225851048518e-01  9.8550706424341283e-01  9.8380985121725750e-01  9.8038282783232655e-01  9.6842848226579770e-01  9.1772403434419569e-01  5.3684089477594843e-01  2.8677491512167957e-01  1.6388782330797935e-01  4.7497254418087026e-01  8.8204491079628733e-01  9.4347423779166306e-01  9.6127686634490561e-01  9.6935558109851039e-01  9.7393939166574484e-01  9.7707195216437837e-01  9.7954229278567684e-01  9.8158906267075841e-01  9.8323624457520886e-01  9.8448184009444650e-01  9.8536508910085263e-01  9.8595973801868342e-01  9.8634626701098049e-01  9.8659222582900419e-01  9.8674627813870741e-01  9.8684053951369088e-01  9.8689491499812487e-01  9.8692021724488221e-01  9.8691955552212729e-01  9.8688855163069666e-01  9.8681482372815044e-01  9.8667668701872246e-01  9.8644080896245434e-01  9.8605920017878701e-01  9.8546776456865559e-01  9.8459094796065050e-01  9.8335694620357472e-01  9.8172092656457033e-01  9.7967729520756353e-01  9.7722151916816624e-01  9.7421449037692642e-01  9.7013390657328369e-01  9.6362583053164608e-01  9.4990460747220529e-01  9.0257204288608672e-01  5.8116632361024678e-01  2.0194711503352836e-01  2.8830022138120509e-01  2.8375624173738706e-01  1.4173497692092302e-01  1.0849740054007337e-01  1.7818898507049086e-01  4.5860976826963012e-01  7.5839371932986954e-01  8.7433040948240048e-01  9.1570813719809241e-01  9.3583758807162909e-01  9.4785219642979401e-01  9.5582173926572278e-01  9.6141701195784346e-01  9.6556784950624175e-01  9.6890171480330167e-01  9.7183638346557621e-01  9.7459162633860030e-01  9.7720417511924607e-01  9.7956775165753218e-01  9.8149506676028198e-01  9.8278757841191700e-01  9.8329652813433488e-01  9.8296320300360840e-01  9.8183306560390848e-01  9.8004300580624437e-01  9.7778355413262452e-01  9.7524170871783922e-01  9.7253563345090011e-01  9.6965593637447467e-01  9.6642577093419502e-01  9.6248297531108473e-01  9.5726848650275054e-01  9.4995627362322332e-01  9.3911053569512659e-01  9.2130442382783684e-01  8.8519963248741640e-01  7.8308602471701128e-01  5.0315569138107263e-01  1.9340809443794399e-01  1.1484811160484623e-01  1.4381801994158663e-01  2.8433119730529799e-01  2.8409242652819533e-01  1.4626203290192669e-01  1.0230555535750466e-01  7.9236980779465310e-02  8.2634414799083900e-02  1.2120404279877091e-01  2.1247653432571845e-01  3.5605834790255980e-01  5.1337531017942439e-01  6.4621805373081520e-01  7.4253592751397934e-01  8.0841717469914498e-01  8.5351034759432232e-01  8.8529652175703866e-01  9.0860358613232439e-01  9.2632939643868772e-01  9.4010574727462359e-01  9.5073770706085825e-01  9.5849403543781131e-01  9.6333527956998621e-01  9.6511853084818200e-01  9.6375998474986124e-01  9.5930699404020769e-01  9.5189014998402532e-01  9.4157209221082272e-01  9.2813777198003899e-01  9.1085255878697469e-01  8.8816152510957502e-01  8.5725334952657706e-01  8.1342278136574042e-01  7.4940722816757777e-01  6.5588821943075981e-01  5.2672485381768419e-01  3.7209065796467183e-01  2.2641572689818840e-01  1.2728875958361890e-01  8.4889724074676931e-02  8.2714541424724231e-02  1.0384378687936953e-01  1.4506697584684297e-01  2.8378950484657622e-01  2.8522182982370337e-01  1.5110835048279092e-01  1.1217365579576308e-01  9.0347607998677193e-02  7.7275448094279914e-02  7.2176583678948053e-02  7.4262568903783133e-02  8.2233732811208646e-02  9.5803845740975641e-02  1.1479752010737040e-01  1.3811210947787994e-01  1.6393052500786445e-01  1.9027871661905960e-01  2.1546174335797696e-01  2.3824626467091026e-01  2.5786010154573841e-01  2.7390354641331399e-01  2.8623694556859919e-01  2.9487643482677695e-01  2.9990828115852808e-01  3.0142404146940388e-01  2.9947897211405416e-01  2.9407730877915206e-01  2.8518605760265764e-01  2.7277469343530375e-01  2.5687514554840590e-01  2.3765701771238504e-01  2.1551498550360618e-01  1.9116165727162573e-01  1.6570320155291390e-01  1.4064865377732341e-01  1.1778218464745457e-01  9.8846054453685675e-02  8.5104285715486089e-02  7.7099730293089738e-02  7.4980561159056658e-02  7.9160940510848279e-02  9.0722259620868689e-02  1.1167929757705303e-01  1.5002459919463082e-01  2.8442503240659855e-01  2.8654853772491579e-01  1.5633094594256500e-01  1.2049968596728333e-01  1.0232209418384577e-01  9.1276862411245191e-02  8.4219037004533037e-02  7.9816083832158602e-02  7.7365298667601889e-02  7.6450878624399893e-02  7.6730698084573556e-02  7.7894265567703361e-02  7.9663240840853605e-02  8.1785838499145155e-02  8.4043602790904004e-02  8.6257009934476686e-02  8.8288128263383794e-02  9.0039580669794811e-02  9.1449797135292638e-02  9.2485387170988476e-02  9.3132256191783697e-02  9.3387378513854591e-02  9.3252875515824646e-02  9.2733486847281887e-02  9.1837873766204184e-02  9.0583502353277348e-02  8.9004102688288012e-02  8.7157985942640376e-02  8.5135123000521923e-02  8.3061185939955873e-02  8.1097741775790516e-02  7.9438961011792014e-02  7.8306204673539423e-02  7.7943961610357049e-02  7.8626523986311994e-02  8.0693100720020949e-02  8.4630850857780493e-02  9.1231438519487146e-02  1.0190402009439764e-01  1.1989332875525274e-01  1.5527231813685874e-01  2.8575854220919833e-01  2.8770020963083420e-01  1.6132569003521496e-01  1.2816242022058136e-01  1.1226817854509441e-01  1.0308817872899548e-01  9.7007260112618648e-02  9.2683657134403241e-02  8.9494416594251322e-02  8.713170104