<?xml version="1.0"?>
<VTKFile type="UnstructuredGrid"  version="0.1"  >
<UnstructuredGrid>
<Piece  NumberOfPoints="1681" NumberOfCells="3200">
<Points>
<DataArray  type="Float64"  NumberOfComponents="3"  format="ascii">0 0 0  0.025 0 0  0.05 0 0  0.075 0 0  0.1 0 0  0.125 0 0  0.15 0 0  0.175 0 0  0.2 0 0  0.225 0 0  0.25 0 0  0.275 0 0  0.3 0 0  0.325 0 0  0.35 0 0  0.375 0 0  0.4 0 0  0.425 0 0  0.45 0 0  0.475 0 0  0.5 0 0  0.525 0 0  0.55 0 0  0.575 0 0  0.6 0 0  0.625 0 0  0.65 0 0  0.675 0 0  0.7 0 0  0.725 0 0  0.75 0 0  0.775 0 0  0.8 0 0  0.825 0 0  0.85 0 0  0.875 0 0  0.9 0 0  0.925 0 0  0.95 0 0  0.975 0 0  1 0 0  0 0.025 0  0.025 0.025 0  0.05 0.025 0  0.075 0.025 0  0.1 0.025 0  0.125 0.025 0  0.15 0.025 0  0.175 0.025 0  0.2 0.025 0  0.225 0.025 0  0.25 0.025 0  0.275 0.025 0  0.3 0.025 0  0.325 0.025 0  0.35 0.025 0  0.375 0.025 0  0.4 0.025 0  0.425 0.025 0  0.45 0.025 0  0.475 0.025 0  0.5 0.025 0  0.525 0.025 0  0.55 0.025 0  0.575 0.025 0  0.6 0.025 0  0.625 0.025 0  0.65 0.025 0  0.675 0.025 0  0.7 0.025 0  0.725 0.025 0  0.75 0.025 0  0.775 0.025 0  0.8 0.025 0  0.825 0.025 0  0.85 0.025 0  0.875 0.025 0  0.9 0.025 0  0.925 0.025 0  0.95 0.025 0  0.975 0.025 0  1 0.025 0  0 0.05 0  0.025 0.05 0  0.05 0.05 0  0.075 0.05 0  0.1 0.05 0  0.125 0.05 0  0.15 0.05 0  0.175 0.05 0  0.2 0.05 0  0.225 0.05 0  0.25 0.05 0  0.275 0.05 0  0.3 0.05 0  0.325 0.05 0  0.35 0.05 0  0.375 0.05 0  0.4 0.05 0  0.425 0.05 0  0.45 0.05 0  0.475 0.05 0  0.5 0.05 0  0.525 0.05 0  0.55 0.05 0  0.575 0.05 0  0.6 0.05 0  0.625 0.05 0  0.65 0.05 0  0.675 0.05 0  0.7 0.05 0  0.725 0.05 0  0.75 0.05 0  0.775 0.05 0  0.8 0.05 0  0.825 0.05 0  0.85 0.05 0  0.875 0.05 0  0.9 0.05 0  0.925 0.05 0  0.95 0.05 0  0.975 0.05 0  1 0.05 0  0 0.075 0  0.025 0.075 0  0.05 0.075 0  0.075 0.075 0  0.1 0.075 0  0.125 0.075 0  0.15 0.075 0  0.175 0.075 0  0.2 0.075 0  0.225 0.075 0  0.25 0.075 0  0.275 0.075 0  0.3 0.075 0  0.325 0.075 0  0.35 0.075 0  0.375 0.075 0  0.4 0.075 0  0.425 0.075 0  0.45 0.075 0  0.475 0.075 0  0.5 0.075 0  0.525 0.075 0  0.55 0.075 0  0.575 0.075 0  0.6 0.075 0  0.625 0.075 0  0.65 0.075 0  0.675 0.075 0  0.7 0.075 0  0.725 0.075 0  0.75 0.075 0  0.775 0.075 0  0.8 0.075 0  0.825 0.075 0  0.85 0.075 0  0.875 0.075 0  0.9 0.075 0  0.925 0.075 0  0.95 0.075 0  0.975 0.075 0  1 0.075 0  0 0.1 0  0.025 0.1 0  0.05 0.1 0  0.075 0.1 0  0.1 0.1 0  0.125 0.1 0  0.15 0.1 0  0.175 0.1 0  0.2 0.1 0  0.225 0.1 0  0.25 0.1 0  0.275 0.1 0  0.3 0.1 0  0.325 0.1 0  0.35 0.1 0  0.375 0.1 0  0.4 0.1 0  0.425 0.1 0  0.45 0.1 0  0.475 0.1 0  0.5 0.1 0  0.525 0.1 0  0.55 0.1 0  0.575 0.1 0  0.6 0.1 0  0.625 0.1 0  0.65 0.1 0  0.675 0.1 0  0.7 0.1 0  0.725 0.1 0  0.75 0.1 0  0.775 0.1 0  0.8 0.1 0  0.825 0.1 0  0.85 0.1 0  0.875 0.1 0  0.9 0.1 0  0.925 0.1 0  0.95 0.1 0  0.975 0.1 0  1 0.1 0  0 0.125 0  0.025 0.125 0  0.05 0.125 0  0.075 0.125 0  0.1 0.125 0  0.125 0.125 0  0.15 0.125 0  0.175 0.125 0  0.2 0.125 0  0.225 0.125 0  0.25 0.125 0  0.275 0.125 0  0.3 0.125 0  0.325 0.125 0  0.35 0.125 0  0.375 0.125 0  0.4 0.125 0  0.425 0.125 0  0.45 0.125 0  0.475 0.125 0  0.5 0.125 0  0.525 0.125 0  0.55 0.125 0  0.575 0.125 0  0.6 0.125 0  0.625 0.125 0  0.65 0.125 0  0.675 0.125 0  0.7 0.125 0  0.725 0.125 0  0.75 0.125 0  0.775 0.125 0  0.8 0.125 0  0.825 0.125 0  0.85 0.125 0  0.875 0.125 0  0.9 0.125 0  0.925 0.125 0  0.95 0.125 0  0.975 0.125 0  1 0.125 0  0 0.15 0  0.025 0.15 0  0.05 0.15 0  0.075 0.15 0  0.1 0.15 0  0.125 0.15 0  0.15 0.15 0  0.175 0.15 0  0.2 0.15 0  0.225 0.15 0  0.25 0.15 0  0.275 0.15 0  0.3 0.15 0  0.325 0.15 0  0.35 0.15 0  0.375 0.15 0  0.4 0.15 0  0.425 0.15 0  0.45 0.15 0  0.475 0.15 0  0.5 0.15 0  0.525 0.15 0  0.55 0.15 0  0.575 0.15 0  0.6 0.15 0  0.625 0.15 0  0.65 0.15 0  0.675 0.15 0  0.7 0.15 0  0.725 0.15 0  0.75 0.15 0  0.775 0.15 0  0.8 0.15 0  0.825 0.15 0  0.85 0.15 0  0.875 0.15 0  0.9 0.15 0  0.925 0.15 0  0.95 0.15 0  0.975 0.15 0  1 0.15 0  0 0.175 0  0.025 0.175 0  0.05 0.175 0  0.075 0.175 0  0.1 0.175 0  0.125 0.175 0  0.15 0.175 0  0.175 0.175 0  0.2 0.175 0  0.225 0.175 0  0.25 0.175 0  0.275 0.175 0  0.3 0.175 0  0.325 0.175 0  0.35 0.175 0  0.375 0.175 0  0.4 0.175 0  0.425 0.175 0  0.45 0.175 0  0.475 0.175 0  0.5 0.175 0  0.525 0.175 0  0.55 0.175 0  0.575 0.175 0  0.6 0.175 0  0.625 0.175 0  0.65 0.175 0  0.675 0.175 0  0.7 0.175 0  0.725 0.175 0  0.75 0.175 0  0.775 0.175 0  0.8 0.175 0  0.825 0.175 0  0.85 0.175 0  0.875 0.175 0  0.9 0.175 0  0.925 0.175 0  0.95 0.175 0  0.975 0.175 0  1 0.175 0  0 0.2 0  0.025 0.2 0  0.05 0.2 0  0.075 0.2 0  0.1 0.2 0  0.125 0.2 0  0.15 0.2 0  0.175 0.2 0  0.2 0.2 0  0.225 0.2 0  0.25 0.2 0  0.275 0.2 0  0.3 0.2 0  0.325 0.2 0  0.35 0.2 0  0.375 0.2 0  0.4 0.2 0  0.425 0.2 0  0.45 0.2 0  0.475 0.2 0  0.5 0.2 0  0.525 0.2 0  0.55 0.2 0  0.575 0.2 0  0.6 0.2 0  0.625 0.2 0  0.65 0.2 0  0.675 0.2 0  0.7 0.2 0  0.725 0.2 0  0.75 0.2 0  0.775 0.2 0  0.8 0.2 0  0.825 0.2 0  0.85 0.2 0  0.875 0.2 0  0.9 0.2 0  0.925 0.2 0  0.95 0.2 0  0.975 0.2 0  1 0.2 0  0 0.225 0  0.025 0.225 0  0.05 0.225 0  0.075 0.225 0  0.1 0.225 0  0.125 0.225 0  0.15 0.225 0  0.175 0.225 0  0.2 0.225 0  0.225 0.225 0  0.25 0.225 0  0.275 0.225 0  0.3 0.225 0  0.325 0.225 0  0.35 0.225 0  0.375 0.225 0  0.4 0.225 0  0.425 0.225 0  0.45 0.225 0  0.475 0.225 0  0.5 0.225 0  0.525 0.225 0  0.55 0.225 0  0.575 0.225 0  0.6 0.225 0  0.625 0.225 0  0.65 0.225 0  0.675 0.225 0  0.7 0.225 0  0.725 0.225 0  0.75 0.225 0  0.775 0.225 0  0.8 0.225 0  0.825 0.225 0  0.85 0.225 0  0.875 0.225 0  0.9 0.225 0  0.925 0.225 0  0.95 0.225 0  0.975 0.225 0  1 0.225 0  0 0.25 0  0.025 0.25 0  0.05 0.25 0  0.075 0.25 0  0.1 0.25 0  0.125 0.25 0  0.15 0.25 0  0.175 0.25 0  0.2 0.25 0  0.225 0.25 0  0.25 0.25 0  0.275 0.25 0  0.3 0.25 0  0.325 0.25 0  0.35 0.25 0  0.375 0.25 0  0.4 0.25 0  0.425 0.25 0  0.45 0.25 0  0.475 0.25 0  0.5 0.25 0  0.525 0.25 0  0.55 0.25 0  0.575 0.25 0  0.6 0.25 0  0.625 0.25 0  0.65 0.25 0  0.675 0.25 0  0.7 0.25 0  0.725 0.25 0  0.75 0.25 0  0.775 0.25 0  0.8 0.25 0  0.825 0.25 0  0.85 0.25 0  0.875 0.25 0  0.9 0.25 0  0.925 0.25 0  0.95 0.25 0  0.975 0.25 0  1 0.25 0  0 0.275 0  0.025 0.275 0  0.05 0.275 0  0.075 0.275 0  0.1 0.275 0  0.125 0.275 0  0.15 0.275 0  0.175 0.275 0  0.2 0.275 0  0.225 0.275 0  0.25 0.275 0  0.275 0.275 0  0.3 0.275 0  0.325 0.275 0  0.35 0.275 0  0.375 0.275 0  0.4 0.275 0  0.425 0.275 0  0.45 0.275 0  0.475 0.275 0  0.5 0.275 0  0.525 0.275 0  0.55 0.275 0  0.575 0.275 0  0.6 0.275 0  0.625 0.275 0  0.65 0.275 0  0.675 0.275 0  0.7 0.275 0  0.725 0.275 0  0.75 0.275 0  0.775 0.275 0  0.8 0.275 0  0.825 0.275 0  0.85 0.275 0  0.875 0.275 0  0.9 0.275 0  0.925 0.275 0  0.95 0.275 0  0.975 0.275 0  1 0.275 0  0 0.3 0  0.025 0.3 0  0.05 0.3 0  0.075 0.3 0  0.1 0.3 0  0.125 0.3 0  0.15 0.3 0  0.175 0.3 0  0.2 0.3 0  0.225 0.3 0  0.25 0.3 0  0.275 0.3 0  0.3 0.3 0  0.325 0.3 0  0.35 0.3 0  0.375 0.3 0  0.4 0.3 0  0.425 0.3 0  0.45 0.3 0  0.475 0.3 0  0.5 0.3 0  0.525 0.3 0  0.55 0.3 0  0.575 0.3 0  0.6 0.3 0  0.625 0.3 0  0.65 0.3 0  0.675 0.3 0  0.7 0.3 0  0.725 0.3 0  0.75 0.3 0  0.775 0.3 0  0.8 0.3 0  0.825 0.3 0  0.85 0.3 0  0.875 0.3 0  0.9 0.3 0  0.925 0.3 0  0.95 0.3 0  0.975 0.3 0  1 0.3 0  0 0.325 0  0.025 0.325 0  0.05 0.325 0  0.075 0.325 0  0.1 0.325 0  0.125 0.325 0  0.15 0.325 0  0.175 0.325 0  0.2 0.325 0  0.225 0.325 0  0.25 0.325 0  0.275 0.325 0  0.3 0.325 0  0.325 0.325 0  0.35 0.325 0  0.375 0.325 0  0.4 0.325 0  0.425 0.325 0  0.45 0.325 0  0.475 0.325 0  0.5 0.325 0  0.525 0.325 0  0.55 0.325 0  0.575 0.325 0  0.6 0.325 0  0.625 0.325 0  0.65 0.325 0  0.675 0.325 0  0.7 0.325 0  0.725 0.325 0  0.75 0.325 0  0.775 0.325 0  0.8 0.325 0  0.825 0.325 0  0.85 0.325 0  0.875 0.325 0  0.9 0.325 0  0.925 0.325 0  0.95 0.325 0  0.975 0.325 0  1 0.325 0  0 0.35 0  0.025 0.35 0  0.05 0.35 0  0.075 0.35 0  0.1 0.35 0  0.125 0.35 0  0.15 0.35 0  0.175 0.35 0  0.2 0.35 0  0.225 0.35 0  0.25 0.35 0  0.275 0.35 0  0.3 0.35 0  0.325 0.35 0  0.35 0.35 0  0.375 0.35 0  0.4 0.35 0  0.425 0.35 0  0.45 0.35 0  0.475 0.35 0  0.5 0.35 0  0.525 0.35 0  0.55 0.35 0  0.575 0.35 0  0.6 0.35 0  0.625 0.35 0  0.65 0.35 0  0.675 0.35 0  0.7 0.35 0  0.725 0.35 0  0.75 0.35 0  0.775 0.35 0  0.8 0.35 0  0.825 0.35 0  0.85 0.35 0  0.875 0.35 0  0.9 0.35 0  0.925 0.35 0  0.95 0.35 0  0.975 0.35 0  1 0.35 0  0 0.375 0  0.025 0.375 0  0.05 0.375 0  0.075 0.375 0  0.1 0.375 0  0.125 0.375 0  0.15 0.375 0  0.175 0.375 0  0.2 0.375 0  0.225 0.375 0  0.25 0.375 0  0.275 0.375 0  0.3 0.375 0  0.325 0.375 0  0.35 0.375 0  0.375 0.375 0  0.4 0.375 0  0.425 0.375 0  0.45 0.375 0  0.475 0.375 0  0.5 0.375 0  0.525 0.375 0  0.55 0.375 0  0.575 0.375 0  0.6 0.375 0  0.625 0.375 0  0.65 0.375 0  0.675 0.375 0  0.7 0.375 0  0.725 0.375 0  0.75 0.375 0  0.775 0.375 0  0.8 0.375 0  0.825 0.375 0  0.85 0.375 0  0.875 0.375 0  0.9 0.375 0  0.925 0.375 0  0.95 0.375 0  0.975 0.375 0  1 0.375 0  0 0.4 0  0.025 0.4 0  0.05 0.4 0  0.075 0.4 0  0.1 0.4 0  0.125 0.4 0  0.15 0.4 0  0.175 0.4 0  0.2 0.4 0  0.225 0.4 0  0.25 0.4 0  0.275 0.4 0  0.3 0.4 0  0.325 0.4 0  0.35 0.4 0  0.375 0.4 0  0.4 0.4 0  0.425 0.4 0  0.45 0.4 0  0.475 0.4 0  0.5 0.4 0  0.525 0.4 0  0.55 0.4 0  0.575 0.4 0  0.6 0.4 0  0.625 0.4 0  0.65 0.4 0  0.675 0.4 0  0.7 0.4 0  0.725 0.4 0  0.75 0.4 0  0.775 0.4 0  0.8 0.4 0  0.825 0.4 0  0.85 0.4 0  0.875 0.4 0  0.9 0.4 0  0.925 0.4 0  0.95 0.4 0  0.975 0.4 0  1 0.4 0  0 0.425 0  0.025 0.425 0  0.05 0.425 0  0.075 0.425 0  0.1 0.425 0  0.125 0.425 0  0.15 0.425 0  0.175 0.425 0  0.2 0.425 0  0.225 0.425 0  0.25 0.425 0  0.275 0.425 0  0.3 0.425 0  0.325 0.425 0  0.35 0.425 0  0.375 0.425 0  0.4 0.425 0  0.425 0.425 0  0.45 0.425 0  0.475 0.425 0  0.5 0.425 0  0.525 0.425 0  0.55 0.425 0  0.575 0.425 0  0.6 0.425 0  0.625 0.425 0  0.65 0.425 0  0.675 0.425 0  0.7 0.425 0  0.725 0.425 0  0.75 0.425 0  0.775 0.425 0  0.8 0.425 0  0.825 0.425 0  0.85 0.425 0  0.875 0.425 0  0.9 0.425 0  0.925 0.425 0  0.95 0.425 0  0.975 0.425 0  1 0.425 0  0 0.45 0  0.02
[...]
<PointData  Scalars="ControlVisualisation"> 
<DataArray  type="Float64"  Name="ControlVisualisation"  format="ascii">1.3876233477580577e-01  9.9476574500104928e-02  9.9505037617638195e-02  9.9685666885884289e-02  1.0004300034997898e-01  1.0053372296694299e-01  1.0108619528076823e-01  1.0163148405780761e-01  1.0212244153985298e-01  1.0253777853529945e-01  1.0287616857020690e-01  1.0314742462596799e-01  1.0336534274638345e-01  1.0354342131319900e-01  1.0369286617343132e-01  1.0382192832700707e-01  1.0393585779015761e-01  1.0403707827315030e-01  1.0412541203067577e-01  1.0419830795193023e-01  1.0425108992389466e-01  1.0427727723320099e-01  1.0426904453921895e-01  1.0421788038484210e-01  1.0411545891286274e-01  1.0395465654526403e-01  1.0373054369400363e-01  1.0344110997647525e-01  1.0308752065791925e-01  1.0267397139192842e-01  1.0220775264872792e-01  1.0170038296486610e-01  1.0117043300893518e-01  1.0064726185599437e-01  1.0017370208343342e-01  9.9801955493706615e-02  9.9570003359022385e-02  9.9475913055063314e-02  9.9471875598970957e-02  9.9492679392458899e-02  2.3622196926507896e-01  9.9473816370910476e-02  5.8662686345664947e-02  5.8924850174267157e-02  5.9590100995107274e-02  6.0734141573421586e-02  6.2276914843523976e-02  6.4053001022060643e-02  6.5884673744107419e-02  6.7629504313031746e-02  6.9201433506299356e-02  7.0567964146428547e-02  7.1734155100868766e-02  7.2725078268389420e-02  7.3572604428667698e-02  7.4307213782134146e-02  7.4953415054171885e-02  7.5527257772258702e-02  7.6035004019133268e-02  7.6472547656117593e-02  7.6825451959517788e-02  7.7069625939896080e-02  7.7172786583865866e-02  7.7096980144774632e-02  7.6802498732797653e-02  7.6253410697467564e-02  7.5424496130637841e-02  7.4308598227553424e-02  7.2922461704303679e-02  7.1308624506560087e-02  6.9531801935426005e-02  6.7670805565949982e-02  6.5809434658590862e-02  6.4029670419934265e-02  6.2407239207990337e-02  6.1015270096349529e-02  5.9924022662288412e-02  5.9179791012852742e-02  5.8776705529396567e-02  5.8631081322904580e-02  5.8614911136879028e-02  9.9492581414292000e-02  9.9473126552689542e-02  5.8905169931469867e-02  5.9908842864825236e-02  6.1767169191983017e-02  6.4695789822786051e-02  6.8739968454753095e-02  7.3868439972820568e-02  8.0024594966578308e-02  8.7056879301814730e-02  9.4676681948010030e-02  1.0251513800160979e-01  1.1023348217696380e-01  1.1760373839899066e-01  1.2452214999012348e-01  1.3097514048963432e-01  1.3698958120368576e-01  1.4258256500611305e-01  1.4771574961945355e-01  1.5225951473904009e-01  1.5597379192882080e-01  1.5851229270708145e-01  1.5945571910644982e-01  1.5837700950100297e-01  1.5493553924214304e-01  1.4898580654097862e-01  1.4067188016020093e-01  1.3047011188525809e-01  1.1914953311401630e-01  1.0764371893350436e-01  9.6858863260585529e-02  8.7469625922885430e-02  7.9774155102032895e-02  7.3685883833723667e-02  6.8904833458347428e-02  6.5184751156660753e-02  6.2404603449536307e-02  6.0494243260833865e-02  5.9340630727563196e-02  5.8779961981127470e-02  5.8604098494860653e-02  9.9465151696449150e-02  9.9558833691510390e-02  5.9551225545036952e-02  6.1982515119887290e-02  6.5627477751231386e-02  7.1016964514063460e-02  7.8882257777106390e-02  8.9974018685634816e-02  1.0478336354775558e-01  1.2345331227159823e-01  1.4596861379144274e-01  1.7192796427817678e-01  2.0069461097662980e-01  2.3260658015158775e-01  2.6866418714654466e-01  3.0842303402481719e-01  3.4951525157117497e-01  3.8906611680970660e-01  4.2485366526993984e-01  4.5548688951586946e-01  4.8007909476423472e-01  4.9787014301550658e-01  5.0795206524785863e-01  5.0910466054452086e-01  4.9974123679689925e-01  4.7804714596108422e-01  4.4254348723367765e-01  3.9338107027632108e-01  3.3408079682123309e-01  2.7169757299294794e-01  2.1344631925220589e-01  1.6371028489095898e-01  1.2556400571738030e-01  1.0056158284593894e-01  8.5794086410375142e-02  7.6046784744513624e-02  6.8614467595573117e-02  6.3575602206884713e-02  6.0632274581709597e-02  5.9147052661142320e-02  5.8597398617674615e-02  9.9414908219147627e-02  9.9773199764611548e-02  6.0906623386150820e-02  6.7044494813176050e-02  7.6421992896683485e-02  9.0829590528114429e-02  1.1324719912043243e-01  1.4755389850616060e-01  1.9725611460343126e-01  2.6188033803176880e-01  3.3922228437542939e-01  4.2725742714179926e-01  5.1446172121143430e-01  5.8830924958399966e-01  6.4550122067580573e-01  6.8866620073375950e-01  7.2156641845595126e-01  7.4725416609172191e-01  7.6782285378181236e-01  7.8459451871437214e-01  7.9833920630651389e-01  8.0943723894834141e-01  8.1798254274354210e-01  8.2383943872578591e-01  8.2666063004292767e-01  8.2586446281625092e-01  8.2055674261365164e-01  8.0936571615050024e-01  7.9014023406105904e-01  7.5945927780627054e-01  7.1202235019110960e-01  6.4073689132439671e-01  5.4072434617005039e-01  4.1860905076656835e-01  2.8938060262294663e-01  1.7771955069414044e-01  1.1408130171862295e-01  8.6533255677422372e-02  6.9556626122679530e-02  6.0949923751566125e-02  5.8809543980368847e-02  9.9368529282320622e-02  1.0069779742926961e-01  6.5590277120958967e-02  8.6781685890992652e-02  1.3418076284545077e-01  2.3397837132409333e-01  3.8347579195720294e-01  5.2966770052654089e-01  6.4007497124750412e-01  7.1278131335578065e-01  7.5844785202979614e-01  7.8808082630739817e-01  8.0875679012312585e-01  8.2433285126883904e-01  8.3686556909733945e-01  8.4749679681497547e-01  8.5688405531182554e-01  8.6540542443566937e-01  8.7326512287421343e-01  8.8055294508998028e-01  8.8728011851150745e-01  8.9340228278163591e-01  8.9883538681547370e-01  9.0346823840797830e-01  9.0717463019459033e-01  9.0982747435098033e-01  9.1131642981116689e-01  9.1156836476591974e-01  9.1056588900163649e-01  9.0835223110235186e-01  9.0500013689897096e-01  9.0050767830293743e-01  8.9455973917051979e-01  8.8601694791409857e-01  8.7167741134224563e-01  8.4278422467677372e-01  7.7611270538964461e-01  6.1934250026605431e-01  2.1996665673665139e-01  8.7135208105510578e-02  6.1218687763068831e-02  1.0008714454923689e-01  1.1219931351472280e-01  1.0208585494360531e-01  4.1453255170173087e-01  7.4081488757442449e-01  8.3753878293698569e-01  8.7231669563019787e-01  8.8637728072131994e-01  8.9223135836768441e-01  8.9460223897349667e-01  8.9559618733894275e-01  8.9629134335144711e-01  8.9725348415890349e-01  8.9874336792127618e-01  9.0084227370664249e-01  9.0353194050254859e-01  9.0673902216206659e-01  9.1035871654962552e-01  9.1426912043092567e-01  9.1834161831212369e-01  9.2244883873469219e-01  9.2647050827127886e-01  9.3029773261236759e-01  9.3383708693134948e-01  9.3701692814344584e-01  9.3979889972246045e-01  9.4219640855392706e-01  9.4429661036632284e-01  9.4627034980822489e-01  9.4833674749689567e-01  9.5064372716984735e-01  9.5308180956949307e-01  9.5520220514432475e-01  9.5649167053754214e-01  9.5686344824129199e-01  9.5665686637747716e-01  9.5591164962620911e-01  9.5341241848639258e-01  9.4433678201514437e-01  8.9846306738225501e-01  1.4399347576973204e-01  1.0491243483282335e-01  8.2471085098148267e-01  9.0719306637183006e-01  9.4278330962127688e-01  9.4796350366893845e-01  9.4842935512963822e-01  9.4730139318735207e-01  9.4530066163574999e-01  9.4271720549608340e-01  9.3967528464970129e-01  9.3650343513361667e-01  9.3361252406778317e-01  9.3133891231876365e-01  9.2989041339649925e-01  9.2935327569039317e-01  9.2971555486200697e-01  9.3089162286144966e-01  9.3274645285127333e-01  9.3511948290767766e-01  9.3784613723567589e-01  9.4077461495208370e-01  9.4377644841114794e-01  9.4675083381674863e-01  9.4962430808192078e-01  9.5234858436494285e-01  9.5489961489739605e-01  9.5727901488131251e-01  9.5951366330485044e-01  9.6164274881789136e-01  9.6368537654535624e-01  9.6561483777344237e-01  9.6741585340054315e-01  9.6925972857259501e-01  9.7158523541097719e-01  9.7474952497685774e-01  9.7850445831151978e-01  9.8206221266205374e-01  9.8473047482050524e-01  9.8616855899509615e-01  9.8696128118349558e-01  9.8322228069222317e-01  9.1871715362259077e-01  9.6805440958680300e-01  9.7850755671742073e-01  9.7489868361537668e-01  9.7064062954999730e-01  9.6790764095538440e-01  9.6595019737926380e-01  9.6367415593885619e-01  9.6078831235615758e-01  9.5737438212041259e-01  9.5377021959786723e-01  9.5038453353688968e-01  9.4752602650463491e-01  9.4538771704894053e-01  9.4408568928391923e-01  9.4366695956620883e-01  9.4409901337898561e-01  9.4527339843512537e-01  9.4703009894294921e-01  9.4919100749653906e-01  9.5158937895580320e-01  9.5408825785455209e-01  9.5658694454312365e-01  9.5901821920924879e-01  9.6134058719987459e-01  9.6353019577152055e-01  9.6557673705391367e-01  9.6748619335161967e-01  9.6929089085866194e-01  9.7106609426828161e-01  9.7294966243654890e-01  9.7514041218406422e-01  9.7780966651604817e-01  9.8088897276909226e-01  9.8392855252224765e-01  9.8639642948433826e-01  9.8824257994430342e-01  9.8989854891640083e-01  9.9162950132963956e-01  9.9353637481166168e-01  9.9466792181659092e-01  9.8724709303773006e-01  9.8189868673833514e-01  9.8755030461832161e-01  9.8432129287112180e-01  9.8009285671926627e-01  9.7625942242961739e-01  9.7337731789766435e-01  9.7080690287888405e-01  9.6792504901673004e-01  9.6455799085175953e-01  9.6097285364596041e-01  9.5761574864289911e-01  9.5480214536238295e-01  9.5268290738182759e-01  9.5134566298102274e-01  9.5084879852447257e-01  9.5118789889306643e-01  9.5227091089212668e-01  9.5393367485489700e-01  9.5598044923438918e-01  9.5822421203880870e-01  9.6051282438259877e-01  9.6273977468134309e-01  9.6484425033508037e-01  9.6680546927246869e-01  9.6863478136488390e-01  9.7036938910099357e-01  9.7207204441296147e-01  9.7383494913647950e-01  9.7577130623560304e-01  9.7797033605186634e-01  9.8041342992473368e-01  9.8289891578659283e-01  9.8509803517142303e-01  9.8689338865409226e-01  9.8866399706184904e-01  9.9074061973384309e-01  9.9288734042980997e-01  9.9477056550386289e-01  9.9641669032342906e-01  9.9747466798019102e-01  9.9464597660700416e-01  9.8349401634621458e-01  9.8954684673415783e-01  9.8651945361523707e-01  9.8239048187338684e-01  9.7845395646806577e-01  9.7530655971382019e-01  9.7260132917662134e-01  9.6971252223953563e-01  9.6637769728138434e-01  9.6280329397560460e-01  9.5944282755876764e-01  9.5665196891234117e-01  9.5461873948707165e-01  9.5345412147944819e-01  9.5321982828319818e-01  9.5388956559034355e-01  9.5532805599632775e-01  9.5731946758797304e-01  9.5962170891459930e-01  9.6201460756898716e-01  9.6432811016594688e-01  9.6645399321806180e-01  9.6834966597752603e-01  9.7003759422024016e-01  9.7159714911785044e-01  9.7314521397063014e-01  9.7480753473866100e-01  9.7668450637901538e-01  9.7880846473495886e-01  9.8109169896596971e-01  9.8329024695825640e-01  9.8506871869953838e-01  9.8633432482706940e-01  9.8763601976137672e-01  9.8958386759478245e-01  9.9188663998839932e-01  9.9397285232964372e-01  9.9560771579202423e-01  9.9702921638138597e-01  9.9791238527254400e-01  9.9630414314343330e-01  9.7909666592393663e-01  9.8766557223527329e-01  9.8478382955682209e-01  9.8021567288895239e-01  9.7585768203783008e-01  9.7268364452880807e-01  9.7004413822705848e-01  9.6713807727093448e-01  9.6374183002071379e-01  9.6007165102879632e-01  9.5657061519820430e-01  9.5366783049034143e-01  9.5169092280047096e-01  9.5085241303230339e-01  9.5121379605548606e-01  9.5265983434918278e-01  9.5492999513506138e-01  9.5769546810981776e-01  9.6063774809312541e-01  9.6349792228657083e-01  9.6609497771449260e-01  9.6832915557008126e-01  9.7018503620938235e-01  9.7173514152179252e-01  9.7313053582977305e-01  9.7456299884770659e-01  9.7619951758454526e-01  9.7811326241369312e-01  9.8024222980483167e-01  9.8238190016828941e-01  9.8419929018772678e-01  9.8537873125842856e-01  9.8611038566736819e-01  9.8727692414268320e-01  9.8930340379245640e-01  9.9160159637418988e-01  9.9361489682790249e-01  9.9511271856738159e-01  9.9652472508267620e-01  9.9745588214103520e-01  9.9564913501601915e-01  9.5814900914680512e-01  9.7873190502666940e-01  9.7508857611383848e-01  9.6977705343123910e-01  9.6659447273817856e-01  9.6454028815171133e-01  9.6182289877009708e-01  9.5839481957817430e-01  9.5456528406666563e-01  9.5063417834854380e-01  9.4703779113132436e-01  9.4429877006433804e-01  9.4288168390025295e-01  9.4304429649343957e-01  9.4474755917160524e-01  9.4768115665338537e-01  9.5138727178347871e-01  9.5540252780302959e-01  9.5934999235961937e-01  9.6296685504810087e-01  9.6609349309434345e-01  9.6865751301702963e-01  9.7067203702197191e-01  9.7224450352516500e-01  9.7357200630230534e-01  9.7489607165507730e-01  9.7641541282319566e-01  9.7819834759716073e-01  9.8015115058600821e-01  9.8204255648882521e-01  9.8353754792992676e-01  9.8436346433000799e-01  9.8480470096738737e-01  9.8576066998752809e-01  9.8759659113846254e-01  9.8976853850183422e-01  9.9168329710760528e-01  9.9297744830995771e-01  9.9404245863425622e-01  9.9489892221455012e-01  9.9121844688991845e-01  4.4238849980451850e-01  9.1700151189976253e-01  9.3643191392250136e-01  9.4197553469455075e-01  9.4166785376266082e-01  9.3861971386143872e-01  9.3567464339287987e-01  9.3344689747205278e-01  9.3130075827788694e-01  9.2899495878198923e-01  9.2697455702027942e-01  9.2602718351125912e-01  9.2684570008917866e-01  9.2966949621816797e-01  9.3418286959741170e-01  9.3972027602791997e-01  9.4558231120313430e-01  9.5124150507857086e-01  9.5638380134735679e-01  9.6085576800749084e-01  9.6459741200004490e-01  9.6760254169128712e-01  9.6991584103007766e-01  9.7165293343869319e-01  9.7301166745257073e-01  9.7424003550845295e-01  9.7555420693692818e-01  9.7704934181410363e-01  9.7866445050194140e-01  9.8020668671949007e-01  9.8139228090329889e-01  9.8199163460787142e-01  9.8221281805127059e-01  9.8277077479126740e-01  9.8407147110401960e-01  9.8580482976710559e-01  9.8737916838647011e-01  9.8810265686526588e-01  9.8737705813212806e-01  9.8473032123189208e-01  9.6518529052050062e-01  1.0292402759982298e-01  8.4623098280577930e-02  2.5160517386923387e-01  5.9474324605619133e-01  7.3816122302152021e-01  8.0382027787908594e-01  8.3807922906372356e-01  8.5661219473679673e-01  8.6693977299813996e-01  8.7348118112520634e-01  8.7927835059802650e-01  8.8643879650649915e-01  8.9585585783376054e-01  9.0703332357999111e-01  9.1864437197026882e-01  9.2944044517758118e-01  9.3875973926042022e-01  9.4648798944605417e-01  9.5279584708548004e-01  9.5792189920386472e-01  9.6206705435594619e-01  9.6537076921930642e-01  9.6793480128203446e-01  9.6986926980168386e-01  9.7133078741128964e-01  9.7251973213602716e-01  9.7362664500838880e-01  9.7476047674700106e-01  9.7591025152744770e-01  9.7695406153752473e-01  9.7769324444944439e-01  9.7795400375881714e-01  9.7782027192540089e-01  9.7770530731734573e-01  9.7791157651681693e-01  9.7833402833025918e-01  9.7857484254594662e-01  9.7765873458329677e-01  9.6973959034190182e-01  8.5894886701038375e-01  1.5350090135542771e-01  1.0081351543358552e-01  6.3191712647098081e-02  7.6756873341288584e-02  1.0416549778293294e-01  1.4951189702522283e-01  2.2493365166499638e-01  3.2961593870850237e-01  4.4605272447022359e-01  5.4950339762349598e-01  6.2975748103762197e-01  6.9542614519594359e-01  7.5644848576822288e-01  8.1248752724384699e-01  8.5858761136194972e-01  8.9259471199509621e-01  9.1598342491900897e-01  9.3164651316407765e-01  9.4223094479413583e-01  9.4961828089356526e-01  9.5499887476433809e-01  9.5908150598353181e-01  9.6226698732319149e-01  9.6477149950655350e-01  9.6672202854869915e-01  9.6822723783184828e-01  9.6940762823460169e-01  9.7037801449199013e-01  9.7120581127569205e-01  9.7188399140587167e-01  9.7233444843853301e-01  9.7243149389419137e-01  9.7205797090043755e-01  9.7120637025952428e-01  9.6995930045537215e-01  9.6814218123345774e-01  9.6504157099544630e-01  9.5907718801270758e-01  9.4441345581179703e-01  8.7382859398728108e-01  9.1508153202886633e-02  1.0461417142876563e-01  1.0041745163252749e-01  6.1502531030642398e-02  6.5780042638648548e-02  7.2257903750374622e-02  8.2994557756666448e-02  9.9988363947054112e-02  1.2515040402145322e-01  1.6089896275095533e-01  2.1060758997704182e-01  2.7895414769359461e-01  3.7541397715525215e-01  5.1335147069023501e-01  6.6885308059229354e-01  7.9024934614594355e-01  8.6398627237644932e-01  9.0468009490731705e-01  9.2708159970333370e-01  9.3989984002910765e-01  9.4763618698931129e-01  9.5259014517631335e-01  9.5597924136694179e-01  9.5846624168686223e-01  9.6040329445202599e-01  9.6196657435919286e-01  9.6324513864787664e-01  9.6429026246509919e-01  9.6512409655849940e-01  9.6572584935080030e-01  9.6602503679726615e-01  9.6591604851907820e-01  9.6528794831026210e-01  9.6406798540979799e-01  9.6226475069839978e-01  9.5985954652693772e-01  9.5623807367045677e-01  9.4918385883477363e-01  9.3310364640391685e-01  8.7687297539316900e-01  2.2443124198232248e-01  7.1174017363176897e-02  1.0267115516114805e-01  1.0042173932405148e-01  6.1006182210033628e-02  6.3333638271506509e-02  6.6858695815180683e-02  7.3041697652689141e-02  8.2660324444135458e-02  9.6846524951302831e-02  1.1723201212670341e-01  1.4635094092658882e-01  1.9032768114555659e-01  2.6808356753306589e-01  4.1744631299557711e-01  6.2557062049013634e-01  7.8945950482116256e-01  8.7390980391802819e-01  9.1277994133721829e-01  9.3195027476655889e-01  9.4216544823317427e-01  9.4779104795599656e-01  9.5088746919004896e-01  9.5259655220880168e-01  9.5360692314138595e-01  9.5432145840925653e-01  9.5494740542326040e-01  9.5556486262540252e-01  9.5616999096685529e-01  9.5668871706621084e-01  9.5697629322431077e-01  9.5682793400152788e-01  9.5601437491021002e-01  9.5433932060019588e-01  9.5171431833249298e-01  9.4823068246386977e-01  9.4404725869042061e-01  9.3832511747676839e-01  9.2450916677654504e-01  8.6652423075899387e-01  4.5547144321736294e-01  8.0368694659331635e-02  6.7777514905179650e-02  1.0194665772755861e-01  1.0053737616143467e-01  6.0975351250663577e-02  6.2650944768631298e-02  6.5230344688463754e-02  7.0086078162121604e-02  7.7902914959962349e-02  8.9815434297167943e-02  1.0784525823626538e-01  1.3593673681648269e-01  1.8513593355030672e-01  2.9023351976067369e-01  5.0253096265711439e-01  7.4875694454542274e-01  8.8230497108916339e-01  9.2441005869793191e-01  9.3825904609566890e-01  9.4517818618395710e-01  9.4887165789752470e-01  9.5017162169969105e-01  9.4973109364550201e-01  9.4827398418800302e-01  9.4647738161283979e-01  9.4483850386047130e-01  9.4363442241919904e-01  9.4294885837293463e-01  9.4270539177163315e-01  9.4267891292081651e-01  9.4249550135662130e-01  9.4164593397664986e-01  9.3952706545113129e-01  9.3549851787929894e-01  9.2890104811149499e-01  9.1886330169202068e-01  9.0323902099341524e-01  8.7410449526598777e-01  7.9777773138100949e-01  5.0595268792051973e-01  1.2877320257795560e-01  7.7003539081957714e-02  6.6912299756427290e-02  1.0183249783130341e-01  1.0072482020099713e-01  6.1300860435893757e-02  6.3053105103559895e-02  6.5466275944222316e-02  6.9865846921639135e-02  7.7012021713322443e-02  8.8266785767535633e-02  1.0649100158884185e-01  1.3892565673620705e-01  2.0932584734974782e-01  3.8600409292147497e-01  6.9701656966490844e-01  9.1790278819201632e-01  9.6435881625246123e-01  9.5894196496103123e-01  9.5539465772857446e-01  9.5536217730254069e-01  9.5502717764878764e-01  9.5268138139469505e-01  9.4800477322056009e-01  9.4160382574589363e-01  9.3456064102634362e-01  9.2794456125341318e-01  9.2250803931350556e-01  9.1858595595065495e-01  9.1609772717605031e-01  9.1457163391686902e-01  9.1316372774659649e-01  9.1067080804530887e-01  9.0552395204286906e-01  8.9568085269119446e-01  8.7815299436936700e-01  8.4737522132016230e-01  7.8988406501581876e-01  6.6831241470096825e-01  4.1403512589454722e-01  1.7225011681736141e-01  1.0087940648031922e-01  7.9886841210740633e-02  6.6543349853255176e-02  1.0176786125388404e-01  1.0094848664074127e-01  6.1903072265346318e-02  6.4331409279493865e-02  6.7162989416493388e-02  7.1773296596070707e-02  7.9148118776998205e-02  9.1244815064686055e-02  1.1313140144513373e-01  1.606703398