<?xml version="1.0"?>
<VTKFile type="UnstructuredGrid"  version="0.1"  >
<UnstructuredGrid>
<Piece  NumberOfPoints="1681" NumberOfCells="3200">
<Points>
<DataArray  type="Float64"  NumberOfComponents="3"  format="ascii">0 0 0  0.025 0 0  0.05 0 0  0.075 0 0  0.1 0 0  0.125 0 0  0.15 0 0  0.175 0 0  0.2 0 0  0.225 0 0  0.25 0 0  0.275 0 0  0.3 0 0  0.325 0 0  0.35 0 0  0.375 0 0  0.4 0 0  0.425 0 0  0.45 0 0  0.475 0 0  0.5 0 0  0.525 0 0  0.55 0 0  0.575 0 0  0.6 0 0  0.625 0 0  0.65 0 0  0.675 0 0  0.7 0 0  0.725 0 0  0.75 0 0  0.775 0 0  0.8 0 0  0.825 0 0  0.85 0 0  0.875 0 0  0.9 0 0  0.925 0 0  0.95 0 0  0.975 0 0  1 0 0  0 0.025 0  0.025 0.025 0  0.05 0.025 0  0.075 0.025 0  0.1 0.025 0  0.125 0.025 0  0.15 0.025 0  0.175 0.025 0  0.2 0.025 0  0.225 0.025 0  0.25 0.025 0  0.275 0.025 0  0.3 0.025 0  0.325 0.025 0  0.35 0.025 0  0.375 0.025 0  0.4 0.025 0  0.425 0.025 0  0.45 0.025 0  0.475 0.025 0  0.5 0.025 0  0.525 0.025 0  0.55 0.025 0  0.575 0.025 0  0.6 0.025 0  0.625 0.025 0  0.65 0.025 0  0.675 0.025 0  0.7 0.025 0  0.725 0.025 0  0.75 0.025 0  0.775 0.025 0  0.8 0.025 0  0.825 0.025 0  0.85 0.025 0  0.875 0.025 0  0.9 0.025 0  0.925 0.025 0  0.95 0.025 0  0.975 0.025 0  1 0.025 0  0 0.05 0  0.025 0.05 0  0.05 0.05 0  0.075 0.05 0  0.1 0.05 0  0.125 0.05 0  0.15 0.05 0  0.175 0.05 0  0.2 0.05 0  0.225 0.05 0  0.25 0.05 0  0.275 0.05 0  0.3 0.05 0  0.325 0.05 0  0.35 0.05 0  0.375 0.05 0  0.4 0.05 0  0.425 0.05 0  0.45 0.05 0  0.475 0.05 0  0.5 0.05 0  0.525 0.05 0  0.55 0.05 0  0.575 0.05 0  0.6 0.05 0  0.625 0.05 0  0.65 0.05 0  0.675 0.05 0  0.7 0.05 0  0.725 0.05 0  0.75 0.05 0  0.775 0.05 0  0.8 0.05 0  0.825 0.05 0  0.85 0.05 0  0.875 0.05 0  0.9 0.05 0  0.925 0.05 0  0.95 0.05 0  0.975 0.05 0  1 0.05 0  0 0.075 0  0.025 0.075 0  0.05 0.075 0  0.075 0.075 0  0.1 0.075 0  0.125 0.075 0  0.15 0.075 0  0.175 0.075 0  0.2 0.075 0  0.225 0.075 0  0.25 0.075 0  0.275 0.075 0  0.3 0.075 0  0.325 0.075 0  0.35 0.075 0  0.375 0.075 0  0.4 0.075 0  0.425 0.075 0  0.45 0.075 0  0.475 0.075 0  0.5 0.075 0  0.525 0.075 0  0.55 0.075 0  0.575 0.075 0  0.6 0.075 0  0.625 0.075 0  0.65 0.075 0  0.675 0.075 0  0.7 0.075 0  0.725 0.075 0  0.75 0.075 0  0.775 0.075 0  0.8 0.075 0  0.825 0.075 0  0.85 0.075 0  0.875 0.075 0  0.9 0.075 0  0.925 0.075 0  0.95 0.075 0  0.975 0.075 0  1 0.075 0  0 0.1 0  0.025 0.1 0  0.05 0.1 0  0.075 0.1 0  0.1 0.1 0  0.125 0.1 0  0.15 0.1 0  0.175 0.1 0  0.2 0.1 0  0.225 0.1 0  0.25 0.1 0  0.275 0.1 0  0.3 0.1 0  0.325 0.1 0  0.35 0.1 0  0.375 0.1 0  0.4 0.1 0  0.425 0.1 0  0.45 0.1 0  0.475 0.1 0  0.5 0.1 0  0.525 0.1 0  0.55 0.1 0  0.575 0.1 0  0.6 0.1 0  0.625 0.1 0  0.65 0.1 0  0.675 0.1 0  0.7 0.1 0  0.725 0.1 0  0.75 0.1 0  0.775 0.1 0  0.8 0.1 0  0.825 0.1 0  0.85 0.1 0  0.875 0.1 0  0.9 0.1 0  0.925 0.1 0  0.95 0.1 0  0.975 0.1 0  1 0.1 0  0 0.125 0  0.025 0.125 0  0.05 0.125 0  0.075 0.125 0  0.1 0.125 0  0.125 0.125 0  0.15 0.125 0  0.175 0.125 0  0.2 0.125 0  0.225 0.125 0  0.25 0.125 0  0.275 0.125 0  0.3 0.125 0  0.325 0.125 0  0.35 0.125 0  0.375 0.125 0  0.4 0.125 0  0.425 0.125 0  0.45 0.125 0  0.475 0.125 0  0.5 0.125 0  0.525 0.125 0  0.55 0.125 0  0.575 0.125 0  0.6 0.125 0  0.625 0.125 0  0.65 0.125 0  0.675 0.125 0  0.7 0.125 0  0.725 0.125 0  0.75 0.125 0  0.775 0.125 0  0.8 0.125 0  0.825 0.125 0  0.85 0.125 0  0.875 0.125 0  0.9 0.125 0  0.925 0.125 0  0.95 0.125 0  0.975 0.125 0  1 0.125 0  0 0.15 0  0.025 0.15 0  0.05 0.15 0  0.075 0.15 0  0.1 0.15 0  0.125 0.15 0  0.15 0.15 0  0.175 0.15 0  0.2 0.15 0  0.225 0.15 0  0.25 0.15 0  0.275 0.15 0  0.3 0.15 0  0.325 0.15 0  0.35 0.15 0  0.375 0.15 0  0.4 0.15 0  0.425 0.15 0  0.45 0.15 0  0.475 0.15 0  0.5 0.15 0  0.525 0.15 0  0.55 0.15 0  0.575 0.15 0  0.6 0.15 0  0.625 0.15 0  0.65 0.15 0  0.675 0.15 0  0.7 0.15 0  0.725 0.15 0  0.75 0.15 0  0.775 0.15 0  0.8 0.15 0  0.825 0.15 0  0.85 0.15 0  0.875 0.15 0  0.9 0.15 0  0.925 0.15 0  0.95 0.15 0  0.975 0.15 0  1 0.15 0  0 0.175 0  0.025 0.175 0  0.05 0.175 0  0.075 0.175 0  0.1 0.175 0  0.125 0.175 0  0.15 0.175 0  0.175 0.175 0  0.2 0.175 0  0.225 0.175 0  0.25 0.175 0  0.275 0.175 0  0.3 0.175 0  0.325 0.175 0  0.35 0.175 0  0.375 0.175 0  0.4 0.175 0  0.425 0.175 0  0.45 0.175 0  0.475 0.175 0  0.5 0.175 0  0.525 0.175 0  0.55 0.175 0  0.575 0.175 0  0.6 0.175 0  0.625 0.175 0  0.65 0.175 0  0.675 0.175 0  0.7 0.175 0  0.725 0.175 0  0.75 0.175 0  0.775 0.175 0  0.8 0.175 0  0.825 0.175 0  0.85 0.175 0  0.875 0.175 0  0.9 0.175 0  0.925 0.175 0  0.95 0.175 0  0.975 0.175 0  1 0.175 0  0 0.2 0  0.025 0.2 0  0.05 0.2 0  0.075 0.2 0  0.1 0.2 0  0.125 0.2 0  0.15 0.2 0  0.175 0.2 0  0.2 0.2 0  0.225 0.2 0  0.25 0.2 0  0.275 0.2 0  0.3 0.2 0  0.325 0.2 0  0.35 0.2 0  0.375 0.2 0  0.4 0.2 0  0.425 0.2 0  0.45 0.2 0  0.475 0.2 0  0.5 0.2 0  0.525 0.2 0  0.55 0.2 0  0.575 0.2 0  0.6 0.2 0  0.625 0.2 0  0.65 0.2 0  0.675 0.2 0  0.7 0.2 0  0.725 0.2 0  0.75 0.2 0  0.775 0.2 0  0.8 0.2 0  0.825 0.2 0  0.85 0.2 0  0.875 0.2 0  0.9 0.2 0  0.925 0.2 0  0.95 0.2 0  0.975 0.2 0  1 0.2 0  0 0.225 0  0.025 0.225 0  0.05 0.225 0  0.075 0.225 0  0.1 0.225 0  0.125 0.225 0  0.15 0.225 0  0.175 0.225 0  0.2 0.225 0  0.225 0.225 0  0.25 0.225 0  0.275 0.225 0  0.3 0.225 0  0.325 0.225 0  0.35 0.225 0  0.375 0.225 0  0.4 0.225 0  0.425 0.225 0  0.45 0.225 0  0.475 0.225 0  0.5 0.225 0  0.525 0.225 0  0.55 0.225 0  0.575 0.225 0  0.6 0.225 0  0.625 0.225 0  0.65 0.225 0  0.675 0.225 0  0.7 0.225 0  0.725 0.225 0  0.75 0.225 0  0.775 0.225 0  0.8 0.225 0  0.825 0.225 0  0.85 0.225 0  0.875 0.225 0  0.9 0.225 0  0.925 0.225 0  0.95 0.225 0  0.975 0.225 0  1 0.225 0  0 0.25 0  0.025 0.25 0  0.05 0.25 0  0.075 0.25 0  0.1 0.25 0  0.125 0.25 0  0.15 0.25 0  0.175 0.25 0  0.2 0.25 0  0.225 0.25 0  0.25 0.25 0  0.275 0.25 0  0.3 0.25 0  0.325 0.25 0  0.35 0.25 0  0.375 0.25 0  0.4 0.25 0  0.425 0.25 0  0.45 0.25 0  0.475 0.25 0  0.5 0.25 0  0.525 0.25 0  0.55 0.25 0  0.575 0.25 0  0.6 0.25 0  0.625 0.25 0  0.65 0.25 0  0.675 0.25 0  0.7 0.25 0  0.725 0.25 0  0.75 0.25 0  0.775 0.25 0  0.8 0.25 0  0.825 0.25 0  0.85 0.25 0  0.875 0.25 0  0.9 0.25 0  0.925 0.25 0  0.95 0.25 0  0.975 0.25 0  1 0.25 0  0 0.275 0  0.025 0.275 0  0.05 0.275 0  0.075 0.275 0  0.1 0.275 0  0.125 0.275 0  0.15 0.275 0  0.175 0.275 0  0.2 0.275 0  0.225 0.275 0  0.25 0.275 0  0.275 0.275 0  0.3 0.275 0  0.325 0.275 0  0.35 0.275 0  0.375 0.275 0  0.4 0.275 0  0.425 0.275 0  0.45 0.275 0  0.475 0.275 0  0.5 0.275 0  0.525 0.275 0  0.55 0.275 0  0.575 0.275 0  0.6 0.275 0  0.625 0.275 0  0.65 0.275 0  0.675 0.275 0  0.7 0.275 0  0.725 0.275 0  0.75 0.275 0  0.775 0.275 0  0.8 0.275 0  0.825 0.275 0  0.85 0.275 0  0.875 0.275 0  0.9 0.275 0  0.925 0.275 0  0.95 0.275 0  0.975 0.275 0  1 0.275 0  0 0.3 0  0.025 0.3 0  0.05 0.3 0  0.075 0.3 0  0.1 0.3 0  0.125 0.3 0  0.15 0.3 0  0.175 0.3 0  0.2 0.3 0  0.225 0.3 0  0.25 0.3 0  0.275 0.3 0  0.3 0.3 0  0.325 0.3 0  0.35 0.3 0  0.375 0.3 0  0.4 0.3 0  0.425 0.3 0  0.45 0.3 0  0.475 0.3 0  0.5 0.3 0  0.525 0.3 0  0.55 0.3 0  0.575 0.3 0  0.6 0.3 0  0.625 0.3 0  0.65 0.3 0  0.675 0.3 0  0.7 0.3 0  0.725 0.3 0  0.75 0.3 0  0.775 0.3 0  0.8 0.3 0  0.825 0.3 0  0.85 0.3 0  0.875 0.3 0  0.9 0.3 0  0.925 0.3 0  0.95 0.3 0  0.975 0.3 0  1 0.3 0  0 0.325 0  0.025 0.325 0  0.05 0.325 0  0.075 0.325 0  0.1 0.325 0  0.125 0.325 0  0.15 0.325 0  0.175 0.325 0  0.2 0.325 0  0.225 0.325 0  0.25 0.325 0  0.275 0.325 0  0.3 0.325 0  0.325 0.325 0  0.35 0.325 0  0.375 0.325 0  0.4 0.325 0  0.425 0.325 0  0.45 0.325 0  0.475 0.325 0  0.5 0.325 0  0.525 0.325 0  0.55 0.325 0  0.575 0.325 0  0.6 0.325 0  0.625 0.325 0  0.65 0.325 0  0.675 0.325 0  0.7 0.325 0  0.725 0.325 0  0.75 0.325 0  0.775 0.325 0  0.8 0.325 0  0.825 0.325 0  0.85 0.325 0  0.875 0.325 0  0.9 0.325 0  0.925 0.325 0  0.95 0.325 0  0.975 0.325 0  1 0.325 0  0 0.35 0  0.025 0.35 0  0.05 0.35 0  0.075 0.35 0  0.1 0.35 0  0.125 0.35 0  0.15 0.35 0  0.175 0.35 0  0.2 0.35 0  0.225 0.35 0  0.25 0.35 0  0.275 0.35 0  0.3 0.35 0  0.325 0.35 0  0.35 0.35 0  0.375 0.35 0  0.4 0.35 0  0.425 0.35 0  0.45 0.35 0  0.475 0.35 0  0.5 0.35 0  0.525 0.35 0  0.55 0.35 0  0.575 0.35 0  0.6 0.35 0  0.625 0.35 0  0.65 0.35 0  0.675 0.35 0  0.7 0.35 0  0.725 0.35 0  0.75 0.35 0  0.775 0.35 0  0.8 0.35 0  0.825 0.35 0  0.85 0.35 0  0.875 0.35 0  0.9 0.35 0  0.925 0.35 0  0.95 0.35 0  0.975 0.35 0  1 0.35 0  0 0.375 0  0.025 0.375 0  0.05 0.375 0  0.075 0.375 0  0.1 0.375 0  0.125 0.375 0  0.15 0.375 0  0.175 0.375 0  0.2 0.375 0  0.225 0.375 0  0.25 0.375 0  0.275 0.375 0  0.3 0.375 0  0.325 0.375 0  0.35 0.375 0  0.375 0.375 0  0.4 0.375 0  0.425 0.375 0  0.45 0.375 0  0.475 0.375 0  0.5 0.375 0  0.525 0.375 0  0.55 0.375 0  0.575 0.375 0  0.6 0.375 0  0.625 0.375 0  0.65 0.375 0  0.675 0.375 0  0.7 0.375 0  0.725 0.375 0  0.75 0.375 0  0.775 0.375 0  0.8 0.375 0  0.825 0.375 0  0.85 0.375 0  0.875 0.375 0  0.9 0.375 0  0.925 0.375 0  0.95 0.375 0  0.975 0.375 0  1 0.375 0  0 0.4 0  0.025 0.4 0  0.05 0.4 0  0.075 0.4 0  0.1 0.4 0  0.125 0.4 0  0.15 0.4 0  0.175 0.4 0  0.2 0.4 0  0.225 0.4 0  0.25 0.4 0  0.275 0.4 0  0.3 0.4 0  0.325 0.4 0  0.35 0.4 0  0.375 0.4 0  0.4 0.4 0  0.425 0.4 0  0.45 0.4 0  0.475 0.4 0  0.5 0.4 0  0.525 0.4 0  0.55 0.4 0  0.575 0.4 0  0.6 0.4 0  0.625 0.4 0  0.65 0.4 0  0.675 0.4 0  0.7 0.4 0  0.725 0.4 0  0.75 0.4 0  0.775 0.4 0  0.8 0.4 0  0.825 0.4 0  0.85 0.4 0  0.875 0.4 0  0.9 0.4 0  0.925 0.4 0  0.95 0.4 0  0.975 0.4 0  1 0.4 0  0 0.425 0  0.025 0.425 0  0.05 0.425 0  0.075 0.425 0  0.1 0.425 0  0.125 0.425 0  0.15 0.425 0  0.175 0.425 0  0.2 0.425 0  0.225 0.425 0  0.25 0.425 0  0.275 0.425 0  0.3 0.425 0  0.325 0.425 0  0.35 0.425 0  0.375 0.425 0  0.4 0.425 0  0.425 0.425 0  0.45 0.425 0  0.475 0.425 0  0.5 0.425 0  0.525 0.425 0  0.55 0.425 0  0.575 0.425 0  0.6 0.425 0  0.625 0.425 0  0.65 0.425 0  0.675 0.425 0  0.7 0.425 0  0.725 0.425 0  0.75 0.425 0  0.775 0.425 0  0.8 0.425 0  0.825 0.425 0  0.85 0.425 0  0.875 0.425 0  0.9 0.425 0  0.925 0.425 0  0.95 0.425 0  0.975 0.425 0  1 0.425 0  0 0.45 0  0.02
[...]
<PointData  Scalars="ControlVisualisation"> 
<DataArray  type="Float64"  Name="ControlVisualisation"  format="ascii">1.7542719408778634e-01  1.2838341246611051e-01  1.2841684764207070e-01  1.2862199969095359e-01  1.2902499834661738e-01  1.2957202243298538e-01  1.3017570378336515e-01  1.3075348659915650e-01  1.3125202272582365e-01  1.3165223612465862e-01  1.3196066219166180e-01  1.3219673634136700e-01  1.3238271941276308e-01  1.3253803149826160e-01  1.3267710191601262e-01  1.3280921113116140e-01  1.3293908837300442e-01  1.3306758488322215e-01  1.3319220174228366e-01  1.3330749736717812e-01  1.3340548695061233e-01  1.3347616005192292e-01  1.3350822734948975e-01  1.3349016288031157e-01  1.3341151562543843e-01  1.3326431769459429e-01  1.3304424145165447e-01  1.3275102672883915e-01  1.3238777605937690e-01  1.3195933472038154e-01  1.3147129283519504e-01  1.3093151525238581e-01  1.3035489525916100e-01  1.2976968091097388e-01  1.2922425964034812e-01  1.2878540087466728e-01  1.2850494538888232e-01  1.2838621750342066e-01  1.2837672305811140e-01  1.2839991537678286e-01  2.7625530754104682e-01  1.2838006027177859e-01  7.3761810503291086e-02  7.4065143006692258e-02  7.4841527890048568e-02  7.6175789785204590e-02  7.7961354034433550e-02  7.9986175981993340e-02  8.2025222162132524e-02  8.3905268582327802e-02  8.5535130905710119e-02  8.6899376459729519e-02  8.8031163662590020e-02  8.8983926155719761e-02  8.9811699592973387e-02  9.0558940907207813e-02  9.1256833128428139e-02  9.1922633978528581e-02  9.2559847342311208e-02  9.3158411220749984e-02  9.3694961025844195e-02  9.4133594057920544e-02  9.4427712812141337e-02  9.4523585173252905e-02  9.4366144577133909e-02  9.3907080252799952e-02  9.3114324087480146e-02  9.1980768537717500e-02  9.0528988892615223e-02  8.8808940581957388e-02  8.6888545265753347e-02  8.4842508335964129e-02  8.2746625254526057e-02  8.0678873397342976e-02  7.8720042897126696e-02  7.6967135192579486e-02  7.5537041806135144e-02  7.4526409742571770e-02  7.3957298299175842e-02  7.3738232376607191e-02  7.3706290007347131e-02  1.2839978026623891e-01  1.2837824141685061e-01  7.4042148338262517e-02  7.5220558310486310e-02  7.7397143256947007e-02  8.0788135489778104e-02  8.5373602688993494e-02  9.0979867752311303e-02  9.7369061987365710e-02  1.0424255237442621e-01  1.1126505862514710e-01  1.1812984992727449e-01  1.2462782277923382e-01  1.3067392628248078e-01  1.3628035053299861e-01  1.4151014917430257e-01  1.4643894658234580e-01  1.5112432552788702e-01  1.5557599591999507e-01  1.5972762158821632e-01  1.6341594230160977e-01  1.6637298875434567e-01  1.6823704193414205e-01  1.6858876372591655e-01  1.6701811888240276e-01  1.6322123431780064e-01  1.5711164025112148e-01  1.4891035407213568e-01  1.3916564557197877e-01  1.2866525509597193e-01  1.1825527969557169e-01  1.0864510517337750e-01  1.0027922218918409e-01  9.3283302198899312e-02  8.7512746991351725e-02  8.2804381544636874e-02  7.9110607977875391e-02  7.6474438273447035e-02  7.4829522850068428e-02  7.3993523301275982e-02  7.3703998520208217e-02  1.2836844402012165e-01  1.2846773436637826e-01  7.4797310808147527e-02  7.7659730214016759e-02  8.1906684659615342e-02  8.8047681585253237e-02  9.6701521227159942e-02  1.0826725555508815e-01  1.2264250730921054e-01  1.3927845334640063e-01  1.5745059092282507e-01  1.7582854823529348e-01  1.9244167456585648e-01  2.0608606377575484e-01  2.1696278345869990e-01  2.2600753159430675e-01  2.3466204946547461e-01  2.4480723651539066e-01  2.5819223491710919e-01  2.7563985724998319e-01  2.9648490173519410e-01  3.1857548923688395e-01  3.3885236237346866e-01  3.5416758408503324e-01  3.6198013982785926e-01  3.6082026830735958e-01  3.5053091694948324e-01  3.3203379028602592e-01  3.0634359870564543e-01  2.7395835573123190e-01  2.3611372951810211e-01  1.9628648833809387e-01  1.6030205573491244e-01  1.3307654643249867e-01  1.1400750861896422e-01  9.9423846104684244e-02  8.8124210650777413e-02  8.0930549211689476e-02  7.6818893773406921e-02  7.4654353985302818e-02  7.3746684921347630e-02  1.2831555433568842e-01  1.2868963110208373e-01  7.6400525562800400e-02  8.3836546582437402e-02  9.5362194504070061e-02  1.1241290922323768e-01  1.3723950882142200e-01  1.7215980425447103e-01  2.1576761187514343e-01  2.5832594662266234e-01  2.8985372243411350e-01  3.1295701983103530e-01  3.3607115109290098e-01  3.6313253998089345e-01  3.9551715091966649e-01  4.3454317888138150e-01  4.7985120741938470e-01  5.2857249428718356e-01  5.7668761672050461e-01  6.2080965698839286e-01  6.5897585149922677e-01  6.9047520508634341e-01  7.1532105618585096e-01  7.3378018915260101e-01  7.4606833473186596e-01  7.5217531912367275e-01  7.5175442985885754e-01  7.4403032064342822e-01  7.2773129303716022e-01  7.0118331784142818e-01  6.6303205022467926e-01  6.1444660663206374e-01  5.6163094875446262e-01  5.0904980358091867e-01  4.3696298303967107e-01  3.0329998859578561e-01  1.7702017745495291e-01  1.2363533129126208e-01  9.2238243895127664e-02  7.7653140046301583e-02  7.4223551505427143e-02  1.2830382167048554e-01  1.3015818593211437e-01  8.2774209090461764e-02  1.0975001674725247e-01  1.7190906705311809e-01  3.0073282918915278e-01  4.2969546487717158e-01  5.0557172784681315e-01  5.6702821273136694e-01  6.1870767601870968e-01  6.5459041920085992e-01  6.7833954214045156e-01  6.9617113172542888e-01  7.1237508181612619e-01  7.2907650970563276e-01  7.4693209946395012e-01  7.6567285997213264e-01  7.8455509726203743e-01  8.0275482627591044e-01  8.1962058918010128e-01  8.3475478104339440e-01  8.4797821888969449e-01  8.5925231342123987e-01  8.6860722273898194e-01  8.7609419544517320e-01  8.8176282005906903e-01  8.8565727660454518e-01  8.8782383872468962e-01  8.8832089966464567e-01  8.8722189262800832e-01  8.8460131233397710e-01  8.8048973251752249e-01  8.7474376230467477e-01  8.6660693414931256e-01  8.5332237267498789e-01  8.2689941801865496e-01  7.7298073522080535e-01  7.2577433843651440e-01  9.9219967646736651e-01  1.3983136347642763e-01  7.8696673540213202e-02  1.3002866418693032e-01  1.4491946470225578e-01  1.4206392400102694e-01  5.1319252262298620e-01  6.8960708795258363e-01  7.9095508403391479e-01  8.3482524511866130e-01  8.5130287879030053e-01  8.5689658365040999e-01  8.5809291753426942e-01  8.5744822672525101e-01  8.5630593080474837e-01  8.5564072196243612e-01  8.5618193367034823e-01  8.5838366428303869e-01  8.6238166589509158e-01  8.6799447100687710e-01  8.7480509022380448e-01  8.8229837977620007e-01  8.8998932793851937e-01  8.9749696505017829e-01  9.0456141143669266e-01  9.1102661682899100e-01  9.1681274583526251e-01  9.2189336557493895e-01  9.2628417865748325e-01  9.3004435724719614e-01  9.3328618292632126e-01  9.3618051670946922e-01  9.3893485223369355e-01  9.4171810039548998e-01  9.4453874921291581e-01  9.4716864299979409e-01  9.4925719085541249e-01  9.5059075599176512e-01  9.5112711343234813e-01  9.5058215407905911e-01  9.4761993219172702e-01  9.3697829283604039e-01  8.8616693769383348e-01  4.8453138078028801e-01  1.3751150962444722e-01  8.0105455373867385e-01  8.8607888277457025e-01  9.3081899888513464e-01  9.3658128417086683e-01  9.3628794614399546e-01  9.3502110435022834e-01  9.3260933557072911e-01  9.2916298936254327e-01  9.2484745321775830e-01  9.2005467637617699e-01  9.1532052910465145e-01  9.1122117398485047e-01  9.0828446660228634e-01  9.0689523806818462e-01  9.0721140128498801e-01  9.0913509087527544e-01  9.1236290507369122e-01  9.1649011977928863e-01  9.2111572247507645e-01  9.2590971798920374e-01  9.3063633173833726e-01  9.3514718425216770e-01  9.3936173332578587e-01  9.4324718425468812e-01  9.4680421732383568e-01  9.5006001488277658e-01  9.5306483435982536e-01  9.5588307601058409e-01  9.5857150480522646e-01  9.6115815524114978e-01  9.6366846052500665e-01  9.6622388588865749e-01  9.6908894739792517e-01  9.7245390958675049e-01  9.7609890046481185e-01  9.7943493807694204e-01  9.8192156459724977e-01  9.8320696596548574e-01  9.8347050798081914e-01  9.7950789058193466e-01  9.0401078783165323e-01  9.6344397646917301e-01  9.7537724138348902e-01  9.7170666703006048e-01  9.6732304689302306e-01  9.6391500386498508e-01  9.6099778181155782e-01  9.5773014176605131e-01  9.5379092225143580e-01  9.4917777202463482e-01  9.4416173035186735e-01  9.3916292005809143e-01  9.3464104362472755e-01  9.3105447477201675e-01  9.2879409604284680e-01  9.2807465699177172e-01  9.2886515641961820e-01  9.3091712080624267e-01  9.3386685378992496e-01  9.3734511560175249e-01  9.4104766117740690e-01  9.4475955661787048e-01  9.4834850264935822e-01  9.5174472962013035e-01  9.5491931880317149e-01  9.5786738567613883e-01  9.6059929006835165e-01  9.6314059799837015e-01  9.6553889135803694e-01  9.6787387345493725e-01  9.7026575005331350e-01  9.7286570933688654e-01  9.7578883368285851e-01  9.7896929488594131e-01  9.8207142722055019e-01  9.8471024698998533e-01  9.8685115586824812e-01  9.8879818079540194e-01  9.9072027061979639e-01  9.9265756477640454e-01  9.9389607348216624e-01  9.8573865479340539e-01  9.7904630741604715e-01  9.8609440289873773e-01  9.8258251544251285e-01  9.7811550252612500e-01  9.7385581670862997e-01  9.7026889806319250e-01  9.6685537816487288e-01  9.6306330200117640e-01  9.5868985880407154e-01  9.5392099602250802e-01  9.4915787931077655e-01  9.4481996382149347e-01  9.4131484288731249e-01  9.3902294170084233e-01  9.3818689350099316e-01  9.3880357336274545e-01  9.4063175350360595e-01  9.4330237959534025e-01  9.4644277336229143e-01  9.4975294727216253e-01  9.5302812716377494e-01  9.5614906206345218e-01  9.5906122910315705e-01  9.6175459108637296e-01  9.6424830508066450e-01  9.6658212910636221e-01  9.6881543195864728e-01  9.7103001285667445e-01  9.7332289276425710e-01  9.7577141033863701e-01  9.7837094934546642e-01  9.8098214715096188e-01  9.8337534928640902e-01  9.8547400913511407e-01  9.8754937751826810e-01  9.8982322109381449e-01  9.9210026708520593e-01  9.9410480500089971e-01  9.9581440324708392e-01  9.9693332489361142e-01  9.9376641207020178e-01  9.8104616537328848e-01  9.8833743546583641e-01  9.8505993794909308e-01  9.8070638662386656e-01  9.7638428961151702e-01  9.7261971267472658e-01  9.6913909201253345e-01  9.6540209780396369e-01  9.6114509895836309e-01  9.5650557177646511e-01  9.5188078981116264e-01  9.4770848891011283e-01  9.4442021694594214e-01  9.4241899139413376e-01  9.4194750689253381e-01  9.4296224598742873e-01  9.4515471075349611e-01  9.4809522298224569e-01  9.5137853280843265e-01  9.5469943288333048e-01  9.5786431641846259e-01  9.6077309658882082e-01  9.6339725393226361e-01  9.6576318928651661e-01  9.6793880364377405e-01  9.7001825831912503e-01  9.7210276994152378e-01  9.7427684929831015e-01  9.7657661281505892e-01  9.7895095144511646e-01  9.8123660277533953e-01  9.8320978829977590e-01  9.8482788489216611e-01  9.8649939933490416e-01  9.8865011240948664e-01  9.9104324362852303e-01  9.9323179620916791e-01  9.9500616568049050e-01  9.9650015066015252e-01  9.9744977336782503e-01  9.9547650557155010e-01  9.7609455113596799e-01  9.8624206415339066e-01  9.8299415817232372e-01  9.7825146766525173e-01  9.7354982240737997e-01  9.6967847568194598e-01  9.6616213677839025e-01  9.6235500303340837e-01  9.5803184778168660e-01  9.5334646655283284e-01  9.4870503626586944e-01  9.4462204337566846e-01  9.4165307609303461e-01  9.4027835147519090e-01  9.4069916475385473e-01  9.4272265188757387e-01  9.4586539156667637e-01  9.4957633743400738e-01  9.5340435975239968e-01  9.5705164165849954e-01  9.6035519483356846e-01  9.6325086766678147e-01  9.6574785281449838e-01  9.6791656461219733e-01  9.6987782252045518e-01  9.7177833777952505e-01  9.7374783015555588e-01  9.7585063621245538e-01  9.7805381087384835e-01  9.8022058812347845e-01  9.8212496292188400e-01  9.8356556465350786e-01  9.8471460732790839e-01  9.8622205578607325e-01  9.8837582559033432e-01  9.9072114871672690e-01  9.9281792493458099e-01  9.9446273468851099e-01  9.9593489260554269e-01  9.9692249052171555e-01  9.9476740953250509e-01  9.5189186515781843e-01  9.7583755012986773e-01  9.7194183134768664e-01  9.6665000279963320e-01  9.6269242980737590e-01  9.5948991036207598e-01  9.5581566065115120e-01  9.5159347768264613e-01  9.4697411699970580e-01  9.4217276323736121e-01  9.3761713129298430e-01  9.3395301136431108e-01  9.3192244779966171e-01  9.3207369630044623e-01  9.3443100925528944e-01  9.3845088474148974e-01  9.4333485767302083e-01  9.4838291743015679e-01  9.5314294355539819e-01  9.5738697597089328e-01  9.6103332758386395e-01  9.6408454541795707e-01  9.6659897240736059e-01  9.6868651933513050e-01  9.7050597919770565e-01  9.7223977359245417e-01  9.7403898612582718e-01  9.7596301423475174e-01  9.7795430935394190e-01  9.7985480269841307e-01  9.8143604792962358e-01  9.8252905451864636e-01  9.8337740074626179e-01  9.8464703085494309e-01  9.8658379962619791e-01  9.8876066034982313e-01  9.9070630923592762e-01  9.9211946319726441e-01  9.9325445136172363e-01  9.9408839657329784e-01  9.9002530839337033e-01  5.8677894943589448e-01  9.0028153184320836e-01  9.2349988222864066e-01  9.2945042828464686e-01  9.2876518945321540e-01  9.2602943639310165e-01  9.2336326132657276e-01  9.2097884566920507e-01  9.1832706618460425e-01  9.1529586597689849e-01  9.1244651558030399e-01  9.1087624012655855e-01  9.1181993937798378e-01  9.1588955253782389e-01  9.2251847994235381e-01  9.3035391278666701e-01  9.3813931447269516e-01  9.4515793268203441e-01  9.5116136983458710e-01  9.5615401229568175e-01  9.6023540547543651e-01  9.6352541546076231e-01  9.6614726210622870e-01  9.6824068480359293e-01  9.6997641053028993e-01  9.7154438207198246e-01  9.7310626437394454e-01  9.7473714868445260e-01  9.7639973100309174e-01  9.7796078782036544e-01  9.7922495257448405e-01  9.8004760649089206e-01  9.8061109346625386e-01  9.8145034388223740e-01  9.8284057355201382e-01  9.8450627890621789e-01  9.8593846091794579e-01  9.8650696211943989e-01  9.8547702286749461e-01  9.8170782967258152e-01  9.6044142760608531e-01  1.3337918397286788e-01  1.1675114411915125e-01  5.6042617670608297e-01  6.9324340664678108e-01  7.3626314117642111e-01  7.8322567869658255e-01  8.1359633711258206e-01  8.3084964753570489e-01  8.4018563348584419e-01  8.4545458246085370e-01  8.4992828053560798e-01  8.5691700397883508e-01  8.6886036613438378e-01  8.8526102031527298e-01  9.0283365127195170e-01  9.1851239006969188e-01  9.3112745645944206e-01  9.4083825587210301e-01  9.4823929454148614e-01  9.5391542115520345e-01  9.5831514221951120e-01  9.6175024868875314e-01  9.6443527912167826e-01  9.6653697148049245e-01  9.6821483153393273e-01  9.6963282487282032e-01  9.7093427532684173e-01  9.7219939763667562e-01  9.7342072414889080e-01  9.7450983482354492e-01  9.7532395732352739e-01  9.7574370927233889e-01  9.7584243066594167e-01  9.7592291567081912e-01  9.7616529596070223e-01  9.7637393003999984e-01  9.7599457212202823e-01  9.7362900159266130e-01  9.6283618379635916e-01  8.3801100483915092e-01  2.0557627455183569e-01  1.3021749948445233e-01  7.9573583465671033e-02  9.8503015807697172e-02  1.4008284112831818e-01  2.1009898943557190e-01  3.3507580146277111e-01  4.7073410814535410e-01  5.4868536767086129e-01  5.8951715439512042e-01  6.1701540014034562e-01  6.4874230745272188e-01  6.9752848068200934e-01  7.6166968340845875e-01  8.2440378540391412e-01  8.7194074354112650e-01  9.0343824170692055e-01  9.2355247626610937e-01  9.3655876910622538e-01  9.4524886666822339e-01  9.5128881639009655e-01  9.5565635982649988e-01  9.5892522197422769e-01  9.6143221399170842e-01  9.6338300461176740e-01  9.6492218252921125e-01  9.6616846511558097e-01  9.6721435900413233e-01  9.6810593492460340e-01  9.6882878278640083e-01  9.6931226174881813e-01  9.6944667379611815e-01  9.6912319393879620e-01  9.6830356705773468e-01  9.6698901777525748e-01  9.6491043005431565e-01  9.6116776199306142e-01  9.5352479295958081e-01  9.3431881194977173e-01  8.3769559991367692e-01  1.3741150273612912e-01  1.3511641775427949e-01  1.2955293578191313e-01  7.7204069681693480e-02  8.2213571165303784e-02  8.9835119841367203e-02  1.0248670334014699e-01  1.2250924850758169e-01  1.5095205903112824e-01  1.8821499837801176e-01  2.3343915674499061e-01  2.8348262882753611e-01  3.3999302545449572e-01  4.3511748318507026e-01  6.0068630687056068e-01  7.5473788816589993e-01  8.4536486377364173e-01  8.9329158048761326e-01  9.1927560389328244e-01  9.3412746036637240e-01  9.4307686430517967e-01  9.4872936913262440e-01  9.5246588749614847e-01  9.5505983685199392e-01  9.5695306767827504e-01  9.5839593559157710e-01  9.5953013479986937e-01  9.6043424860017934e-01  9.6113778588920196e-01  9.6161775132923089e-01  9.6179783113668749e-01  9.6155961431207615e-01  9.6076034249087272e-01  9.5925303021288677e-01  9.5689128724889805e-01  9.5338511063144749e-01  9.4769852132124677e-01  9.3665204742098407e-01  9.1062277837446060e-01  8.1249539341513866e-01  2.2862826084165033e-01  9.2190416159345492e-02  1.3238264218394338e-01  1.2957971328941495e-01  7.6468013457958978e-02  7.8943351076926932e-02  8.2894043296480938e-02  8.9793291861210600e-02  1.0025614434528859e-01  1.1489865961568625e-01  1.3443535841068441e-01  1.6019291155187679e-01  1.9619171312961498e-01  2.5537101109490046e-01  3.8035377219794397e-01  6.0746547808760798e-01  7.7987718922804472e-01  8.6325748772674915e-01  9.0333385647599884e-01  9.2426224353061004e-01  9.3596120521561821e-01  9.4267194976513002e-01  9.4648503905991255e-01  9.4858788177195907e-01  9.4971387647611627e-01  9.5031810830496111e-01  9.5066751479733103e-01  9.5089991254716222e-01  9.5105801481547136e-01  9.5109988769824594e-01  9.5089795974192404e-01  9.5024391646839057e-01  9.4886709023820714e-01  9.4645748871286095e-01  9.4267303813700998e-01  9.3707084963593734e-01  9.2868480334969195e-01  9.1408529313735032e-01  8.7852660627871426e-01  7.3587521463817429e-01  2.7523687232411698e-01  1.1003038091863426e-01  8.5828301998066847e-02  1.3116009299460535e-01  1.2974365514240332e-01  7.6302069809557727e-02  7.7779167013698233e-02  8.0529693282562362e-02  8.5853652662910979e-02  9.4277323564348287e-02  1.0659719957650690e-01  1.2421084809787965e-01  1.5029862717437401e-01  1.9495267073057410e-01  2.9491248976707507e-01  5.4213752570064699e-01  7.7719525719301685e-01  8.7479069408160393e-01  9.1163300192251595e-01  9.2720470866071936e-01  9.3614284141746862e-01  9.4145289722622538e-01  9.4397975736415685e-01  9.4440659968715934e-01  9.4343927224437907e-01  9.4172372272960880e-01  9.3975913208827955e-01  9.3787021045762442e-01  9.3621826698247679e-01  9.3481185932043609e-01  9.3349954965007387e-01  9.3195228184412726e-01  9.2965143066127987e-01  9.2588490674705592e-01  9.1971670564107011e-01  9.0981579064581297e-01  8.9378159981803595e-01  8.6557066864837329e-01  8.0442943561742719e-01  6.1853068688986224e-01  2.7562258124062422e-01  1.4693498879798950e-01  9.9808360100368726e-02  8.4068858281487330e-02  1.3096765707854202e-01  1.2998875209535271e-01  7.6574503495588669e-02  7.7919480575290870e-02  8.0356541488668706e-02  8.5034103248445500e-02  9.2565521092108943e-02  1.0410994549962664e-01  1.2227695097310899e-01  1.5433761597079834e-01  2.2650411896038664e-01  4.4882841319234246e-01  7.8107452292239155e-01  9.0417105270303999e-01  9.4130119211102237e-01  9.4287072577561148e-01  9.4316859163494804e-01  9.4516379062885714e-01  9.4625033346200882e-01  9.4509580802155924e-01  9.4144116850432724e-01  9.3572676827819157e-01  9.2875188756847860e-01  9.2135772737532662e-01  9.1422997421160546e-01  9.0780489412170584e-01  9.0220970529610023e-01  8.9719399636368535e-01  8.9204897213760992e-01  8.8551961706405558e-01  8.7567075673642292e-01  8.5953836211513346e-01  8.3204967764808524e-01  7.8262190871302961e-01  6.8466200130111543e-01  4.8317669629757959e-01  2.7175957251647287e-01  1.7382920127283177e-01  1.2183219877554032e-01  9.9709576971795749e-02  8.3300482594359349e-02  1.3086253017779986e-01  1.3026304198241007e-01  7.7178178913521064e-02  7.9096996167164813e-02  8.1880463163105766e-02  8.6634967047179726e-02  9.4235045725069119e-02  1.0665949299066421e-01  1.2938468800948388e-01  1.806277711