<?xml version="1.0"?>
<VTKFile type="UnstructuredGrid"  version="0.1"  >
<UnstructuredGrid>
<Piece  NumberOfPoints="1681" NumberOfCells="3200">
<Points>
<DataArray  type="Float64"  NumberOfComponents="3"  format="ascii">0 0 0  0.025 0 0  0.05 0 0  0.075 0 0  0.1 0 0  0.125 0 0  0.15 0 0  0.175 0 0  0.2 0 0  0.225 0 0  0.25 0 0  0.275 0 0  0.3 0 0  0.325 0 0  0.35 0 0  0.375 0 0  0.4 0 0  0.425 0 0  0.45 0 0  0.475 0 0  0.5 0 0  0.525 0 0  0.55 0 0  0.575 0 0  0.6 0 0  0.625 0 0  0.65 0 0  0.675 0 0  0.7 0 0  0.725 0 0  0.75 0 0  0.775 0 0  0.8 0 0  0.825 0 0  0.85 0 0  0.875 0 0  0.9 0 0  0.925 0 0  0.95 0 0  0.975 0 0  1 0 0  0 0.025 0  0.025 0.025 0  0.05 0.025 0  0.075 0.025 0  0.1 0.025 0  0.125 0.025 0  0.15 0.025 0  0.175 0.025 0  0.2 0.025 0  0.225 0.025 0  0.25 0.025 0  0.275 0.025 0  0.3 0.025 0  0.325 0.025 0  0.35 0.025 0  0.375 0.025 0  0.4 0.025 0  0.425 0.025 0  0.45 0.025 0  0.475 0.025 0  0.5 0.025 0  0.525 0.025 0  0.55 0.025 0  0.575 0.025 0  0.6 0.025 0  0.625 0.025 0  0.65 0.025 0  0.675 0.025 0  0.7 0.025 0  0.725 0.025 0  0.75 0.025 0  0.775 0.025 0  0.8 0.025 0  0.825 0.025 0  0.85 0.025 0  0.875 0.025 0  0.9 0.025 0  0.925 0.025 0  0.95 0.025 0  0.975 0.025 0  1 0.025 0  0 0.05 0  0.025 0.05 0  0.05 0.05 0  0.075 0.05 0  0.1 0.05 0  0.125 0.05 0  0.15 0.05 0  0.175 0.05 0  0.2 0.05 0  0.225 0.05 0  0.25 0.05 0  0.275 0.05 0  0.3 0.05 0  0.325 0.05 0  0.35 0.05 0  0.375 0.05 0  0.4 0.05 0  0.425 0.05 0  0.45 0.05 0  0.475 0.05 0  0.5 0.05 0  0.525 0.05 0  0.55 0.05 0  0.575 0.05 0  0.6 0.05 0  0.625 0.05 0  0.65 0.05 0  0.675 0.05 0  0.7 0.05 0  0.725 0.05 0  0.75 0.05 0  0.775 0.05 0  0.8 0.05 0  0.825 0.05 0  0.85 0.05 0  0.875 0.05 0  0.9 0.05 0  0.925 0.05 0  0.95 0.05 0  0.975 0.05 0  1 0.05 0  0 0.075 0  0.025 0.075 0  0.05 0.075 0  0.075 0.075 0  0.1 0.075 0  0.125 0.075 0  0.15 0.075 0  0.175 0.075 0  0.2 0.075 0  0.225 0.075 0  0.25 0.075 0  0.275 0.075 0  0.3 0.075 0  0.325 0.075 0  0.35 0.075 0  0.375 0.075 0  0.4 0.075 0  0.425 0.075 0  0.45 0.075 0  0.475 0.075 0  0.5 0.075 0  0.525 0.075 0  0.55 0.075 0  0.575 0.075 0  0.6 0.075 0  0.625 0.075 0  0.65 0.075 0  0.675 0.075 0  0.7 0.075 0  0.725 0.075 0  0.75 0.075 0  0.775 0.075 0  0.8 0.075 0  0.825 0.075 0  0.85 0.075 0  0.875 0.075 0  0.9 0.075 0  0.925 0.075 0  0.95 0.075 0  0.975 0.075 0  1 0.075 0  0 0.1 0  0.025 0.1 0  0.05 0.1 0  0.075 0.1 0  0.1 0.1 0  0.125 0.1 0  0.15 0.1 0  0.175 0.1 0  0.2 0.1 0  0.225 0.1 0  0.25 0.1 0  0.275 0.1 0  0.3 0.1 0  0.325 0.1 0  0.35 0.1 0  0.375 0.1 0  0.4 0.1 0  0.425 0.1 0  0.45 0.1 0  0.475 0.1 0  0.5 0.1 0  0.525 0.1 0  0.55 0.1 0  0.575 0.1 0  0.6 0.1 0  0.625 0.1 0  0.65 0.1 0  0.675 0.1 0  0.7 0.1 0  0.725 0.1 0  0.75 0.1 0  0.775 0.1 0  0.8 0.1 0  0.825 0.1 0  0.85 0.1 0  0.875 0.1 0  0.9 0.1 0  0.925 0.1 0  0.95 0.1 0  0.975 0.1 0  1 0.1 0  0 0.125 0  0.025 0.125 0  0.05 0.125 0  0.075 0.125 0  0.1 0.125 0  0.125 0.125 0  0.15 0.125 0  0.175 0.125 0  0.2 0.125 0  0.225 0.125 0  0.25 0.125 0  0.275 0.125 0  0.3 0.125 0  0.325 0.125 0  0.35 0.125 0  0.375 0.125 0  0.4 0.125 0  0.425 0.125 0  0.45 0.125 0  0.475 0.125 0  0.5 0.125 0  0.525 0.125 0  0.55 0.125 0  0.575 0.125 0  0.6 0.125 0  0.625 0.125 0  0.65 0.125 0  0.675 0.125 0  0.7 0.125 0  0.725 0.125 0  0.75 0.125 0  0.775 0.125 0  0.8 0.125 0  0.825 0.125 0  0.85 0.125 0  0.875 0.125 0  0.9 0.125 0  0.925 0.125 0  0.95 0.125 0  0.975 0.125 0  1 0.125 0  0 0.15 0  0.025 0.15 0  0.05 0.15 0  0.075 0.15 0  0.1 0.15 0  0.125 0.15 0  0.15 0.15 0  0.175 0.15 0  0.2 0.15 0  0.225 0.15 0  0.25 0.15 0  0.275 0.15 0  0.3 0.15 0  0.325 0.15 0  0.35 0.15 0  0.375 0.15 0  0.4 0.15 0  0.425 0.15 0  0.45 0.15 0  0.475 0.15 0  0.5 0.15 0  0.525 0.15 0  0.55 0.15 0  0.575 0.15 0  0.6 0.15 0  0.625 0.15 0  0.65 0.15 0  0.675 0.15 0  0.7 0.15 0  0.725 0.15 0  0.75 0.15 0  0.775 0.15 0  0.8 0.15 0  0.825 0.15 0  0.85 0.15 0  0.875 0.15 0  0.9 0.15 0  0.925 0.15 0  0.95 0.15 0  0.975 0.15 0  1 0.15 0  0 0.175 0  0.025 0.175 0  0.05 0.175 0  0.075 0.175 0  0.1 0.175 0  0.125 0.175 0  0.15 0.175 0  0.175 0.175 0  0.2 0.175 0  0.225 0.175 0  0.25 0.175 0  0.275 0.175 0  0.3 0.175 0  0.325 0.175 0  0.35 0.175 0  0.375 0.175 0  0.4 0.175 0  0.425 0.175 0  0.45 0.175 0  0.475 0.175 0  0.5 0.175 0  0.525 0.175 0  0.55 0.175 0  0.575 0.175 0  0.6 0.175 0  0.625 0.175 0  0.65 0.175 0  0.675 0.175 0  0.7 0.175 0  0.725 0.175 0  0.75 0.175 0  0.775 0.175 0  0.8 0.175 0  0.825 0.175 0  0.85 0.175 0  0.875 0.175 0  0.9 0.175 0  0.925 0.175 0  0.95 0.175 0  0.975 0.175 0  1 0.175 0  0 0.2 0  0.025 0.2 0  0.05 0.2 0  0.075 0.2 0  0.1 0.2 0  0.125 0.2 0  0.15 0.2 0  0.175 0.2 0  0.2 0.2 0  0.225 0.2 0  0.25 0.2 0  0.275 0.2 0  0.3 0.2 0  0.325 0.2 0  0.35 0.2 0  0.375 0.2 0  0.4 0.2 0  0.425 0.2 0  0.45 0.2 0  0.475 0.2 0  0.5 0.2 0  0.525 0.2 0  0.55 0.2 0  0.575 0.2 0  0.6 0.2 0  0.625 0.2 0  0.65 0.2 0  0.675 0.2 0  0.7 0.2 0  0.725 0.2 0  0.75 0.2 0  0.775 0.2 0  0.8 0.2 0  0.825 0.2 0  0.85 0.2 0  0.875 0.2 0  0.9 0.2 0  0.925 0.2 0  0.95 0.2 0  0.975 0.2 0  1 0.2 0  0 0.225 0  0.025 0.225 0  0.05 0.225 0  0.075 0.225 0  0.1 0.225 0  0.125 0.225 0  0.15 0.225 0  0.175 0.225 0  0.2 0.225 0  0.225 0.225 0  0.25 0.225 0  0.275 0.225 0  0.3 0.225 0  0.325 0.225 0  0.35 0.225 0  0.375 0.225 0  0.4 0.225 0  0.425 0.225 0  0.45 0.225 0  0.475 0.225 0  0.5 0.225 0  0.525 0.225 0  0.55 0.225 0  0.575 0.225 0  0.6 0.225 0  0.625 0.225 0  0.65 0.225 0  0.675 0.225 0  0.7 0.225 0  0.725 0.225 0  0.75 0.225 0  0.775 0.225 0  0.8 0.225 0  0.825 0.225 0  0.85 0.225 0  0.875 0.225 0  0.9 0.225 0  0.925 0.225 0  0.95 0.225 0  0.975 0.225 0  1 0.225 0  0 0.25 0  0.025 0.25 0  0.05 0.25 0  0.075 0.25 0  0.1 0.25 0  0.125 0.25 0  0.15 0.25 0  0.175 0.25 0  0.2 0.25 0  0.225 0.25 0  0.25 0.25 0  0.275 0.25 0  0.3 0.25 0  0.325 0.25 0  0.35 0.25 0  0.375 0.25 0  0.4 0.25 0  0.425 0.25 0  0.45 0.25 0  0.475 0.25 0  0.5 0.25 0  0.525 0.25 0  0.55 0.25 0  0.575 0.25 0  0.6 0.25 0  0.625 0.25 0  0.65 0.25 0  0.675 0.25 0  0.7 0.25 0  0.725 0.25 0  0.75 0.25 0  0.775 0.25 0  0.8 0.25 0  0.825 0.25 0  0.85 0.25 0  0.875 0.25 0  0.9 0.25 0  0.925 0.25 0  0.95 0.25 0  0.975 0.25 0  1 0.25 0  0 0.275 0  0.025 0.275 0  0.05 0.275 0  0.075 0.275 0  0.1 0.275 0  0.125 0.275 0  0.15 0.275 0  0.175 0.275 0  0.2 0.275 0  0.225 0.275 0  0.25 0.275 0  0.275 0.275 0  0.3 0.275 0  0.325 0.275 0  0.35 0.275 0  0.375 0.275 0  0.4 0.275 0  0.425 0.275 0  0.45 0.275 0  0.475 0.275 0  0.5 0.275 0  0.525 0.275 0  0.55 0.275 0  0.575 0.275 0  0.6 0.275 0  0.625 0.275 0  0.65 0.275 0  0.675 0.275 0  0.7 0.275 0  0.725 0.275 0  0.75 0.275 0  0.775 0.275 0  0.8 0.275 0  0.825 0.275 0  0.85 0.275 0  0.875 0.275 0  0.9 0.275 0  0.925 0.275 0  0.95 0.275 0  0.975 0.275 0  1 0.275 0  0 0.3 0  0.025 0.3 0  0.05 0.3 0  0.075 0.3 0  0.1 0.3 0  0.125 0.3 0  0.15 0.3 0  0.175 0.3 0  0.2 0.3 0  0.225 0.3 0  0.25 0.3 0  0.275 0.3 0  0.3 0.3 0  0.325 0.3 0  0.35 0.3 0  0.375 0.3 0  0.4 0.3 0  0.425 0.3 0  0.45 0.3 0  0.475 0.3 0  0.5 0.3 0  0.525 0.3 0  0.55 0.3 0  0.575 0.3 0  0.6 0.3 0  0.625 0.3 0  0.65 0.3 0  0.675 0.3 0  0.7 0.3 0  0.725 0.3 0  0.75 0.3 0  0.775 0.3 0  0.8 0.3 0  0.825 0.3 0  0.85 0.3 0  0.875 0.3 0  0.9 0.3 0  0.925 0.3 0  0.95 0.3 0  0.975 0.3 0  1 0.3 0  0 0.325 0  0.025 0.325 0  0.05 0.325 0  0.075 0.325 0  0.1 0.325 0  0.125 0.325 0  0.15 0.325 0  0.175 0.325 0  0.2 0.325 0  0.225 0.325 0  0.25 0.325 0  0.275 0.325 0  0.3 0.325 0  0.325 0.325 0  0.35 0.325 0  0.375 0.325 0  0.4 0.325 0  0.425 0.325 0  0.45 0.325 0  0.475 0.325 0  0.5 0.325 0  0.525 0.325 0  0.55 0.325 0  0.575 0.325 0  0.6 0.325 0  0.625 0.325 0  0.65 0.325 0  0.675 0.325 0  0.7 0.325 0  0.725 0.325 0  0.75 0.325 0  0.775 0.325 0  0.8 0.325 0  0.825 0.325 0  0.85 0.325 0  0.875 0.325 0  0.9 0.325 0  0.925 0.325 0  0.95 0.325 0  0.975 0.325 0  1 0.325 0  0 0.35 0  0.025 0.35 0  0.05 0.35 0  0.075 0.35 0  0.1 0.35 0  0.125 0.35 0  0.15 0.35 0  0.175 0.35 0  0.2 0.35 0  0.225 0.35 0  0.25 0.35 0  0.275 0.35 0  0.3 0.35 0  0.325 0.35 0  0.35 0.35 0  0.375 0.35 0  0.4 0.35 0  0.425 0.35 0  0.45 0.35 0  0.475 0.35 0  0.5 0.35 0  0.525 0.35 0  0.55 0.35 0  0.575 0.35 0  0.6 0.35 0  0.625 0.35 0  0.65 0.35 0  0.675 0.35 0  0.7 0.35 0  0.725 0.35 0  0.75 0.35 0  0.775 0.35 0  0.8 0.35 0  0.825 0.35 0  0.85 0.35 0  0.875 0.35 0  0.9 0.35 0  0.925 0.35 0  0.95 0.35 0  0.975 0.35 0  1 0.35 0  0 0.375 0  0.025 0.375 0  0.05 0.375 0  0.075 0.375 0  0.1 0.375 0  0.125 0.375 0  0.15 0.375 0  0.175 0.375 0  0.2 0.375 0  0.225 0.375 0  0.25 0.375 0  0.275 0.375 0  0.3 0.375 0  0.325 0.375 0  0.35 0.375 0  0.375 0.375 0  0.4 0.375 0  0.425 0.375 0  0.45 0.375 0  0.475 0.375 0  0.5 0.375 0  0.525 0.375 0  0.55 0.375 0  0.575 0.375 0  0.6 0.375 0  0.625 0.375 0  0.65 0.375 0  0.675 0.375 0  0.7 0.375 0  0.725 0.375 0  0.75 0.375 0  0.775 0.375 0  0.8 0.375 0  0.825 0.375 0  0.85 0.375 0  0.875 0.375 0  0.9 0.375 0  0.925 0.375 0  0.95 0.375 0  0.975 0.375 0  1 0.375 0  0 0.4 0  0.025 0.4 0  0.05 0.4 0  0.075 0.4 0  0.1 0.4 0  0.125 0.4 0  0.15 0.4 0  0.175 0.4 0  0.2 0.4 0  0.225 0.4 0  0.25 0.4 0  0.275 0.4 0  0.3 0.4 0  0.325 0.4 0  0.35 0.4 0  0.375 0.4 0  0.4 0.4 0  0.425 0.4 0  0.45 0.4 0  0.475 0.4 0  0.5 0.4 0  0.525 0.4 0  0.55 0.4 0  0.575 0.4 0  0.6 0.4 0  0.625 0.4 0  0.65 0.4 0  0.675 0.4 0  0.7 0.4 0  0.725 0.4 0  0.75 0.4 0  0.775 0.4 0  0.8 0.4 0  0.825 0.4 0  0.85 0.4 0  0.875 0.4 0  0.9 0.4 0  0.925 0.4 0  0.95 0.4 0  0.975 0.4 0  1 0.4 0  0 0.425 0  0.025 0.425 0  0.05 0.425 0  0.075 0.425 0  0.1 0.425 0  0.125 0.425 0  0.15 0.425 0  0.175 0.425 0  0.2 0.425 0  0.225 0.425 0  0.25 0.425 0  0.275 0.425 0  0.3 0.425 0  0.325 0.425 0  0.35 0.425 0  0.375 0.425 0  0.4 0.425 0  0.425 0.425 0  0.45 0.425 0  0.475 0.425 0  0.5 0.425 0  0.525 0.425 0  0.55 0.425 0  0.575 0.425 0  0.6 0.425 0  0.625 0.425 0  0.65 0.425 0  0.675 0.425 0  0.7 0.425 0  0.725 0.425 0  0.75 0.425 0  0.775 0.425 0  0.8 0.425 0  0.825 0.425 0  0.85 0.425 0  0.875 0.425 0  0.9 0.425 0  0.925 0.425 0  0.95 0.425 0  0.975 0.425 0  1 0.425 0  0 0.45 0  0.02
[...]
<PointData  Scalars="ControlVisualisation"> 
<DataArray  type="Float64"  Name="ControlVisualisation"  format="ascii">4.6299478502877067e-01  4.4861228141868348e-01  4.4862148150424064e-01  4.4871189610765438e-01  4.4888962533896165e-01  4.4911953192467763e-01  4.4936128962184618e-01  4.4958638040404408e-01  4.4978096719779675e-01  4.4994219368673938e-01  4.5007337091992539e-01  4.5018030919698498e-01  4.5026916407435152e-01  4.5034542181662984e-01  4.5041355882686823e-01  4.5047703335273498e-01  4.5053840617866570e-01  4.5059948485495749e-01  4.5066144274966152e-01  4.5072489280109757e-01  4.5078990804927860e-01  4.5085598461913295e-01  4.5092194245991424e-01  4.5098575775820393e-01  4.5104432109746490e-01  4.5109312068259538e-01  4.5112586611516142e-01  4.5113410579308433e-01  4.5110696481957036e-01  4.5103126245334618e-01  4.5089247140494260e-01  4.5067720767862096e-01  4.5037810560657565e-01  4.5000139433729752e-01  4.4957566764886114e-01  4.4915716296044289e-01  4.4882041707966430e-01  4.4862857323141836e-01  4.4858712091308861e-01  4.4861583641866787e-01  4.7739816312152777e-01  4.4861090379821805e-01  4.0584059330350775e-01  4.0634921951919251e-01  4.0763975359410853e-01  4.0975520993532244e-01  4.1238480772636688e-01  4.1513190158993940e-01  4.1770267317155013e-01  4.1994792236716966e-01  4.2183174458997386e-01  4.2338439183695337e-01  4.2466467616196513e-01  4.2573703739313518e-01  4.2666017655705712e-01  4.2748280711302600e-01  4.2824308014072293e-01  4.2896955202327741e-01  4.2968254367128766e-01  4.3039533386495443e-01  4.3111494293819214e-01  4.3184240727097611e-01  4.3257249747568477e-01  4.3329284184006306e-01  4.3398241204480037e-01  4.3460933527492812e-01  4.3512804605582611e-01  4.3547592957042347e-01  4.3556991493083697e-01  4.3530406392332954e-01  4.3455023720311731e-01  4.3316547080829848e-01  4.3101168074962226e-01  4.2799484938806714e-01  4.2412814786820929e-01  4.1961386490397368e-01  4.1490880741114766e-01  4.1069167605356477e-01  4.0765652706338162e-01  4.0610509932564642e-01  4.0570939730003219e-01  4.4861554205464155e-01  4.4860811491939612e-01  4.0635194095519589e-01  4.0849805990642257e-01  4.1220920240947839e-01  4.1738456092494702e-01  4.2343650636763602e-01  4.2959760207537023e-01  4.3529908773831422e-01  4.4026286842874102e-01  4.4443644223567963e-01  4.4789594792745713e-01  4.5077108957646006e-01  4.5320024605462983e-01  4.5530852183850262e-01  4.5719968171126790e-01  4.5895520379233429e-01  4.6063631557980561e-01  4.6228677673731794e-01  4.6393531509903396e-01  4.6559723018098947e-01  4.6727496283428127e-01  4.6895753775877014e-01  4.7061880919523086e-01  4.7221443823718579e-01  4.7367755016844770e-01  4.7491311720209634e-01  4.7579136623809892e-01  4.7614105080829250e-01  4.7574442594746202e-01  4.7433748315697555e-01  4.7162153073215829e-01  4.6729577047864512e-01  4.6112330697766413e-01  4.5304268519958435e-01  4.4332632273813644e-01  4.3273428290334459e-01  4.2254696484713700e-01  4.1424249735267848e-01  4.0871078753186735e-01  4.0602208056632344e-01  4.4857713216179473e-01  4.4867240398795138e-01  4.0786542731395209e-01  4.1307034523637659e-01  4.1957860673549657e-01  4.2695250774275495e-01  4.3475341327024092e-01  4.4230846502164017e-01  4.4911850015018900e-01  4.5497270321918282e-01  4.5988005124023784e-01  4.6396645225542082e-01  4.6739926964497014e-01  4.7034468201187424e-01  4.7294833827853422e-01  4.7532934671824723e-01  4.7758074969914582e-01  4.7977249443803693e-01  4.8195480637915666e-01  4.8416096493989241e-01  4.8640904628596643e-01  4.8870245410619656e-01  4.9102915027202299e-01  4.9335951054930094e-01  4.9564272313103819e-01  4.9780166630369282e-01  4.9972629971763066e-01  5.0126585642156785e-01  5.0222064219810292e-01  5.0233517239663716e-01  5.0129591202477519e-01  4.9873905014156816e-01  4.9427699848951112e-01  4.8755475017346572e-01  4.7835215012661941e-01  4.6673868092102305e-01  4.5326066700769563e-01  4.3908202295010718e-01  4.2573648515702772e-01  4.1461223200870345e-01  4.0728206526903743e-01  4.4855791506812365e-01  4.4885328066841912e-01  4.1118560123274422e-01  4.2228095935841869e-01  4.3236545334873716e-01  4.4084290126821235e-01  4.4838506007460860e-01  4.5511858293340729e-01  4.6096894140440936e-01  4.6593348971917870e-01  4.7010830681028715e-01  4.7364080809861209e-01  4.7668800192251576e-01  4.7939345497988434e-01  4.8187830852298258e-01  4.8423997473624453e-01  4.8655424033432204e-01  4.8887838750483442e-01  4.9125413292139347e-01  4.9370983750762626e-01  4.9626175928610555e-01  4.9891425538185352e-01  5.0165887624096162e-01  5.0447228939110333e-01  5.0731295785104524e-01  5.1011651092762134e-01  5.1278981853639061e-01  5.1520396060403950e-01  5.1718662726920450e-01  5.1851503674539845e-01  5.1891126111914887e-01  5.1804267827287520e-01  5.1553139762925382e-01  5.1097594474148633e-01  5.0399206394865714e-01  4.9426488644606692e-01  4.8163022394640725e-01  4.6610910296517255e-01  4.4785644552331128e-01  4.2778663785531595e-01  4.1057775100471755e-01  4.4860445258232312e-01  4.4921814056592468e-01  4.1922414959957227e-01  4.4141911403171963e-01  4.5549249407054582e-01  4.6263239399336636e-01  4.6704697020325542e-01  4.7049307146703961e-01  4.7345980567040058e-01  4.7608357093987580e-01  4.7844043970459149e-01  4.8060401782806134e-01  4.8264663331671265e-01  4.8463397637372263e-01  4.8662234850861164e-01  4.8865830993696774e-01  4.9077952688288889e-01  4.9301596130682840e-01  4.9539093240537235e-01  4.9792181182633577e-01  5.0062023327320415e-01  5.0349174875576030e-01  5.0653488075557784e-01  5.0973952422185997e-01  5.1308466226999927e-01  5.1653539214429933e-01  5.2003933215793008e-01  5.2352261290971458e-01  5.2688584611908118e-01  5.3000065500446547e-01  5.3270735958452087e-01  5.3481364651673458e-01  5.3609198792038826e-01  5.3626651074206744e-01  5.3497121208163712e-01  5.3162512001649720e-01  5.2518190446233826e-01  5.1353229955386825e-01  4.9299369063842807e-01  4.5894227049158476e-01  4.1866375702522346e-01  4.4861975318526093e-01  4.5372394741629052e-01  4.4497246722997819e-01  4.8343903912744879e-01  4.9597918047519923e-01  4.9535655716359955e-01  4.9196184600586040e-01  4.8908743937121446e-01  4.8727092449125003e-01  4.8636155424897770e-01  4.8613617803594172e-01  4.8642474875477598e-01  4.8711396433585530e-01  4.8813169339619467e-01  4.8943334277114769e-01  4.9099251215719891e-01  4.9279493434762217e-01  4.9483455194961629e-01  4.9711092085621206e-01  4.9962741614852163e-01  5.0238990970867592e-01  5.0540571561682712e-01  5.0868268856587562e-01  5.1222843546010666e-01  5.1604968103672511e-01  5.2015193406344629e-01  5.2453974985506313e-01  5.2921808830832162e-01  5.3419550420989304e-01  5.3949006959609258e-01  5.4513865485041235e-01  5.5120853975742179e-01  5.5780519894677039e-01  5.6505486737870136e-01  5.7301084058929119e-01  5.8134977210083016e-01  5.8867541882866892e-01  5.9113346033755232e-01  5.8102154007266793e-01  5.4332206899597146e-01  4.6379684334439686e-01  4.5097340240537948e-01  5.0523515541729236e-01  5.3363635289817080e-01  5.6615055372800849e-01  5.5774907799427587e-01  5.3854615188917709e-01  5.2165587209800013e-01  5.0953252248507874e-01  5.0145322557287553e-01  4.9627242871165234e-01  4.9309927579308493e-01  4.9133121274366354e-01  4.9057384536662979e-01  4.9056952770499368e-01  4.9114924127888032e-01  4.9220221686554699e-01  4.9365688234403110e-01  4.9546878984053511e-01  4.9761287553329192e-01  5.0007848052004400e-01  5.0286621000467691e-01  5.0598610741140282e-01  5.0945688704182501e-01  5.1330617697500447e-01  5.1757192457702295e-01  5.2230535312414572e-01  5.2757617194238215e-01  5.3348117473773016e-01  5.4015793100185461e-01  5.4780590701606346e-01  5.5671763499313820e-01  5.6732113336705081e-01  5.8022738081693470e-01  5.9625194486623012e-01  6.1631430986328561e-01  6.4095499124876498e-01  6.6910300022468583e-01  6.9609102688725744e-01  7.1378123891173051e-01  7.0953376097225274e-01  6.9152752965609532e-01  5.3173268523087880e-01  6.3604171034541468e-01  7.0728422316663453e-01  6.7831694420980060e-01  6.2964608283071244e-01  5.8450816630723379e-01  5.5102519902036173e-01  5.2851673202151739e-01  5.1390132877661399e-01  5.0451953063721167e-01  4.9857935289320127e-01  4.9494718023920176e-01  4.9291079359797418e-01  4.9201709955509298e-01  4.9197352742782013e-01  4.9258947877013165e-01  4.9374124498733618e-01  4.9535061268539837e-01  4.9737162649174588e-01  4.9978240777264565e-01  5.0258029565087570e-01  5.0577937330923761e-01  5.0940994705447806e-01  5.1351991857605783e-01  5.1817833547293346e-01  5.2348180355886387e-01  5.2956498045197631e-01  5.3661714170294705e-01  5.4490792178135750e-01  5.5482680496109105e-01  5.6694238204794534e-01  5.8208681828585063e-01  6.0146109810926229e-01  6.2671566237440746e-01  6.5982752238472075e-01  7.0226641568853321e-01  7.5259338955285682e-01  8.0292762537803530e-01  8.4262554391664501e-01  8.6374063893723951e-01  8.9887769093608083e-01  7.9310856493803106e-01  7.2611697884984427e-01  8.2666516441347315e-01  7.5978656595656580e-01  6.8530218255386421e-01  6.1954177874117533e-01  5.7246391405527719e-01  5.4168386067458085e-01  5.2206000038190925e-01  5.0958180345842208e-01  5.0166933968033922e-01  4.9674327262333590e-01  4.9383608738763557e-01  4.9234418067071817e-01  4.9188348100279827e-01  4.9220632431548950e-01  4.9315297588952084e-01  4.9462277759114537e-01  4.9655670813856106e-01  4.9892688002676666e-01  5.0173053678500801e-01  5.0498727047167125e-01  5.0873889215191914e-01  5.1305190304687209e-01  5.1802298412267445e-01  5.2378846715950511e-01  5.3053949640576414e-01  5.3854569357442761e-01  5.4819178779730626e-01  5.6003398000636273e-01  5.7488532515641178e-01  5.9393922134922672e-01  6.1892570940733604e-01  6.5222787855600961e-01  6.9665239772883947e-01  7.5394827073755610e-01  8.2038808165777133e-01  8.8068203829461744e-01  9.1741598044430117e-01  9.3312416426695932e-01  9.4365021591564235e-01  8.8643535526330475e-01  7.4992148675894710e-01  8.5719043158996966e-01  7.8425901509100815e-01  7.0466797395749803e-01  6.3156324407507991e-01  5.7931949197729737e-01  5.4538639441126369e-01  5.2389829032627921e-01  5.1030366122009618e-01  5.0170033770788391e-01  4.9633126507608349e-01  4.9312978171838101e-01  4.9143564867684575e-01  4.9083153814042169e-01  4.9104990888300848e-01  4.9191927858903195e-01  4.9333258232335581e-01  4.9522827479419934e-01  4.9757913740270643e-01  5.0038608273720586e-01  5.0367556052583029e-01  5.0749997354178422e-01  5.1194109356394191e-01  5.1711700258360915e-01  5.2319371226542544e-01  5.3040348267602311e-01  5.3907315584184368e-01  5.4966776228650349e-01  5.6285736568912281e-01  5.7961791764986292e-01  6.0137580512341815e-01  6.3018489030962621e-01  6.6882943112333426e-01  7.2042160106475062e-01  7.8622439739769234e-01  8.5949459570450670e-01  9.1824330982637226e-01  9.4139020405189555e-01  9.4583669863104347e-01  9.5833680071209471e-01  9.0866743628889235e-01  7.1477937076114462e-01  8.3029867421004067e-01  7.5491207472641086e-01  6.8234217479849812e-01  6.1643280002785983e-01  5.6921205546099141e-01  5.3837280392710107e-01  5.1877871366020145e-01  5.0636398220010004e-01  4.9851581994877375e-01  4.9364217166341656e-01  4.9077088465974977e-01  4.8929770438399028e-01  4.8883971272986765e-01  4.8915149769646621e-01  4.9007659548050497e-01  4.9151884104233412e-01  4.9342529808313929e-01  4.9577626482661652e-01  4.9857994529215049e-01  5.0187056356500748e-01  5.0570943919385292e-01  5.1018909037802251e-01  5.1544094933581552e-01  5.2164789125239985e-01  5.2906363263772460e-01  5.3804231581992323e-01  5.4908344284762423e-01  5.6289975483401722e-01  5.8051768591115183e-01  6.0341678079442218e-01  6.3368758243599987e-01  6.7407699271537003e-01  7.2743548298945260e-01  7.9422898498409555e-01  8.6617018962816572e-01  9.1999751388449069e-01  9.3509231947402649e-01  9.3146742615268296e-01  9.4612680299762686e-01  8.9877229593275509e-01  6.0083994860339396e-01  7.2175178752535329e-01  6.7358747090858828e-01  6.2501501479303789e-01  5.7909628472725316e-01  5.4511645244844864e-01  5.2240383269783031e-01  5.0776551243537371e-01  4.9843265049881025e-01  4.9255692345205149e-01  4.8897917798123269e-01  4.8697625160757507e-01  4.8609119480025081e-01  4.8603126863479740e-01  4.8660830123354570e-01  4.8770345641861135e-01  4.8924616924531716e-01  4.9120153815816991e-01  4.9356304832759401e-01  4.9634895027244424e-01  4.9960146628250834e-01  5.0338854942844691e-01  5.0780835091956145e-01  5.1299697712883108e-01  5.1914063381827391e-01  5.2649396234878787e-01  5.3540738105043229e-01  5.4636762770575731e-01  5.6005726392607436e-01  5.7743934789174656e-01  5.9986759778534027e-01  6.2919244116571438e-01  6.6772660213199442e-01  7.1762332667563156e-01  7.7857317938529080e-01  8.4257986808442042e-01  8.8968278468595630e-01  9.0205054522504580e-01  8.9476081407158947e-01  9.0196827581523953e-01  8.2499540519448789e-01  4.7749476272126012e-01  5.3926960719749617e-01  5.6390013534193328e-01  5.5247195685621686e-01  5.3173681998229250e-01  5.1402583832778304e-01  5.0148309105552924e-01  4.9321079920053607e-01  4.8794671809996848e-01  4.8473815493827316e-01  4.8294764075457070e-01  4.8216137239859747e-01  4.8211069436390225e-01  4.8262120922370133e-01  4.8358142446819014e-01  4.8492354628250711e-01  4.8661174129093759e-01  4.8863510153843176e-01  4.9100377202342727e-01  4.9374741750524381e-01  4.9691565742769461e-01  5.0058041845298995e-01  5.0484042929048678e-01  5.0982837331229813e-01  5.1572157273007968e-01  5.2275755279186409e-01  5.3125645844617408e-01  5.4165301737733429e-01  5.5454118247793638e-01  5.7073326195214735e-01  5.9132735477467502e-01  6.1774758344218095e-01  6.5163212305783436e-01  6.9421572774777207e-01  7.4445936711964023e-01  7.9529633448804604e-01  8.3078935946495991e-01  8.3419177205016104e-01  8.0297282605575115e-01  7.2104407433281570e-01  6.0037376625933281e-01  4.5017944913557273e-01  4.3751133154226557e-01  4.7799324496972362e-01  4.8982714641166547e-01  4.8800809988289906e-01  4.8368749678251538e-01  4.8013639338630049e-01  4.7785591553938139e-01  4.7662863184140047e-01  4.7618075565812579e-01  4.7630212883849538e-01  4.7684952159044747e-01  4.7772899260420804e-01  4.7888170039662142e-01  4.8027420486564537e-01  4.8189232550939398e-01  4.8373741409357773e-01  4.8582433014199861e-01  4.8818072914857474e-01  4.9084748460263705e-01  4.9388022237069945e-01  4.9735207855494573e-01  5.0135792640087140e-01  5.0602047303530451e-01  5.1149881662125241e-01  5.1800028147805388e-01  5.2579657887438480e-01  5.3524542722630308e-01  5.4681822333413288e-01  5.6113174042837821e-01  5.7897306616905975e-01  6.0128137733647535e-01  6.2898297340684661e-01  6.6242768995893875e-01  6.9996564799865912e-01  7.3536585772660845e-01  7.5564983534296337e-01  7.4371640022560781e-01  6.8101757758258374e-01  5.4376438921830084e-01  4.6692199419615077e-01  4.4900545822777299e-01  4.1567389085963469e-01  4.3664383921260336e-01  4.4988641111118716e-01  4.5593073540895734e-01  4.5923934656376397e-01  4.6172420200130160e-01  4.6393578555595727e-01  4.6599100019376716e-01  4.6792853590483185e-01  4.6977700144303641e-01  4.7156706163645484e-01  4.7333017946760791e-01  4.7509797904631290e-01  4.7690238155244297e-01  4.7877638692131402e-01  4.8075515028606497e-01  4.8287728022800258e-01  4.8518637933985298e-01  4.8773290978169753e-01  4.9057650815213827e-01  4.9378891320292206e-01  4.9745771534934369e-01  5.0169118931485668e-01  5.0662452330131369e-01  5.1242778399153610e-01  5.1931588551850427e-01  5.2756047718890764e-01  5.3750255541392922e-01  5.4956153917094441e-01  5.6422855516861703e-01  5.8201185052493265e-01  6.0325686269279588e-01  6.2767635396623667e-01  6.5332675401894991e-01  6.7490181640007219e-01  6.8217000818864637e-01  6.6059598691808763e-01  5.9371330538666600e-01  4.8087041831128696e-01  4.5327359789250538e-01  4.4883007119137036e-01  4.1012853371546198e-01  4.1977317085441418e-01  4.2856641328976353e-01  4.3577240396862393e-01  4.4208111533953537e-01  4.4773776389161479e-01  4.5272560858885941e-01  4.5704492209664577e-01  4.6075824668308324e-01  4.6396151431748112e-01  4.6675973111581992e-01  4.6925234216651568e-01  4.7152826032224182e-01  4.7366541978177595e-01  4.7573247859384088e-01  4.7779128188332448e-01  4.7989953141477504e-01  4.8211345728081162e-01  4.8449047561935021e-01  4.8709190155517346e-01  4.8998582768322341e-01  4.9325029537813758e-01  4.9697688361845127e-01  5.0127480723085582e-01  5.0627552077389948e-01  5.1213759039600093e-01  5.1905105690766606e-01  5.2723929533489688e-01  5.3695363743978897e-01  5.4844989412433620e-01  5.6192251689571338e-01  5.7734491339636518e-01  5.9411877631506638e-01  6.1039648686428105e-01  6.2204209976153924e-01  6.2169938492510324e-01  5.9913940095076113e-01  5.4391770109107929e-01  4.5934498228880111e-01  4.5232789921396371e-01  4.4869876566861905e-01  4.0749125594687585e-01  4.1192569557147773e-01  4.1761639127130989e-01  4.2418235978144020e-01  4.3123759753508550e-01  4.3820370961797395e-01  4.4462114336546738e-01  4.5027397099112054e-01  4.5512686739619262e-01  4.5924758559760137e-01  4.6274843655821168e-01  4.6575227875516628e-01  4.6837620600724417e-01  4.7072515135352944e-01  4.7289085120921309e-01  4.7495333261610767e-01  4.7698346516715295e-01  4.7904584044706683e-01  4.8120165838527656e-01  4.8351151188725794e-01  4.8603806346936945e-01  4.8884864213475671e-01  4.9201777477011066e-01  4.9562960210563628e-01  4.9977999095505665e-01  5.0457788531522030e-01  5.1014492169884340e-01  5.1661132969341805e-01  5.2410415484177364e-01  5.3271987658184417e-01  5.4246567147450386e-01  5.5313919193729300e-01  5.6409541594868495e-01  5.7383684336421303e-01  5.7942376918263327e-01  5.7594166069687558e-01  5.5657226540873472e-01  5.1368623189591744e-01  4.4877387302721217e-01  4.5174483487697803e-01  4.4863967047528341e-01  4.0630799799983092e-01  4.0837556542648723e-01  4.1236355113125378e-01  4.1818778983881955e-01  4.2518813589046267e-01  4.3251128364598490e-01  4.3949889524305363e-01  4.4578160394388189e-01  4.5122412878317619e-01  4.5584087047862720e-01  4.5972342816412676e-01  4.6299387555512495e-01  4.6577832388614104e-01  4.6819411268968630e-01  4.7034511059317707e-01  4.7232135282437893e-01  4.7420078154355821e-01  4.7605182638838489e-01  4.7793617567655994e-01  4.7991143056321001e-01  4.8203351218305196e-01  4.8435876435166114e-01  4.8694569624200834e-01  4.8985625189063720e-01  4.9315636834987558e-01  4.9691536156818450e-01  5.0120329550473341e-01  5.0608482382977915e-01  5.1160680787070933e-01  5.1777484845016053e-01  5.2450988865555481e-01  5.3156909981743883e-01  5.3840525641311987e-01  5.4393202845712529e-01  5.4618182616930544e-01  5.4191678281260958e-01  5.2629489000406116e-01  4.9284649718090562e-01  4.4103907034046747e-01  4.5127764400189274e-01  4.4863413351127412e-01  4.0600861940914340e-01  4.0729834031868178e-01  4.1061424631903393e-01  4.1599277242683108e-01  4.2274599502233912e-01  4.3000212350553413e-01  4.3705670308647154e-01  4.4347530125534734e-01  4.4906623370683679e-01  4.5380515250117009e-01  4.5776293251732492e-01  4.6105386423056288e-01  4.6380369709491420e-01  4.6613274939197569e-01  4.6814858340360832e-01  4.6994416369704584e-01  4.7159882859003710e-01  4.7318048357571668e-01  4.7474814493006146e-01  4.7635438749112896e-01  4.7804748322845658e-01  4.7987312378984792e-01  4.8187564546177797e-01  4.8409864142701198e-01  4.8658476024351960e-01  4.8937434357145310e-01  4.9250232765925472e-01  4.9599247562975513e-01  4.9984742593098114e-01  5.0403203097189087e-01  5.0844558442241861e-01  5.1287499081365606e-01  5.1691465074496501e-01  5.1982954845356955e-01  5.2032802124566591e-01  5.1619761114588814e-01  5.0371825362425759e-01  4.7711438835876741e-01  4.3499122419933856e-01  4.5086802239194318e-01  4.4867755929884923e-01  4.0643343475490235e-01  4.0811186359344620e-01  4.1150314486004624e-01  4.1672871778696596e-01  4.2322760328515707e-01  4.3021303064205957e-01  4.3701455167240355e-01  4.432029726