<?xml version="1.0"?>
<VTKFile type="UnstructuredGrid"  version="0.1"  >
<UnstructuredGrid>
<Piece  NumberOfPoints="1681" NumberOfCells="3200">
<Points>
<DataArray  type="Float64"  NumberOfComponents="3"  format="ascii">0 0 0  0.025 0 0  0.05 0 0  0.075 0 0  0.1 0 0  0.125 0 0  0.15 0 0  0.175 0 0  0.2 0 0  0.225 0 0  0.25 0 0  0.275 0 0  0.3 0 0  0.325 0 0  0.35 0 0  0.375 0 0  0.4 0 0  0.425 0 0  0.45 0 0  0.475 0 0  0.5 0 0  0.525 0 0  0.55 0 0  0.575 0 0  0.6 0 0  0.625 0 0  0.65 0 0  0.675 0 0  0.7 0 0  0.725 0 0  0.75 0 0  0.775 0 0  0.8 0 0  0.825 0 0  0.85 0 0  0.875 0 0  0.9 0 0  0.925 0 0  0.95 0 0  0.975 0 0  1 0 0  0 0.025 0  0.025 0.025 0  0.05 0.025 0  0.075 0.025 0  0.1 0.025 0  0.125 0.025 0  0.15 0.025 0  0.175 0.025 0  0.2 0.025 0  0.225 0.025 0  0.25 0.025 0  0.275 0.025 0  0.3 0.025 0  0.325 0.025 0  0.35 0.025 0  0.375 0.025 0  0.4 0.025 0  0.425 0.025 0  0.45 0.025 0  0.475 0.025 0  0.5 0.025 0  0.525 0.025 0  0.55 0.025 0  0.575 0.025 0  0.6 0.025 0  0.625 0.025 0  0.65 0.025 0  0.675 0.025 0  0.7 0.025 0  0.725 0.025 0  0.75 0.025 0  0.775 0.025 0  0.8 0.025 0  0.825 0.025 0  0.85 0.025 0  0.875 0.025 0  0.9 0.025 0  0.925 0.025 0  0.95 0.025 0  0.975 0.025 0  1 0.025 0  0 0.05 0  0.025 0.05 0  0.05 0.05 0  0.075 0.05 0  0.1 0.05 0  0.125 0.05 0  0.15 0.05 0  0.175 0.05 0  0.2 0.05 0  0.225 0.05 0  0.25 0.05 0  0.275 0.05 0  0.3 0.05 0  0.325 0.05 0  0.35 0.05 0  0.375 0.05 0  0.4 0.05 0  0.425 0.05 0  0.45 0.05 0  0.475 0.05 0  0.5 0.05 0  0.525 0.05 0  0.55 0.05 0  0.575 0.05 0  0.6 0.05 0  0.625 0.05 0  0.65 0.05 0  0.675 0.05 0  0.7 0.05 0  0.725 0.05 0  0.75 0.05 0  0.775 0.05 0  0.8 0.05 0  0.825 0.05 0  0.85 0.05 0  0.875 0.05 0  0.9 0.05 0  0.925 0.05 0  0.95 0.05 0  0.975 0.05 0  1 0.05 0  0 0.075 0  0.025 0.075 0  0.05 0.075 0  0.075 0.075 0  0.1 0.075 0  0.125 0.075 0  0.15 0.075 0  0.175 0.075 0  0.2 0.075 0  0.225 0.075 0  0.25 0.075 0  0.275 0.075 0  0.3 0.075 0  0.325 0.075 0  0.35 0.075 0  0.375 0.075 0  0.4 0.075 0  0.425 0.075 0  0.45 0.075 0  0.475 0.075 0  0.5 0.075 0  0.525 0.075 0  0.55 0.075 0  0.575 0.075 0  0.6 0.075 0  0.625 0.075 0  0.65 0.075 0  0.675 0.075 0  0.7 0.075 0  0.725 0.075 0  0.75 0.075 0  0.775 0.075 0  0.8 0.075 0  0.825 0.075 0  0.85 0.075 0  0.875 0.075 0  0.9 0.075 0  0.925 0.075 0  0.95 0.075 0  0.975 0.075 0  1 0.075 0  0 0.1 0  0.025 0.1 0  0.05 0.1 0  0.075 0.1 0  0.1 0.1 0  0.125 0.1 0  0.15 0.1 0  0.175 0.1 0  0.2 0.1 0  0.225 0.1 0  0.25 0.1 0  0.275 0.1 0  0.3 0.1 0  0.325 0.1 0  0.35 0.1 0  0.375 0.1 0  0.4 0.1 0  0.425 0.1 0  0.45 0.1 0  0.475 0.1 0  0.5 0.1 0  0.525 0.1 0  0.55 0.1 0  0.575 0.1 0  0.6 0.1 0  0.625 0.1 0  0.65 0.1 0  0.675 0.1 0  0.7 0.1 0  0.725 0.1 0  0.75 0.1 0  0.775 0.1 0  0.8 0.1 0  0.825 0.1 0  0.85 0.1 0  0.875 0.1 0  0.9 0.1 0  0.925 0.1 0  0.95 0.1 0  0.975 0.1 0  1 0.1 0  0 0.125 0  0.025 0.125 0  0.05 0.125 0  0.075 0.125 0  0.1 0.125 0  0.125 0.125 0  0.15 0.125 0  0.175 0.125 0  0.2 0.125 0  0.225 0.125 0  0.25 0.125 0  0.275 0.125 0  0.3 0.125 0  0.325 0.125 0  0.35 0.125 0  0.375 0.125 0  0.4 0.125 0  0.425 0.125 0  0.45 0.125 0  0.475 0.125 0  0.5 0.125 0  0.525 0.125 0  0.55 0.125 0  0.575 0.125 0  0.6 0.125 0  0.625 0.125 0  0.65 0.125 0  0.675 0.125 0  0.7 0.125 0  0.725 0.125 0  0.75 0.125 0  0.775 0.125 0  0.8 0.125 0  0.825 0.125 0  0.85 0.125 0  0.875 0.125 0  0.9 0.125 0  0.925 0.125 0  0.95 0.125 0  0.975 0.125 0  1 0.125 0  0 0.15 0  0.025 0.15 0  0.05 0.15 0  0.075 0.15 0  0.1 0.15 0  0.125 0.15 0  0.15 0.15 0  0.175 0.15 0  0.2 0.15 0  0.225 0.15 0  0.25 0.15 0  0.275 0.15 0  0.3 0.15 0  0.325 0.15 0  0.35 0.15 0  0.375 0.15 0  0.4 0.15 0  0.425 0.15 0  0.45 0.15 0  0.475 0.15 0  0.5 0.15 0  0.525 0.15 0  0.55 0.15 0  0.575 0.15 0  0.6 0.15 0  0.625 0.15 0  0.65 0.15 0  0.675 0.15 0  0.7 0.15 0  0.725 0.15 0  0.75 0.15 0  0.775 0.15 0  0.8 0.15 0  0.825 0.15 0  0.85 0.15 0  0.875 0.15 0  0.9 0.15 0  0.925 0.15 0  0.95 0.15 0  0.975 0.15 0  1 0.15 0  0 0.175 0  0.025 0.175 0  0.05 0.175 0  0.075 0.175 0  0.1 0.175 0  0.125 0.175 0  0.15 0.175 0  0.175 0.175 0  0.2 0.175 0  0.225 0.175 0  0.25 0.175 0  0.275 0.175 0  0.3 0.175 0  0.325 0.175 0  0.35 0.175 0  0.375 0.175 0  0.4 0.175 0  0.425 0.175 0  0.45 0.175 0  0.475 0.175 0  0.5 0.175 0  0.525 0.175 0  0.55 0.175 0  0.575 0.175 0  0.6 0.175 0  0.625 0.175 0  0.65 0.175 0  0.675 0.175 0  0.7 0.175 0  0.725 0.175 0  0.75 0.175 0  0.775 0.175 0  0.8 0.175 0  0.825 0.175 0  0.85 0.175 0  0.875 0.175 0  0.9 0.175 0  0.925 0.175 0  0.95 0.175 0  0.975 0.175 0  1 0.175 0  0 0.2 0  0.025 0.2 0  0.05 0.2 0  0.075 0.2 0  0.1 0.2 0  0.125 0.2 0  0.15 0.2 0  0.175 0.2 0  0.2 0.2 0  0.225 0.2 0  0.25 0.2 0  0.275 0.2 0  0.3 0.2 0  0.325 0.2 0  0.35 0.2 0  0.375 0.2 0  0.4 0.2 0  0.425 0.2 0  0.45 0.2 0  0.475 0.2 0  0.5 0.2 0  0.525 0.2 0  0.55 0.2 0  0.575 0.2 0  0.6 0.2 0  0.625 0.2 0  0.65 0.2 0  0.675 0.2 0  0.7 0.2 0  0.725 0.2 0  0.75 0.2 0  0.775 0.2 0  0.8 0.2 0  0.825 0.2 0  0.85 0.2 0  0.875 0.2 0  0.9 0.2 0  0.925 0.2 0  0.95 0.2 0  0.975 0.2 0  1 0.2 0  0 0.225 0  0.025 0.225 0  0.05 0.225 0  0.075 0.225 0  0.1 0.225 0  0.125 0.225 0  0.15 0.225 0  0.175 0.225 0  0.2 0.225 0  0.225 0.225 0  0.25 0.225 0  0.275 0.225 0  0.3 0.225 0  0.325 0.225 0  0.35 0.225 0  0.375 0.225 0  0.4 0.225 0  0.425 0.225 0  0.45 0.225 0  0.475 0.225 0  0.5 0.225 0  0.525 0.225 0  0.55 0.225 0  0.575 0.225 0  0.6 0.225 0  0.625 0.225 0  0.65 0.225 0  0.675 0.225 0  0.7 0.225 0  0.725 0.225 0  0.75 0.225 0  0.775 0.225 0  0.8 0.225 0  0.825 0.225 0  0.85 0.225 0  0.875 0.225 0  0.9 0.225 0  0.925 0.225 0  0.95 0.225 0  0.975 0.225 0  1 0.225 0  0 0.25 0  0.025 0.25 0  0.05 0.25 0  0.075 0.25 0  0.1 0.25 0  0.125 0.25 0  0.15 0.25 0  0.175 0.25 0  0.2 0.25 0  0.225 0.25 0  0.25 0.25 0  0.275 0.25 0  0.3 0.25 0  0.325 0.25 0  0.35 0.25 0  0.375 0.25 0  0.4 0.25 0  0.425 0.25 0  0.45 0.25 0  0.475 0.25 0  0.5 0.25 0  0.525 0.25 0  0.55 0.25 0  0.575 0.25 0  0.6 0.25 0  0.625 0.25 0  0.65 0.25 0  0.675 0.25 0  0.7 0.25 0  0.725 0.25 0  0.75 0.25 0  0.775 0.25 0  0.8 0.25 0  0.825 0.25 0  0.85 0.25 0  0.875 0.25 0  0.9 0.25 0  0.925 0.25 0  0.95 0.25 0  0.975 0.25 0  1 0.25 0  0 0.275 0  0.025 0.275 0  0.05 0.275 0  0.075 0.275 0  0.1 0.275 0  0.125 0.275 0  0.15 0.275 0  0.175 0.275 0  0.2 0.275 0  0.225 0.275 0  0.25 0.275 0  0.275 0.275 0  0.3 0.275 0  0.325 0.275 0  0.35 0.275 0  0.375 0.275 0  0.4 0.275 0  0.425 0.275 0  0.45 0.275 0  0.475 0.275 0  0.5 0.275 0  0.525 0.275 0  0.55 0.275 0  0.575 0.275 0  0.6 0.275 0  0.625 0.275 0  0.65 0.275 0  0.675 0.275 0  0.7 0.275 0  0.725 0.275 0  0.75 0.275 0  0.775 0.275 0  0.8 0.275 0  0.825 0.275 0  0.85 0.275 0  0.875 0.275 0  0.9 0.275 0  0.925 0.275 0  0.95 0.275 0  0.975 0.275 0  1 0.275 0  0 0.3 0  0.025 0.3 0  0.05 0.3 0  0.075 0.3 0  0.1 0.3 0  0.125 0.3 0  0.15 0.3 0  0.175 0.3 0  0.2 0.3 0  0.225 0.3 0  0.25 0.3 0  0.275 0.3 0  0.3 0.3 0  0.325 0.3 0  0.35 0.3 0  0.375 0.3 0  0.4 0.3 0  0.425 0.3 0  0.45 0.3 0  0.475 0.3 0  0.5 0.3 0  0.525 0.3 0  0.55 0.3 0  0.575 0.3 0  0.6 0.3 0  0.625 0.3 0  0.65 0.3 0  0.675 0.3 0  0.7 0.3 0  0.725 0.3 0  0.75 0.3 0  0.775 0.3 0  0.8 0.3 0  0.825 0.3 0  0.85 0.3 0  0.875 0.3 0  0.9 0.3 0  0.925 0.3 0  0.95 0.3 0  0.975 0.3 0  1 0.3 0  0 0.325 0  0.025 0.325 0  0.05 0.325 0  0.075 0.325 0  0.1 0.325 0  0.125 0.325 0  0.15 0.325 0  0.175 0.325 0  0.2 0.325 0  0.225 0.325 0  0.25 0.325 0  0.275 0.325 0  0.3 0.325 0  0.325 0.325 0  0.35 0.325 0  0.375 0.325 0  0.4 0.325 0  0.425 0.325 0  0.45 0.325 0  0.475 0.325 0  0.5 0.325 0  0.525 0.325 0  0.55 0.325 0  0.575 0.325 0  0.6 0.325 0  0.625 0.325 0  0.65 0.325 0  0.675 0.325 0  0.7 0.325 0  0.725 0.325 0  0.75 0.325 0  0.775 0.325 0  0.8 0.325 0  0.825 0.325 0  0.85 0.325 0  0.875 0.325 0  0.9 0.325 0  0.925 0.325 0  0.95 0.325 0  0.975 0.325 0  1 0.325 0  0 0.35 0  0.025 0.35 0  0.05 0.35 0  0.075 0.35 0  0.1 0.35 0  0.125 0.35 0  0.15 0.35 0  0.175 0.35 0  0.2 0.35 0  0.225 0.35 0  0.25 0.35 0  0.275 0.35 0  0.3 0.35 0  0.325 0.35 0  0.35 0.35 0  0.375 0.35 0  0.4 0.35 0  0.425 0.35 0  0.45 0.35 0  0.475 0.35 0  0.5 0.35 0  0.525 0.35 0  0.55 0.35 0  0.575 0.35 0  0.6 0.35 0  0.625 0.35 0  0.65 0.35 0  0.675 0.35 0  0.7 0.35 0  0.725 0.35 0  0.75 0.35 0  0.775 0.35 0  0.8 0.35 0  0.825 0.35 0  0.85 0.35 0  0.875 0.35 0  0.9 0.35 0  0.925 0.35 0  0.95 0.35 0  0.975 0.35 0  1 0.35 0  0 0.375 0  0.025 0.375 0  0.05 0.375 0  0.075 0.375 0  0.1 0.375 0  0.125 0.375 0  0.15 0.375 0  0.175 0.375 0  0.2 0.375 0  0.225 0.375 0  0.25 0.375 0  0.275 0.375 0  0.3 0.375 0  0.325 0.375 0  0.35 0.375 0  0.375 0.375 0  0.4 0.375 0  0.425 0.375 0  0.45 0.375 0  0.475 0.375 0  0.5 0.375 0  0.525 0.375 0  0.55 0.375 0  0.575 0.375 0  0.6 0.375 0  0.625 0.375 0  0.65 0.375 0  0.675 0.375 0  0.7 0.375 0  0.725 0.375 0  0.75 0.375 0  0.775 0.375 0  0.8 0.375 0  0.825 0.375 0  0.85 0.375 0  0.875 0.375 0  0.9 0.375 0  0.925 0.375 0  0.95 0.375 0  0.975 0.375 0  1 0.375 0  0 0.4 0  0.025 0.4 0  0.05 0.4 0  0.075 0.4 0  0.1 0.4 0  0.125 0.4 0  0.15 0.4 0  0.175 0.4 0  0.2 0.4 0  0.225 0.4 0  0.25 0.4 0  0.275 0.4 0  0.3 0.4 0  0.325 0.4 0  0.35 0.4 0  0.375 0.4 0  0.4 0.4 0  0.425 0.4 0  0.45 0.4 0  0.475 0.4 0  0.5 0.4 0  0.525 0.4 0  0.55 0.4 0  0.575 0.4 0  0.6 0.4 0  0.625 0.4 0  0.65 0.4 0  0.675 0.4 0  0.7 0.4 0  0.725 0.4 0  0.75 0.4 0  0.775 0.4 0  0.8 0.4 0  0.825 0.4 0  0.85 0.4 0  0.875 0.4 0  0.9 0.4 0  0.925 0.4 0  0.95 0.4 0  0.975 0.4 0  1 0.4 0  0 0.425 0  0.025 0.425 0  0.05 0.425 0  0.075 0.425 0  0.1 0.425 0  0.125 0.425 0  0.15 0.425 0  0.175 0.425 0  0.2 0.425 0  0.225 0.425 0  0.25 0.425 0  0.275 0.425 0  0.3 0.425 0  0.325 0.425 0  0.35 0.425 0  0.375 0.425 0  0.4 0.425 0  0.425 0.425 0  0.45 0.425 0  0.475 0.425 0  0.5 0.425 0  0.525 0.425 0  0.55 0.425 0  0.575 0.425 0  0.6 0.425 0  0.625 0.425 0  0.65 0.425 0  0.675 0.425 0  0.7 0.425 0  0.725 0.425 0  0.75 0.425 0  0.775 0.425 0  0.8 0.425 0  0.825 0.425 0  0.85 0.425 0  0.875 0.425 0  0.9 0.425 0  0.925 0.425 0  0.95 0.425 0  0.975 0.425 0  1 0.425 0  0 0.45 0  0.02
[...]
<PointData  Scalars="ControlVisualisation"> 
<DataArray  type="Float64"  Name="ControlVisualisation"  format="ascii">4.6110392683926088e-01  4.4587955705057380e-01  4.4587967264500389e-01  4.4588624334530713e-01  4.4590140898070579e-01  4.4592511570614174e-01  4.4595688264055511e-01  4.4599624673488714e-01  4.4604278737271486e-01  4.4609609082373924e-01  4.4615573913483780e-01  4.4622131607942145e-01  4.4629241917370788e-01  4.4636867094055038e-01  4.4644972576383513e-01  4.4653527018072597e-01  4.4662501478525107e-01  4.4671867567260021e-01  4.4681594269949876e-01  4.4691643080190918e-01  4.4701960918482014e-01  4.4712470140001465e-01  4.4723054730819789e-01  4.4733541614750227e-01  4.4743675951812434e-01  4.4753089648359407e-01  4.4761263489399022e-01  4.4767486248894861e-01  4.4770820202709904e-01  4.4770093823261298e-01  4.4763960882290277e-01  4.4751087897787228e-01  4.4730553410024132e-01  4.4702508967370352e-01  4.4669008171171232e-01  4.4634630760247568e-01  4.4605910424826800e-01  4.4588889865956888e-01  4.4584841915299095e-01  4.4587188831416880e-01  4.7635850560644066e-01  4.4587955158523218e-01  4.0049573723591625e-01  4.0053779303568110e-01  4.0065134475767222e-01  4.0085958412419104e-01  4.0116682952244959e-01  4.0156933538013001e-01  4.0206178727226710e-01  4.0263872644991855e-01  4.0329463916382585e-01  4.0402395782361911e-01  4.0482114433756561e-01  4.0568082034916381e-01  4.0659788614952069e-01  4.0756759133335385e-01  4.0858553344616638e-01  4.0964756542337710e-01  4.1074959162077018e-01  4.1188722706034886e-01  4.1305528577795864e-01  4.1424705205384049e-01  4.1545327334155979e-01  4.1666079757547636e-01  4.1785076459897946e-01  4.1899626146986879e-01  4.2005938447416985e-01  4.2098775475462852e-01  4.2171077859279593e-01  4.2213643282942648e-01  4.2215025826205221e-01  4.2161966948014118e-01  4.2040865288902374e-01  4.1840979692008962e-01  4.1559917351980391e-01  4.1211231157379941e-01  4.0831335353232451e-01  4.0478594052581396e-01  4.0216898832967723e-01  4.0079181591587471e-01  4.0042483781009020e-01  4.4587160823493233e-01  4.4587962405441528e-01  4.0053782256476467e-01  4.0071486158124653e-01  4.0104562738094779e-01  4.0157400079035477e-01  4.0232174681445620e-01  4.0328808390174631e-01  4.0446352542594272e-01  4.0583576215524630e-01  4.0739157507349638e-01  4.0911743600242306e-01  4.1099988231527146e-01  4.1302585524003677e-01  4.1518297493790357e-01  4.1745970130490773e-01  4.1984533428688164e-01  4.2232981359378430e-01  4.2490327599758632e-01  4.2755531905913069e-01  4.3027390374831831e-01  4.3304380556283317e-01  4.3584449585975188e-01  4.3864730597287099e-01  4.4141170510434891e-01  4.4408052746367399e-01  4.4657405098897629e-01  4.4878302488778471e-01  4.5056118081769142e-01  4.5171861235150307e-01  4.5201893398549869e-01  4.5118549910512762e-01  4.4892547328862137e-01  4.4498383537739583e-01  4.3924031496035987e-01  4.3185439710929546e-01  4.2341762337018379e-01  4.1501225822701215e-01  4.0795956017575213e-01  4.0313421532535160e-01  4.0072339146213215e-01  4.4583937649998084e-01  4.4588610860955258e-01  4.0065217684774335e-01  4.0104856322306676e-01  4.0159772391882242e-01  4.0235559567727219e-01  4.0337728980751603e-01  4.0467849902979702e-01  4.0625392935847909e-01  4.0808986290902488e-01  4.1016955713494213e-01  4.1247528188433080e-01  4.1498929875107449e-01  4.1769446774991426e-01  4.2057466877697908e-01  4.2361504653954862e-01  4.2680204586559639e-01  4.3012319614203887e-01  4.3356659755325655e-01  4.3712005050072067e-01  4.4076975085596148e-01  4.4449844764753171e-01  4.4828292808836828e-01  4.5209066191015640e-01  4.5587541251891500e-01  4.5957162607021934e-01  4.6308747767926123e-01  4.6629664964372092e-01  4.6902934386632383e-01  4.7106383143294361e-01  4.7212123984131615e-01  4.7186836800792481e-01  4.6993658490983153e-01  4.6596774589300843e-01  4.5970312768479721e-01  4.5112379767817679e-01  4.4062589312148537e-01  4.2916001443004509e-01  4.1802669090178274e-01  4.0844059506569186e-01  4.0189873517451408e-01  4.4582747792693356e-01  4.4590128082281749e-01  4.0086434016989253e-01  4.0158897585592168e-01  4.0237218374856931e-01  4.0329022058663599e-01  4.0445361405699110e-01  4.0590723497338593e-01  4.0765697145226604e-01  4.0969223232057850e-01  4.1199621470043207e-01  4.1455004515513555e-01  4.1733461958134715e-01  4.2033157197103738e-01  4.2352387446283657e-01  4.2689619040729315e-01  4.3043499320903544e-01  4.3412842843611954e-01  4.3796588341027493e-01  4.4193721656581297e-01  4.4603158209087634e-01  4.5023576271376164e-01  4.5453189629293583e-01  4.5889445408462165e-01  4.6328630843850443e-01  4.6765373060435039e-01  4.7192021176436871e-01  4.7597914395331298e-01  4.7968569092808994e-01  4.8284868295365468e-01  4.8522416283231490e-01  4.8651316124202831e-01  4.8636767133910674e-01  4.8440885325611438e-01  4.8026485715225120e-01  4.7362145215832774e-01  4.6429415022588283e-01  4.5223479539565281e-01  4.3740984793545512e-01  4.2031063881416053e-01  4.0496034132641628e-01  4.4587962712601642e-01  4.4592540336947639e-01  4.0118315067436822e-01  4.0236904036364207e-01  4.0343876614306701e-01  4.0450302000410826e-01  4.0575454408280109e-01  4.0728019590684800e-01  4.0910233990986489e-01  4.1121599610787701e-01  4.1360583051033045e-01  4.1625304183354733e-01  4.1913827626086853e-01  4.2224304968279575e-01  4.2555056792051649e-01  4.2904621989855618e-01  4.3271782078469345e-01  4.3655561504808160e-01  4.4055202865571724e-01  4.4470114874111843e-01  4.4899789822415898e-01  4.5343685975201814e-01  4.5801068932700162e-01  4.6270804908793806e-01  4.6751098813009123e-01  4.7239172159418052e-01  4.7730881827931393e-01  4.8220292590525571e-01  4.8699235362406307e-01  4.9156907095073488e-01  4.9579585905854084e-01  4.9950502058245139e-01  5.0249780820517753e-01  5.0453828007920976e-01  5.0532774300222238e-01  5.0440997096319118e-01  5.0095054360258873e-01  4.9312064295005431e-01  4.7734773527542379e-01  4.4853818839869725e-01  4.1243595399754263e-01  4.4590457072110540e-01  4.4595848972952917e-01  4.0161160483575881e-01  4.0340454665138425e-01  4.0483538052399992e-01  4.0606275830220639e-01  4.0738967106892193e-01  4.0895875247112334e-01  4.1081402902752806e-01  4.1295788679954598e-01  4.1537710076061590e-01  4.1805325995800013e-01  4.2096701899741634e-01  4.2410006158870295e-01  4.2743617506136289e-01  4.3096190576624255e-01  4.3466694981844972e-01  4.3854433142605509e-01  4.4259039209108664e-01  4.4680460578987546e-01  4.5118923353093077e-01  4.5574883236360375e-01  4.6048964147683047e-01  4.6541888732793552e-01  4.7054409018777021e-01  4.7587252982955319e-01  4.8141115641695514e-01  4.8716743264883888e-01  4.9315186891766533e-01  4.9938331386132256e-01  5.0589815723283471e-01  5.1276381655524284e-01  5.2009362191102015e-01  5.2804887512152132e-01  5.3678982119714436e-01  5.4625893766409195e-01  5.5559574611449647e-01  5.6171886018313788e-01  5.5731625948730867e-01  5.2657561204416026e-01  4.5394959769700421e-01  4.4802481651999376e-01  4.4600074722330313e-01  4.0215332777167323e-01  4.0470790223315772e-01  4.0658636523729824e-01  4.0800809373442981e-01  4.0941466270119337e-01  4.1101899576016898e-01  4.1289238831675806e-01  4.1504641567130446e-01  4.1747044921979709e-01  4.2014655460647699e-01  4.2305541204729319e-01  4.2617892565332927e-01  4.2950158403371930e-01  4.3301128683734730e-01  4.3669988718681235e-01  4.4056355312882589e-01  4.4460301120325540e-01  4.4882373014279842e-01  4.5323611168899747e-01  4.5785577524913790e-01  4.6270405839573103e-01  4.6780891598932689e-01  4.7320650302892120e-01  4.7894389464723958e-01  4.8508366687491133e-01  4.9171148244943735e-01  4.9894845041724206e-01  5.0697087200394741e-01  5.1604086812025285e-01  5.2655151317999549e-01  5.3908651074335556e-01  5.5447855379792998e-01  5.7380212000917785e-01  5.9809240622803495e-01  6.2740319244074771e-01  6.5871940441529309e-01  6.8428178563385689e-01  6.8863651327427067e-01  6.7163758784244454e-01  5.2196912052120759e-01  4.4605260618059206e-01  4.0281404495901935e-01  4.0629407224447123e-01  4.0871497744650953e-01  4.1036959487836694e-01  4.1186697226471891e-01  4.1350543992266342e-01  4.1538968443979613e-01  4.1754261007905219e-01  4.1995680985796807e-01  4.2261496101752283e-01  4.2549779982614166e-01  4.2858750376319166e-01  4.3186937038243800e-01  4.3533281194683177e-01  4.3897203515818517e-01  4.4278656880333206e-01  4.4678174598950776e-01  4.5096924362127244e-01  4.5536780063229743e-01  4.6000427458686527e-01  4.6491526117013388e-01  4.7014960843524645e-01  4.7577233339732355e-01  4.8187073444031470e-01  4.8856395584791268e-01  4.9601800443483102e-01  5.0446939153763970e-01  5.1426233837370972e-01  5.2590683030787666e-01  5.4016679619997676e-01  5.5818474653777994e-01  5.8162601733965269e-01  6.1273257724590824e-01  6.5390512435830017e-01  7.0596991979188251e-01  7.6444507355403157e-01  8.1870005255718969e-01  8.5349473258553465e-01  9.0132802321604666e-01  7.7948928678229301e-01  4.4611469481367028e-01  4.0360180674018203e-01  4.0818280195942497e-01  4.1124914603981211e-01  4.1318018746464041e-01  4.1478250654547577e-01  4.1645575307112165e-01  4.1834468900646943e-01  4.2048606112787829e-01  4.2287654772212868e-01  4.2549973316545708e-01  4.2833655931612874e-01  4.3136962434920784e-01  4.3458521032095743e-01  4.3797443110268869e-01  4.4153401721930952e-01  4.4526696994567683e-01  4.4918323701582258e-01  4.5330055476730297e-01  4.5764562691541766e-01  4.6225586336264790e-01  4.6718199335890159e-01  4.7249201707395844e-01  4.7827720414858527e-01  4.8466124683975320e-01  4.9181432834664240e-01  4.9997493584278346e-01  5.0948397988416516e-01  5.2083848477667449e-01  5.3477589676075765e-01  5.5240359764630953e-01  5.7538440033763838e-01  6.0615001447606898e-01  6.4794973233620667e-01  7.0404577870377627e-01  7.7438296792091221e-01  8.4875535367587029e-01  9.0696308850168350e-01  9.3446240265871527e-01  9.5052488143303193e-01  8.8837362782797191e-01  4.4618784690168523e-01  4.0452723964695581e-01  4.1039983052178242e-01  4.1422434217419063e-01  4.1648013824048180e-01  4.1820311268628979e-01  4.1991125508283189e-01  4.2179679211742355e-01  4.2391328269933737e-01  4.2626266678752789e-01  4.2882996713111532e-01  4.3159667313177513e-01  4.3454610937830218e-01  4.3766583645117541e-01  4.4094892441983463e-01  4.4439479412122207e-01  4.4800993885473617e-01  4.5180872479583223e-01  4.5581445063590259e-01  4.6006087313117899e-01  4.6459446699335871e-01  4.6947779539729423e-01  4.7479454564039275e-01  4.8065707536001101e-01  4.8721778930861098e-01  4.9468644422472763e-01  5.0335675487508169e-01  5.1364774318011919e-01  5.2616848500384283e-01  5.4181927912762995e-01  5.6194571975825836e-01  5.8855414175503296e-01  6.2453642077629978e-01  6.7361011024448059e-01  7.3895615871099163e-01  8.1824109797503775e-01  8.9469857304919231e-01  9.4104312537207258e-01  9.5312812326519514e-01  9.6269822225316037e-01  9.0880152708918382e-01  4.4627313902068277e-01  4.0560404386896692e-01  4.1297829008517045e-01  4.1768599158844250e-01  4.2032046467574824e-01  4.2218092145586439e-01  4.2392220272452513e-01  4.2579233903861669e-01  4.2786528441724758e-01  4.3014984916746624e-01  4.3263336643433209e-01  4.3529850097887418e-01  4.3812984518514592e-01  4.4111670855686719e-01  4.4425447609040702e-01  4.4754544469329294e-01  4.5099954170461631e-01  4.5463516784669078e-01  4.5848037057055824e-01  4.6257457355409498e-01  4.6697114978685927e-01  4.7174123770554710e-01  4.7697938586234823e-01  4.8281191352450509e-01  4.8940936289379972e-01  4.9700520966590067e-01  5.0592427678413154e-01  5.1662632141941633e-01  5.2977327673124175e-01  5.4633230323149728e-01  5.6772808086795867e-01  5.9604316404302005e-01  6.3418661763511819e-01  6.8566711888626042e-01  7.5282787613465585e-01  8.3135415470537533e-01  9.0205448690760504e-01  9.3814246618374819e-01  9.4245608395903080e-01  9.5398338839294694e-01  8.9622703010395122e-01  4.4637195128645091e-01  4.0684976755483393e-01  4.1596064098931784e-01  4.2169232996205425e-01  4.2476641691640826e-01  4.2678217108875460e-01  4.2855173016410197e-01  4.3038856743854781e-01  4.3239149426644496e-01  4.3457844188100292e-01  4.3694043935433985e-01  4.3946238095921480e-01  4.4213101087259199e-01  4.4493810763973812e-01  4.4788187811019070e-01  4.5096772408869717e-01  4.5420888766510681e-01  4.5762725684768729e-01  4.6125454931707804e-01  4.6513409840929620e-01  4.6932351845475906e-01  4.7389862957330170e-01  4.7895919356419875e-01  4.8463728717014332e-01  4.9110957396721822e-01  4.9861542178758345e-01  5.0748388013644308e-01  5.1817413081663188e-01  5.3133616376831616e-01  5.4790032242421316e-01  5.6920211546081267e-01  5.9712787779675902e-01  6.3418182465883199e-01  6.8310642254669285e-01  7.4505796372963373e-01  8.1482249853713107e-01  8.7494548921031667e-01  9.0354169264257655e-01  9.0427760483346142e-01  9.0727632150673543e-01  8.1493561904085166e-01  4.4648605039561651e-01  4.0828688177657430e-01  4.1940133212587571e-01  4.2631820730074010e-01  4.2990189343380736e-01  4.3209172484651709e-01  4.3388005610971336e-01  4.3565724546728835e-01  4.3755272789274252e-01  4.3959679406055796e-01  4.4178634333359212e-01  4.4411018709606692e-01  4.4655858894730827e-01  4.4912684836785477e-01  4.5181668574458528e-01  4.5463688878829378e-01  4.5760383590220211e-01  4.6074220878504202e-01  4.6408610754724255e-01  4.6768076932543157e-01  4.7158512960972437e-01  4.7587554920904906e-01  4.8065116910660594e-01  4.8604157248025631e-01  4.9221776345142787e-01  4.9940796593651754e-01  5.0792045889010895e-01  5.1817660408997657e-01  5.3075814648400454e-01  5.4647260315453017e-01  5.6643491139903446e-01  5.9213935964866449e-01  6.2541702386713649e-01  6.6796147224719016e-01  7.1969647149529559e-01  7.7513975396679324e-01  8.1952743129832040e-01  8.3356270425548651e-01  8.0670029338725446e-01  7.1526102269936909e-01  5.8934346713516628e-01  4.4661769729494138e-01  4.0994422256096957e-01  4.2337042770268601e-01  4.3166030555187063e-01  4.3583544643963479e-01  4.3821905697211111e-01  4.4000979458077938e-01  4.4168890182196974e-01  4.4342419043191883e-01  4.4526309701423106e-01  4.4721177836506110e-01  4.4926557275089962e-01  4.5142028075367463e-01  4.5367617430280338e-01  4.5603936415321078e-01  4.5852232280626515e-01  4.6114428919346639e-01  4.6393188433691529e-01  4.6692012880562395e-01  4.7015402093157849e-01  4.7369085647842124e-01  4.7760353030585073e-01  4.8198515870844788e-01  4.8695550570775953e-01  4.9266990007838785e-01  4.9933160205556931e-01  5.0720890428949417e-01  5.1665852033103354e-01  5.2815661064256636e-01  5.4233680225003245e-01  5.6002693383745872e-01  5.8225268430694521e-01  6.1011227421999314e-01  6.4427980581926425e-01  6.8366557965785391e-01  7.2280486177300918e-01  7.4909995755994874e-01  7.4386394930229638e-01  6.8400518104812624e-01  5.4242447336471955e-01  4.6412198642730634e-01  4.4676978270093609e-01  4.1185890714560891e-01  4.2795856620932127e-01  4.3784441592597484e-01  4.4270870171102400e-01  4.4530653263561532e-01  4.4707305119187402e-01  4.4859813469609411e-01  4.5009883904407116e-01  4.5164698383775737e-01  4.5326321491868793e-01  4.5495330164338571e-01  4.5672140671476452e-01  4.5857462990005071e-01  4.6052444825134176e-01  4.6258721451893708e-01  4.6478454137379099e-01  4.6714389934442524e-01  4.6969958080705970e-01  4.7249413537201218e-01  4.7558039044453326e-01  4.7902420813737673e-01  4.8290818720354622e-01  4.8733659289092873e-01  4.9244188294134572e-01  4.9839327482673673e-01  5.0540780727714252e-01  5.1376411779832742e-01  5.2381822915829612e-01  5.3601781827414929e-01  5.5090373434505591e-01  5.6906790701868348e-01  5.9099104293884264e-01  6.1659344882764500e-01  6.4421905042060701e-01  6.6885666687064738e-01  6.8024670420064548e-01  6.6275280657940405e-01  5.9715472276419601e-01  4.8034704009273216e-01  4.5099365800884778e-01  4.4694598939568364e-01  4.1407886949907546e-01  4.3328382630441764e-01  4.4503581136670484e-01  4.5070846411217513e-01  4.5354114051724670e-01  4.5524109398036444e-01  4.5653034764386546e-01  4.5769109618404019e-01  4.5883067745943090e-01  4.5999220207738978e-01  4.6119748659621929e-01  4.6246275213201626e-01  4.6380403279097476e-01  4.6523899464406876e-01  4.6678769540794018e-01  4.6847319458641856e-01  4.7032232499451931e-01  4.7236673391920364e-01  4.7464424872367594e-01  4.7720062280525544e-01  4.8009173765021634e-01  4.8338636057938744e-01  4.8716957572715686e-01  4.9154700267667684e-01  4.9664986034373731e-01  5.0264074903343670e-01  5.0971954165493738e-01  5.1812760692562154e-01  5.2814584319079816e-01  5.4007569605150108e-01  5.5417835328075138e-01  5.7051865335767871e-01  5.8861135758006478e-01  6.0672089685228814e-01  6.2074750573222559e-01  6.2309829106517078e-01  6.0265071674764437e-01  5.4709175992872994e-01  4.5829456633709276e-01  4.4998709201807785e-01  4.4715096790655590e-01  4.1666620764734164e-01  4.3950143919684370e-01  4.5345449668307575e-01  4.6008464137257732e-01  4.6317147021094163e-01  4.6473761583884526e-01  4.6567011251269708e-01  4.6634052680913862e-01  4.6690902567661646e-01  4.6745308088786369e-01  4.6801820551309109e-01  4.6863703324242079e-01  4.6933641994024422e-01  4.7014035728131898e-01  4.7107157943033934e-01  4.7215284573675448e-01  4.7340820246249982e-01  4.7486431014495384e-01  4.7655186984777981e-01  4.7850717799033710e-01  4.8077384463338774e-01  4.8340470792000745e-01  4.8646395678873788e-01  4.9002941869752831e-01  4.9419484722163831e-01  4.9907179239768346e-01  5.0479012536117507e-01  5.1149525214019631e-01  5.1933793895841440e-01  5.2844836972526288e-01  5.3887750166187420e-01  5.5047302629246875e-01  5.6263361738260398e-01  5.7386912963898573e-01  5.8114823103099322e-01  5.7924445758656340e-01  5.6060774056025997e-01  5.1633240147181225e-01  4.4716658852481928e-01  4.4933849426181660e-01  4.4739048068205400e-01  4.1970153145782640e-01  4.4681805696575927e-01  4.6339864828500194e-01  4.7117773171205291e-01  4.7453274486264951e-01  4.7585679374672041e-01  4.7625092300544647e-01  4.7621439386068826e-01  4.7598709315679438e-01  4.7569793450780684e-01  4.7542566712221196e-01  4.7522351231812016e-01  4.7512978224907781e-01  4.7517329054391017e-01  4.7537680744609750e-01  4.7575968206230762e-01  4.7634000917045921e-01  4.7713648524136276e-01  4.7817003432864280e-01  4.7946526518859184e-01  4.8105180520131113e-01  4.8296553028362177e-01  4.8524966423356264e-01  4.8795564302563138e-01  4.9114350622645531e-01  4.9488134635658937e-01  4.9924293921281893e-01  5.0430194609524703e-01  5.1011973887443718e-01  5.1672141175340691e-01  5.2404996439496698e-01  5.3188070956659461e-01  5.3966655036475775e-01  5.4627629816167611e-01  5.4960544963011115e-01  5.4611050379277315e-01  5.3036526864173505e-01  4.9498544903404995e-01  4.3904484956007461e-01  4.4882582485547667e-01  4.4767132427286138e-01  4.2328974476272890e-01  4.5551426119202337e-01  4.7528283159314333e-01  4.8446265203743782e-01  4.8808411932448997e-01  4.8898705080227417e-01  4.8856484930699584e-01  4.8750660150877728e-01  4.8617289780874823e-01  4.8476697401014962e-01  4.8341084123463163e-01  4.8218026767899053e-01  4.8112248769823218e-01  4.8026649232241070e-01  4.7962978897043185e-01  4.7922317817321913e-01  4.7905423480911147e-01  4.7912986940043811e-01  4.7945821700640068e-01  4.8005002858648632e-01  4.8091968099192633e-01  4.8208586318733676e-01  4.8357193001489790e-01  4.8540583122098602e-01  4.8761940793518793e-01  4.9024667819137491e-01  4.9332046944869640e-01  4.9686633280849590e-01  5.0089196438884886e-01  5.0536911196182399e-01  5.1020266373391920e-01  5.1517743917764791e-01  5.1986605660348517e-01  5.2347095597290716e-01  5.2456258571379832e-01  5.2066155897027733e-01  5.0757567671181703e-01  4.7881361808770584e-01  4.3272433278085265e-01  4.4838612472411465e-01  4.4800093813946867e-01  4.2756930033375573e-01  4.6598357905018861e-01  4.8970525702498241e-01  5.0062105342730323e-01  5.0446351163895864e-01  5.0463930501552834e-01  5.0296743113133313e-01  5.004278652