<?xml version="1.0"?>
<VTKFile type="UnstructuredGrid"  version="0.1"  >
<UnstructuredGrid>
<Piece  NumberOfPoints="1681" NumberOfCells="3200">
<Points>
<DataArray  type="Float64"  NumberOfComponents="3"  format="ascii">0 0 0  0.025 0 0  0.05 0 0  0.075 0 0  0.1 0 0  0.125 0 0  0.15 0 0  0.175 0 0  0.2 0 0  0.225 0 0  0.25 0 0  0.275 0 0  0.3 0 0  0.325 0 0  0.35 0 0  0.375 0 0  0.4 0 0  0.425 0 0  0.45 0 0  0.475 0 0  0.5 0 0  0.525 0 0  0.55 0 0  0.575 0 0  0.6 0 0  0.625 0 0  0.65 0 0  0.675 0 0  0.7 0 0  0.725 0 0  0.75 0 0  0.775 0 0  0.8 0 0  0.825 0 0  0.85 0 0  0.875 0 0  0.9 0 0  0.925 0 0  0.95 0 0  0.975 0 0  1 0 0  0 0.025 0  0.025 0.025 0  0.05 0.025 0  0.075 0.025 0  0.1 0.025 0  0.125 0.025 0  0.15 0.025 0  0.175 0.025 0  0.2 0.025 0  0.225 0.025 0  0.25 0.025 0  0.275 0.025 0  0.3 0.025 0  0.325 0.025 0  0.35 0.025 0  0.375 0.025 0  0.4 0.025 0  0.425 0.025 0  0.45 0.025 0  0.475 0.025 0  0.5 0.025 0  0.525 0.025 0  0.55 0.025 0  0.575 0.025 0  0.6 0.025 0  0.625 0.025 0  0.65 0.025 0  0.675 0.025 0  0.7 0.025 0  0.725 0.025 0  0.75 0.025 0  0.775 0.025 0  0.8 0.025 0  0.825 0.025 0  0.85 0.025 0  0.875 0.025 0  0.9 0.025 0  0.925 0.025 0  0.95 0.025 0  0.975 0.025 0  1 0.025 0  0 0.05 0  0.025 0.05 0  0.05 0.05 0  0.075 0.05 0  0.1 0.05 0  0.125 0.05 0  0.15 0.05 0  0.175 0.05 0  0.2 0.05 0  0.225 0.05 0  0.25 0.05 0  0.275 0.05 0  0.3 0.05 0  0.325 0.05 0  0.35 0.05 0  0.375 0.05 0  0.4 0.05 0  0.425 0.05 0  0.45 0.05 0  0.475 0.05 0  0.5 0.05 0  0.525 0.05 0  0.55 0.05 0  0.575 0.05 0  0.6 0.05 0  0.625 0.05 0  0.65 0.05 0  0.675 0.05 0  0.7 0.05 0  0.725 0.05 0  0.75 0.05 0  0.775 0.05 0  0.8 0.05 0  0.825 0.05 0  0.85 0.05 0  0.875 0.05 0  0.9 0.05 0  0.925 0.05 0  0.95 0.05 0  0.975 0.05 0  1 0.05 0  0 0.075 0  0.025 0.075 0  0.05 0.075 0  0.075 0.075 0  0.1 0.075 0  0.125 0.075 0  0.15 0.075 0  0.175 0.075 0  0.2 0.075 0  0.225 0.075 0  0.25 0.075 0  0.275 0.075 0  0.3 0.075 0  0.325 0.075 0  0.35 0.075 0  0.375 0.075 0  0.4 0.075 0  0.425 0.075 0  0.45 0.075 0  0.475 0.075 0  0.5 0.075 0  0.525 0.075 0  0.55 0.075 0  0.575 0.075 0  0.6 0.075 0  0.625 0.075 0  0.65 0.075 0  0.675 0.075 0  0.7 0.075 0  0.725 0.075 0  0.75 0.075 0  0.775 0.075 0  0.8 0.075 0  0.825 0.075 0  0.85 0.075 0  0.875 0.075 0  0.9 0.075 0  0.925 0.075 0  0.95 0.075 0  0.975 0.075 0  1 0.075 0  0 0.1 0  0.025 0.1 0  0.05 0.1 0  0.075 0.1 0  0.1 0.1 0  0.125 0.1 0  0.15 0.1 0  0.175 0.1 0  0.2 0.1 0  0.225 0.1 0  0.25 0.1 0  0.275 0.1 0  0.3 0.1 0  0.325 0.1 0  0.35 0.1 0  0.375 0.1 0  0.4 0.1 0  0.425 0.1 0  0.45 0.1 0  0.475 0.1 0  0.5 0.1 0  0.525 0.1 0  0.55 0.1 0  0.575 0.1 0  0.6 0.1 0  0.625 0.1 0  0.65 0.1 0  0.675 0.1 0  0.7 0.1 0  0.725 0.1 0  0.75 0.1 0  0.775 0.1 0  0.8 0.1 0  0.825 0.1 0  0.85 0.1 0  0.875 0.1 0  0.9 0.1 0  0.925 0.1 0  0.95 0.1 0  0.975 0.1 0  1 0.1 0  0 0.125 0  0.025 0.125 0  0.05 0.125 0  0.075 0.125 0  0.1 0.125 0  0.125 0.125 0  0.15 0.125 0  0.175 0.125 0  0.2 0.125 0  0.225 0.125 0  0.25 0.125 0  0.275 0.125 0  0.3 0.125 0  0.325 0.125 0  0.35 0.125 0  0.375 0.125 0  0.4 0.125 0  0.425 0.125 0  0.45 0.125 0  0.475 0.125 0  0.5 0.125 0  0.525 0.125 0  0.55 0.125 0  0.575 0.125 0  0.6 0.125 0  0.625 0.125 0  0.65 0.125 0  0.675 0.125 0  0.7 0.125 0  0.725 0.125 0  0.75 0.125 0  0.775 0.125 0  0.8 0.125 0  0.825 0.125 0  0.85 0.125 0  0.875 0.125 0  0.9 0.125 0  0.925 0.125 0  0.95 0.125 0  0.975 0.125 0  1 0.125 0  0 0.15 0  0.025 0.15 0  0.05 0.15 0  0.075 0.15 0  0.1 0.15 0  0.125 0.15 0  0.15 0.15 0  0.175 0.15 0  0.2 0.15 0  0.225 0.15 0  0.25 0.15 0  0.275 0.15 0  0.3 0.15 0  0.325 0.15 0  0.35 0.15 0  0.375 0.15 0  0.4 0.15 0  0.425 0.15 0  0.45 0.15 0  0.475 0.15 0  0.5 0.15 0  0.525 0.15 0  0.55 0.15 0  0.575 0.15 0  0.6 0.15 0  0.625 0.15 0  0.65 0.15 0  0.675 0.15 0  0.7 0.15 0  0.725 0.15 0  0.75 0.15 0  0.775 0.15 0  0.8 0.15 0  0.825 0.15 0  0.85 0.15 0  0.875 0.15 0  0.9 0.15 0  0.925 0.15 0  0.95 0.15 0  0.975 0.15 0  1 0.15 0  0 0.175 0  0.025 0.175 0  0.05 0.175 0  0.075 0.175 0  0.1 0.175 0  0.125 0.175 0  0.15 0.175 0  0.175 0.175 0  0.2 0.175 0  0.225 0.175 0  0.25 0.175 0  0.275 0.175 0  0.3 0.175 0  0.325 0.175 0  0.35 0.175 0  0.375 0.175 0  0.4 0.175 0  0.425 0.175 0  0.45 0.175 0  0.475 0.175 0  0.5 0.175 0  0.525 0.175 0  0.55 0.175 0  0.575 0.175 0  0.6 0.175 0  0.625 0.175 0  0.65 0.175 0  0.675 0.175 0  0.7 0.175 0  0.725 0.175 0  0.75 0.175 0  0.775 0.175 0  0.8 0.175 0  0.825 0.175 0  0.85 0.175 0  0.875 0.175 0  0.9 0.175 0  0.925 0.175 0  0.95 0.175 0  0.975 0.175 0  1 0.175 0  0 0.2 0  0.025 0.2 0  0.05 0.2 0  0.075 0.2 0  0.1 0.2 0  0.125 0.2 0  0.15 0.2 0  0.175 0.2 0  0.2 0.2 0  0.225 0.2 0  0.25 0.2 0  0.275 0.2 0  0.3 0.2 0  0.325 0.2 0  0.35 0.2 0  0.375 0.2 0  0.4 0.2 0  0.425 0.2 0  0.45 0.2 0  0.475 0.2 0  0.5 0.2 0  0.525 0.2 0  0.55 0.2 0  0.575 0.2 0  0.6 0.2 0  0.625 0.2 0  0.65 0.2 0  0.675 0.2 0  0.7 0.2 0  0.725 0.2 0  0.75 0.2 0  0.775 0.2 0  0.8 0.2 0  0.825 0.2 0  0.85 0.2 0  0.875 0.2 0  0.9 0.2 0  0.925 0.2 0  0.95 0.2 0  0.975 0.2 0  1 0.2 0  0 0.225 0  0.025 0.225 0  0.05 0.225 0  0.075 0.225 0  0.1 0.225 0  0.125 0.225 0  0.15 0.225 0  0.175 0.225 0  0.2 0.225 0  0.225 0.225 0  0.25 0.225 0  0.275 0.225 0  0.3 0.225 0  0.325 0.225 0  0.35 0.225 0  0.375 0.225 0  0.4 0.225 0  0.425 0.225 0  0.45 0.225 0  0.475 0.225 0  0.5 0.225 0  0.525 0.225 0  0.55 0.225 0  0.575 0.225 0  0.6 0.225 0  0.625 0.225 0  0.65 0.225 0  0.675 0.225 0  0.7 0.225 0  0.725 0.225 0  0.75 0.225 0  0.775 0.225 0  0.8 0.225 0  0.825 0.225 0  0.85 0.225 0  0.875 0.225 0  0.9 0.225 0  0.925 0.225 0  0.95 0.225 0  0.975 0.225 0  1 0.225 0  0 0.25 0  0.025 0.25 0  0.05 0.25 0  0.075 0.25 0  0.1 0.25 0  0.125 0.25 0  0.15 0.25 0  0.175 0.25 0  0.2 0.25 0  0.225 0.25 0  0.25 0.25 0  0.275 0.25 0  0.3 0.25 0  0.325 0.25 0  0.35 0.25 0  0.375 0.25 0  0.4 0.25 0  0.425 0.25 0  0.45 0.25 0  0.475 0.25 0  0.5 0.25 0  0.525 0.25 0  0.55 0.25 0  0.575 0.25 0  0.6 0.25 0  0.625 0.25 0  0.65 0.25 0  0.675 0.25 0  0.7 0.25 0  0.725 0.25 0  0.75 0.25 0  0.775 0.25 0  0.8 0.25 0  0.825 0.25 0  0.85 0.25 0  0.875 0.25 0  0.9 0.25 0  0.925 0.25 0  0.95 0.25 0  0.975 0.25 0  1 0.25 0  0 0.275 0  0.025 0.275 0  0.05 0.275 0  0.075 0.275 0  0.1 0.275 0  0.125 0.275 0  0.15 0.275 0  0.175 0.275 0  0.2 0.275 0  0.225 0.275 0  0.25 0.275 0  0.275 0.275 0  0.3 0.275 0  0.325 0.275 0  0.35 0.275 0  0.375 0.275 0  0.4 0.275 0  0.425 0.275 0  0.45 0.275 0  0.475 0.275 0  0.5 0.275 0  0.525 0.275 0  0.55 0.275 0  0.575 0.275 0  0.6 0.275 0  0.625 0.275 0  0.65 0.275 0  0.675 0.275 0  0.7 0.275 0  0.725 0.275 0  0.75 0.275 0  0.775 0.275 0  0.8 0.275 0  0.825 0.275 0  0.85 0.275 0  0.875 0.275 0  0.9 0.275 0  0.925 0.275 0  0.95 0.275 0  0.975 0.275 0  1 0.275 0  0 0.3 0  0.025 0.3 0  0.05 0.3 0  0.075 0.3 0  0.1 0.3 0  0.125 0.3 0  0.15 0.3 0  0.175 0.3 0  0.2 0.3 0  0.225 0.3 0  0.25 0.3 0  0.275 0.3 0  0.3 0.3 0  0.325 0.3 0  0.35 0.3 0  0.375 0.3 0  0.4 0.3 0  0.425 0.3 0  0.45 0.3 0  0.475 0.3 0  0.5 0.3 0  0.525 0.3 0  0.55 0.3 0  0.575 0.3 0  0.6 0.3 0  0.625 0.3 0  0.65 0.3 0  0.675 0.3 0  0.7 0.3 0  0.725 0.3 0  0.75 0.3 0  0.775 0.3 0  0.8 0.3 0  0.825 0.3 0  0.85 0.3 0  0.875 0.3 0  0.9 0.3 0  0.925 0.3 0  0.95 0.3 0  0.975 0.3 0  1 0.3 0  0 0.325 0  0.025 0.325 0  0.05 0.325 0  0.075 0.325 0  0.1 0.325 0  0.125 0.325 0  0.15 0.325 0  0.175 0.325 0  0.2 0.325 0  0.225 0.325 0  0.25 0.325 0  0.275 0.325 0  0.3 0.325 0  0.325 0.325 0  0.35 0.325 0  0.375 0.325 0  0.4 0.325 0  0.425 0.325 0  0.45 0.325 0  0.475 0.325 0  0.5 0.325 0  0.525 0.325 0  0.55 0.325 0  0.575 0.325 0  0.6 0.325 0  0.625 0.325 0  0.65 0.325 0  0.675 0.325 0  0.7 0.325 0  0.725 0.325 0  0.75 0.325 0  0.775 0.325 0  0.8 0.325 0  0.825 0.325 0  0.85 0.325 0  0.875 0.325 0  0.9 0.325 0  0.925 0.325 0  0.95 0.325 0  0.975 0.325 0  1 0.325 0  0 0.35 0  0.025 0.35 0  0.05 0.35 0  0.075 0.35 0  0.1 0.35 0  0.125 0.35 0  0.15 0.35 0  0.175 0.35 0  0.2 0.35 0  0.225 0.35 0  0.25 0.35 0  0.275 0.35 0  0.3 0.35 0  0.325 0.35 0  0.35 0.35 0  0.375 0.35 0  0.4 0.35 0  0.425 0.35 0  0.45 0.35 0  0.475 0.35 0  0.5 0.35 0  0.525 0.35 0  0.55 0.35 0  0.575 0.35 0  0.6 0.35 0  0.625 0.35 0  0.65 0.35 0  0.675 0.35 0  0.7 0.35 0  0.725 0.35 0  0.75 0.35 0  0.775 0.35 0  0.8 0.35 0  0.825 0.35 0  0.85 0.35 0  0.875 0.35 0  0.9 0.35 0  0.925 0.35 0  0.95 0.35 0  0.975 0.35 0  1 0.35 0  0 0.375 0  0.025 0.375 0  0.05 0.375 0  0.075 0.375 0  0.1 0.375 0  0.125 0.375 0  0.15 0.375 0  0.175 0.375 0  0.2 0.375 0  0.225 0.375 0  0.25 0.375 0  0.275 0.375 0  0.3 0.375 0  0.325 0.375 0  0.35 0.375 0  0.375 0.375 0  0.4 0.375 0  0.425 0.375 0  0.45 0.375 0  0.475 0.375 0  0.5 0.375 0  0.525 0.375 0  0.55 0.375 0  0.575 0.375 0  0.6 0.375 0  0.625 0.375 0  0.65 0.375 0  0.675 0.375 0  0.7 0.375 0  0.725 0.375 0  0.75 0.375 0  0.775 0.375 0  0.8 0.375 0  0.825 0.375 0  0.85 0.375 0  0.875 0.375 0  0.9 0.375 0  0.925 0.375 0  0.95 0.375 0  0.975 0.375 0  1 0.375 0  0 0.4 0  0.025 0.4 0  0.05 0.4 0  0.075 0.4 0  0.1 0.4 0  0.125 0.4 0  0.15 0.4 0  0.175 0.4 0  0.2 0.4 0  0.225 0.4 0  0.25 0.4 0  0.275 0.4 0  0.3 0.4 0  0.325 0.4 0  0.35 0.4 0  0.375 0.4 0  0.4 0.4 0  0.425 0.4 0  0.45 0.4 0  0.475 0.4 0  0.5 0.4 0  0.525 0.4 0  0.55 0.4 0  0.575 0.4 0  0.6 0.4 0  0.625 0.4 0  0.65 0.4 0  0.675 0.4 0  0.7 0.4 0  0.725 0.4 0  0.75 0.4 0  0.775 0.4 0  0.8 0.4 0  0.825 0.4 0  0.85 0.4 0  0.875 0.4 0  0.9 0.4 0  0.925 0.4 0  0.95 0.4 0  0.975 0.4 0  1 0.4 0  0 0.425 0  0.025 0.425 0  0.05 0.425 0  0.075 0.425 0  0.1 0.425 0  0.125 0.425 0  0.15 0.425 0  0.175 0.425 0  0.2 0.425 0  0.225 0.425 0  0.25 0.425 0  0.275 0.425 0  0.3 0.425 0  0.325 0.425 0  0.35 0.425 0  0.375 0.425 0  0.4 0.425 0  0.425 0.425 0  0.45 0.425 0  0.475 0.425 0  0.5 0.425 0  0.525 0.425 0  0.55 0.425 0  0.575 0.425 0  0.6 0.425 0  0.625 0.425 0  0.65 0.425 0  0.675 0.425 0  0.7 0.425 0  0.725 0.425 0  0.75 0.425 0  0.775 0.425 0  0.8 0.425 0  0.825 0.425 0  0.85 0.425 0  0.875 0.425 0  0.9 0.425 0  0.925 0.425 0  0.95 0.425 0  0.975 0.425 0  1 0.425 0  0 0.45 0  0.02
[...]
<PointData  Scalars="ControlVisualisation"> 
<DataArray  type="Float64"  Name="ControlVisualisation"  format="ascii">4.8995875779761533e-01  4.8993807695338626e-01  4.8993805099254317e-01  4.8993831279239453e-01  4.8993898730106378e-01  4.8994008159569058e-01  4.8994157295670226e-01  4.8994343776420790e-01  4.8994565561355835e-01  4.8994820810662365e-01  4.8995107817478040e-01  4.8995425025047645e-01  4.8995771086652240e-01  4.8996144933511665e-01  4.8996545830622662e-01  4.8996973409357658e-01  4.8997427668260179e-01  4.8997908932387940e-01  4.8998417757579221e-01  4.8998954759091679e-01  4.8999520333530633e-01  4.9000114227815866e-01  4.9000734887996988e-01  4.9001378493367348e-01  4.9002037548790028e-01  4.9002698876930711e-01  4.9003340840614046e-01  4.9003929679228148e-01  4.9004415055023820e-01  4.9004725461278958e-01  4.9004765364495195e-01  4.9004418102756170e-01  4.9003562208994383e-01  4.9002111582859076e-01  4.9000087691766275e-01  4.8997716007188014e-01  4.8995476037566277e-01  4.8993982740689890e-01  4.8993558946898519e-01  4.8993738581223217e-01  4.8997937589468066e-01  4.8993807669201461e-01  4.8987635654898132e-01  4.8987810316781494e-01  4.8988315628542795e-01  4.8989277764707967e-01  4.8990728236140518e-01  4.8992652378228113e-01  4.8995025234957712e-01  4.8997821724886881e-01  4.9001018086841885e-01  4.9004592002789749e-01  4.9008522968973389e-01  4.9012792965335766e-01  4.9017387176216276e-01  4.9022294575644798e-01  4.9027508255393215e-01  4.9033025400233188e-01  4.9038846807475700e-01  4.9044975810942637e-01  4.9051416402824688e-01  4.9058170244903432e-01  4.9065232114549356e-01  4.9072583131088238e-01  4.9080180849466709e-01  4.9087945002929984e-01  4.9095737383072396e-01  4.9103334228267187e-01  4.9110389940758986e-01  4.9116392774372980e-01  4.9120617942571781e-01  4.9122093898106090e-01  4.9119616766164192e-01  4.9111878970929362e-01  4.9097805652277049e-01  4.9077196304021209e-01  4.9051615073864152e-01  4.9025038737185256e-01  4.9003260236149127e-01  4.8990755972443517e-01  4.8987118023776116e-01  4.8993735619888257e-01  4.8993804852182110e-01  4.8987810315549885e-01  4.8988624782359880e-01  4.8990204765772977e-01  4.8992771015689657e-01  4.8996446036731139e-01  4.9001236555878924e-01  4.9007101014036852e-01  4.9013983594777810e-01  4.9021826460303103e-01  4.9030573727077997e-01  4.9040173644919383e-01  4.9050580520828191e-01  4.9061756459349748e-01  4.9073672719198319e-01  4.9086310469977551e-01  4.9099660751721630e-01  4.9113723417536753e-01  4.9128504763404590e-01  4.9144013411899345e-01  4.9160253805745746e-01  4.9177216365387083e-01  4.9194862953069518e-01  4.9213105753834774e-01  4.9231777053383841e-01  4.9250586772271027e-01  4.9269064310444532e-01  4.9286481986574926e-01  4.9301760629365382e-01  4.9313366653206281e-01  4.9319228939633070e-01  4.9316740633223466e-01  4.9302968561838323e-01  4.9275258214850515e-01  4.9232450169968678e-01  4.9176616169311055e-01  4.9114596948133443e-01  4.9057178033202559e-01  4.9013936296868815e-01  4.8990461171903432e-01  4.8993481561612051e-01  4.8993830532439547e-01  4.8988318782460821e-01  4.8990218253113327e-01  4.8992971867032126e-01  4.8996807250804114e-01  4.9002000433709542e-01  4.9008645577453230e-01  4.9016727148581296e-01  4.9026184376078819e-01  4.9036942291215641e-01  4.9048924350217210e-01  4.9062058523887497e-01  4.9076281052270054e-01  4.9091539213937296e-01  4.9107793336640371e-01  4.9125017961383571e-01  4.9143201986737556e-01  4.9162347560221425e-01  4.9182467387878281e-01  4.9203579973589340e-01  4.9225702056749582e-01  4.9248837169332710e-01  4.9272958758416380e-01  4.9297985702715513e-01  4.9323747307297833e-01  4.9349934088182423e-01  4.9376030149939021e-01  4.9401223413113077e-01  4.9424292847966139e-01  4.9443480155836256e-01  4.9456371903398894e-01  4.9459855271014069e-01  4.9450268880943993e-01  4.9423953099512336e-01  4.9378417196280500e-01  4.9314055577205579e-01  4.9235723927531005e-01  4.9151272916608207e-01  4.9068572806384636e-01  4.9004162520028322e-01  4.8993574555556174e-01  4.8993897790909374e-01  4.8989298066288967e-01  4.8992841799568798e-01  4.8996889140180194e-01  4.9001666672317495e-01  4.9007703188682905e-01  4.9015246660164491e-01  4.9024346197514101e-01  4.9034960385321641e-01  4.9047013997662564e-01  4.9060423012382054e-01  4.9075106227929804e-01  4.9090991470451084e-01  4.9108019559602040e-01  4.9126146997732834e-01  4.9145347620466362e-01  4.9165613182724155e-01  4.9186952739575102e-01  4.9209390579410606e-01  4.9232962324661839e-01  4.9257708606540018e-01  4.9283665424449602e-01  4.9310849898219206e-01  4.9339239597960116e-01  4.9368742999153148e-01  4.9399157923648618e-01  4.9430114289957144e-01  4.9460997585018646e-01  4.9490851223408527e-01  4.9518261423103010e-01  4.9541240897396877e-01  4.9557153302651868e-01  4.9562759975666332e-01  4.9554524115815857e-01  4.9529229261310520e-01  4.9484677355153678e-01  4.9418844624430147e-01  4.9324522679602206e-01  4.9189358361310215e-01  4.9040524773781102e-01  4.8994744825308706e-01  4.8994008832446800e-01  4.8990801397806316e-01  4.8996673536999547e-01  4.9002307491126801e-01  4.9007954099491219e-01  4.9014525336701509e-01  4.9022494445647269e-01  4.9032007707906872e-01  4.9043059236624159e-01  4.9055583384730173e-01  4.9069495893894366e-01  4.9084712342032616e-01  4.9101157322333694e-01  4.9118769791320738e-01  4.9137506526412050e-01  4.9157344366808470e-01  4.9178281433835747e-01  4.9200337351253498e-01  4.9223552385703140e-01  4.9247985326187949e-01  4.9273709787984915e-01  4.9300808446255856e-01  4.9329364470802062e-01  4.9359449147011647e-01  4.9391104349192261e-01  4.9424318244402532e-01  4.9458992504095883e-01  4.9494899723286251e-01  4.9531631409385624e-01  4.9568541084479822e-01  4.9604696071470278e-01  4.9638868440893186e-01  4.9669617662276783e-01  4.9695521860200831e-01  4.9715405135403951e-01  4.9727590274419681e-01  4.9723313396119734e-01  4.9665890340660585e-01  4.9466572943666876e-01  4.9127387100139341e-01  4.8996652112955913e-01  4.8994163785338218e-01  4.8992847233321618e-01  4.9001804017144390e-01  4.9009435506149263e-01  4.9016040486420764e-01  4.9023055016471201e-01  4.9031256593830636e-01  4.9040921692561934e-01  4.9052092882104992e-01  4.9064719916810051e-01  4.9078721772963790e-01  4.9094013510965373e-01  4.9110518917325602e-01  4.9128177377297583e-01  4.9146948158287368e-01  4.9166813293754014e-01  4.9187779532671977e-01  4.9209879572370452e-01  4.9233172697855498e-01  4.9257744903257111e-01  4.9283708535805265e-01  4.9311201477685668e-01  4.9340385882201832e-01  4.9371446544473097e-01  4.9404589185135050e-01  4.9440039395576346e-01  4.9478043996513277e-01  4.9518878595461985e-01  4.9562869161804740e-01  4.9610443199677584e-01  4.9662241227050336e-01  4.9719346410359794e-01  4.9783733705239308e-01  4.9859076565564081e-01  4.9951854099062060e-01  5.0071343060610174e-01  5.0220154327971567e-01  5.0348422552446370e-01  5.0220457239794769e-01  4.9518408393807384e-01  4.9015455531259111e-01  4.8994363581045758e-01  4.8995455172927388e-01  4.9008303953347787e-01  4.9018411972315840e-01  4.9026145044997915e-01  4.9033608412681645e-01  4.9041968121493046e-01  4.9051666417503959e-01  4.9062807455436663e-01  4.9075361157345726e-01  4.9089251789636551e-01  4.9104395250194821e-01  4.9120715771837309e-01  4.9138154463241807e-01  4.9156674427408437e-01  4.9176264270905778e-01  4.9196940777831794e-01  4.9218751180949272e-01  4.9241775370375052e-01  4.9266128388889985e-01  4.9291963634199992e-01  4.9319477336165257e-01  4.9348915148801120e-01  4.9380582183331184e-01  4.9414858672045792e-01  4.9452224986709398e-01  4.9493302480698209e-01  4.9538921608372410e-01  4.9590237991962199e-01  4.9648934530088340e-01  4.9717581731641625e-01  4.9800294509047877e-01  4.9903957209193223e-01  5.0040518837298587e-01  5.0231120660771256e-01  5.0512247106127162e-01  5.0937187866082034e-01  5.1532551767328627e-01  5.2065759199468731e-01  5.1663043631656747e-01  4.9541909253705685e-01  4.8994610403944477e-01  4.8998656680111558e-01  4.9016259346909119e-01  4.9029370816744644e-01  4.9038441734704868e-01  4.9046397760625143e-01  4.9054882633559288e-01  4.9064542944999140e-01  4.9075559039229877e-01  4.9087926206709243e-01  4.9101576014894660e-01  4.9116426337419328e-01  4.9132402850609791e-01  4.9149449408405593e-01  4.9167533969185789e-01  4.9186652649335977e-01  4.9206833027711594e-01  4.9228137356124663e-01  4.9250666227701734e-01  4.9274563311160219e-01  4.9300021930023691e-01  4.9327294580414582e-01  4.9356707021771284e-01  4.9388679494845039e-01  4.9423759194890454e-01  4.9462670854435903e-01  4.9506397103717820e-01  4.9556308983538544e-01  4.9614383180575811e-01  4.9683573736259362e-01  4.9768468082929740e-01  4.9876484744299127e-01  5.0020144169582370e-01  5.0221501175261540e-01  5.0520987546563934e-01  5.0994442751030178e-01  5.1780127382556707e-01  5.3088670342093303e-01  5.5022259053077149e-01  5.6868418575550361e-01  5.2378591573799704e-01  4.8994907659971143e-01  4.9002497811558160e-01  4.9025786743814409e-01  4.9042475427076643e-01  4.9053117731162899e-01  4.9061622107734276e-01  4.9070205904151842e-01  4.9079762152670431e-01  4.9090563905453682e-01  4.9102638121623304e-01  4.9115926354067085e-01  4.9130350021317071e-01  4.9145837516332913e-01  4.9162336593444383e-01  4.9179821050466083e-01  4.9198295195248321e-01  4.9217797615267411e-01  4.9238405128902707e-01  4.9260237658632572e-01  4.9283464851417036e-01  4.9308315520533630e-01  4.9335091434686640e-01  4.9364187746159488e-01  4.9396123638980671e-01  4.9431588967807022e-01  4.9471516442187802e-01  4.9517195602421460e-01  4.9570456998633744e-01  4.9633977813439772e-01  4.9711804560438905e-01  4.9810277862913593e-01  4.9939731787444891e-01  5.0117744931489094e-01  5.0375599801190241e-01  5.0771593600023579e-01  5.1418298515554728e-01  5.2535204307310579e-01  5.4519676757774382e-01  5.7866611341511942e-01  6.2204350591384505e-01  5.6205276171470009e-01  4.8995260067642954e-01  4.9007041586080230e-01  4.9037042708438577e-01  4.9057938112074739e-01  4.9070404528549894e-01  4.9079512232185446e-01  4.9088157962752116e-01  4.9097528042945071e-01  4.9108007245146801e-01  4.9119662073162029e-01  4.9132447890020436e-01  4.9146292093623334e-01  4.9161127700435681e-01  4.9176907918669738e-01  4.9193613511474593e-01  4.9211257512855483e-01  4.9229889252964937e-01  4.9249598787185955e-01  4.9270522619660273e-01  4.9292851699544488e-01  4.9316842961875101e-01  4.9342836223184544e-01  4.9371279152474745e-01  4.9402764562840218e-01  4.9438086847570889e-01  4.9478328828060281e-01  4.9524998127862818e-01  4.9580246446740700e-01  4.9647231861572699e-01  4.9730736205342485e-01  4.9838253918120867e-01  4.9981986177438181e-01  5.0182636943189651e-01  5.0476921620916737e-01  5.0932868258660069e-01  5.1680883741858985e-01  5.2974061256623906e-01  5.5268566310868072e-01  5.9153236859092861e-01  6.4378449974825291e-01  5.8172584618328393e-01  4.8995673935841760e-01  4.9012371975480323e-01  4.9050234911719542e-01  4.9076037626951563e-01  4.9090600645302929e-01  4.9100358034960939e-01  4.9109005657957044e-01  4.9118076694387536e-01  4.9128090112223638e-01  4.9139162027130906e-01  4.9151267064958010e-01  4.9164342300368846e-01  4.9178328210942673e-01  4.9193185606549639e-01  4.9208903593743913e-01  4.9225504375264328e-01  4.9243047317804156e-01  4.9261633580592196e-01  4.9281412295887334e-01  4.9302589353452947e-01  4.9325440140320975e-01  4.9350328150858841e-01  4.9377732334767105e-01  4.9408287634990083e-01  4.9442845825047327e-01  4.9482568296015977e-01  4.9529070390186192e-01  4.9584651175008176e-01  4.9652669050168163e-01  4.9738174229523574e-01  4.9849008948781048e-01  4.9997788080796196e-01  5.0205587332753854e-01  5.0509021926000974e-01  5.0974001558360549e-01  5.1721894242986299e-01  5.2973125675148347e-01  5.5075635579687532e-01  5.8342284624236984e-01  6.2201735721056528e-01  5.7154588029354270e-01  4.8996157633533161e-01  4.9018600196356132e-01  4.9065637861369604e-01  4.9097140747901002e-01  4.9114095444809558e-01  4.9124532670422377e-01  4.9133086364325812e-01  4.9141699622501883e-01  4.9151053060060185e-01  4.9161325608506123e-01  4.9172518890885603e-01  4.9184585066892395e-01  4.9197476117605565e-01  4.9211163326378277e-01  4.9225645799888401e-01  4.9240955234809175e-01  4.9257159868905664e-01  4.9274369079159747e-01  4.9292739660669421e-01  4.9312484828077624e-01  4.9333887249683350e-01  4.9357317953641755e-01  4.9383263838313418e-01  4.9412367985857536e-01  4.9445489402063736e-01  4.9483792877000576e-01  4.9528886650497539e-01  4.9583037860725671e-01  4.9649517929618214e-01  4.9733171007654026e-01  4.9841375770222107e-01  4.9985717321042689e-01  5.0184959904972015e-01  5.0470381473448478e-01  5.0895091924073299e-01  5.1548465722881309e-01  5.2567398673547916e-01  5.4090383995678670e-01  5.5965045100329414e-01  5.7045662239624728e-01  5.3735765082316600e-01  4.8996722284070182e-01  4.9025873983920998e-01  4.9083615591030311e-01  4.9121732038768229e-01  4.9141399801697461e-01  4.9152520717433962e-01  4.9160832189039599e-01  4.9168763729589637e-01  4.9177192288799648e-01  4.9186377362833489e-01  4.9196358482615632e-01  4.9207110528624626e-01  4.9218602453946664e-01  4.9230819616910881e-01  4.9243772933919289e-01  4.9257503630181410e-01  4.9272087048373953e-01  4.9287637110328131e-01  4.9304312449080195e-01  4.9322325166388076e-01  4.9341953381823234e-01  4.9363559187709721e-01  4.9387614376184219e-01  4.9414737516378870e-01  4.9445747912669841e-01  4.9481745162576607e-01  4.9524228324554537e-01  4.9575277646437155e-01  4.9637837141535746e-01  4.9716162820807375e-01  4.9816546851120702e-01  4.9948502165952979e-01  5.0126694480866785e-01  5.0373957957234916e-01  5.0725269044055110e-01  5.1229504018495675e-01  5.1932026070690218e-01  5.2776511620130773e-01  5.3282806458745402e-01  5.2324388610235573e-01  5.0276314928727373e-01  4.8997382763620390e-01  4.9034391073776407e-01  4.9104654553692501e-01  4.9150456328790459e-01  4.9173188524958800e-01  4.9184955286168247e-01  4.9192799587922365e-01  4.9199733090331998e-01  4.9206874365522851e-01  4.9214587806796017e-01  4.9222966106301397e-01  4.9232017249029969e-01  4.9241734105250007e-01  4.9252120186178305e-01  4.9263199775299682e-01  4.9275022941188307e-01  4.9287669412594526e-01  4.9301253001756418e-01  4.9315927527738018e-01  4.9331895054962760e-01  4.9349417403314605e-01  4.9368832226869885e-01  4.9390575523719576e-01  4.9415213321972062e-01  4.9443486654608187e-01  4.9476376065989774e-01  4.9515195233149162e-01  4.9561728533829302e-01  4.9618435552700751e-01  4.9688757682289997e-01  4.9777577916400129e-01  4.9891896974190014e-01  5.0041758087065658e-01  5.0241223483905384e-01  5.0508211109542289e-01  5.0858316950106597e-01  5.1276204721530116e-01  5.1622884057098073e-01  5.1454545797752704e-01  5.0255925629176990e-01  4.9144920478182119e-01  4.8998159144780395e-01  4.9044418998309036e-01  4.9129411975863452e-01  4.9184180586135307e-01  4.9210360888240079e-01  4.9222669170393374e-01  4.9229708080028001e-01  4.9235195147166727e-01  4.9240551521279141e-01  4.9246280285314203e-01  4.9252548270728125e-01  4.9259410019249683e-01  4.9266890363191718e-01  4.9275014763601632e-01  4.9283821290682234e-01  4.9293366617376405e-01  4.9303730519344663e-01  4.9315020630283918e-01  4.9327378320126863e-01  4.9340986360353978e-01  4.9356079111751100e-01  4.9372956195979872e-01  4.9392000980815309e-01  4.9413705755890913e-01  4.9438706269783195e-01  4.9467829437151267e-01  4.9502159618769509e-01  4.9543130995305990e-01  4.9592656000042729e-01  4.9653301356157276e-01  4.9728519484785921e-01  4.9822918831425778e-01  4.9942463724388575e-01  5.0094183350579014e-01  5.0283996402437448e-01  5.0508473788245545e-01  5.0729894654784413e-01  5.0817705967280169e-01  5.0491121302319741e-01  4.9620726705152590e-01  4.9034759574429898e-01  4.8999078810843583e-01  4.9056324742502999e-01  4.9158788512267876e-01  4.9224086096341113e-01  4.9254128980356771e-01  4.9266766949610702e-01  4.9272491931125889e-01  4.9275892756806483e-01  4.9278777474902208e-01  4.9281835006787805e-01  4.9285334348213655e-01  4.9289392763033729e-01  4.9294074894660717e-01  4.9299430002587025e-01  4.9305507570849466e-01  4.9312365662817387e-01  4.9320077054525585e-01  4.9328734989458156e-01  4.9338459386395395e-01  4.9349404069670422e-01  4.9361765592793716e-01  4.9375794339676610e-01  4.9391808773485807e-01  4.9410213957696558e-01  4.9431525797597753e-01  4.9456402823224649e-01  4.9485687669946593e-01  4.9520460445506059e-01  4.9562105169712539e-01  4.9612386472219711e-01  4.9673521474072851e-01  4.9748197023782376e-01  4.9839386505470407e-01  4.9949559701112917e-01  5.0078195754434907e-01  5.0214900197000911e-01  5.0322675103913339e-01  5.0307275643305016e-01  5.0008373363361280e-01  4.9398822768395928e-01  4.9023077758658196e-01  4.9000179605313332e-01  4.9070620375173241e-01  4.9194040491687629e-01  4.9271809596823790e-01  4.9306149781752001e-01  4.9318728359021330e-01  4.9322369460454191e-01  4.9322762515457369e-01  4.9322221846195741e-01  4.9321687542512971e-01  4.9321566270327888e-01  4.9322054850852842e-01  4.9323262302344684e-01  4.9325258384978815e-01  4.9328096034145524e-01  4.9331824321014450e-01  4.9336497694793574e-01  4.9342183626425379e-01  4.9348969622799788e-01  4.9356970237914194e-01  4.9366334619255087e-01  4.9377255121930624e-01  4.9389977546537434e-01  4.9404813583707274e-01  4.9422156043840082e-01  4.9442497341428060e-01  4.9466451330589589e-01  4.9494777605471807e-01  4.9528405020552652e-01  4.9568445711966863e-01  4.9616178217007317e-01  4.9672948432288788e-01  4.9739865410333006e-01  4.9816995199308378e-01  4.9901347075279756e-01  4.9982090020017877e-01  5.0030265961804943e-01  4.9982166478748036e-01  4.9737880680344759e-01  4.9290806998733583e-01  4.9016022663435832e-01  4.9001514611856484e-01  4.9088035183032835e-01  4.9236959465652569e-01  4.9329666775915049e-01  4.9368728071099505e-01  4.9380558761640198e-01  4.9380935277546584e-01  4.9376977669550842e-01  4.9371678255095325e-01  4.9366316431117063e-01  4.9361476947904342e-01  4.9357447946146193e-01  4.9354377762455903e-01  4.9352342629863716e-01  4.9351381043688419e-01  4.9351514449310768e-01  4.9352761333696632e-01  4.9355147606325989e-01  4.9358714746824189e-01  4.9363526672008012e-01  4.9369676026982551e-01  4.9377290447429045e-01  4.9386539210429947e-01  4.9397640551199318e-01  4.9410869724564299e-01  4.9426567550500672e-01  4.9445148551842261e-01  4.9467106584423437e-01  4.9493013514508127e-01  4.9523501853889906e-01  4.9559212761526922e-01  4.9600670477108200e-01  4.9647998477847749e-01  4.9700286054160281e-01  4.9754167097156299e-01  4.9800652965584769e-01  4.9818507762645287e-01  4.9763295807323576e-01  4.9565707822658100e-01  4.9221123327866023e-01  4.9011304737621103e-01  4.9003159145688008e-01  4.9109634589676354e-01  4.9290172927738990e-01  4.9401020971338089e-01  4.9445138070450684e-01  4.9455010738996746e-01  4.9450279636563688e-01  4.9439988703672666e-01  4.9428055728332915e-01  4.9416210553288187e-01  4.9405250842857462e-01  4.9395549608568790e-01  4.9387268090079051e-01  4.9380455293934755e-01  4.9375101317690989e-01  4.9371169221253813e-01  4.9368615327425724e-01  4.9367402583213599e-01  4.9367509581332758e-01  4.9368936891128418e-01  4.9371711797043144e-01  4.9375892166590246e-01  4.9381569878472770e-01  4.9388873978184106e-01  4.9397973436240844e-01  4.9409078988938221e-01  4.9422442931711741e-01  4.9438354727375550e-01  4.9457128556781715e-01  4.9479075825678698e-01  4.9504449693514152e-01  4.9533336300415987e-01  4.9565439033240416e-01  4.9599632867983412e-01  4.9632994546047005e-01  4.9658624687394992e-01  4.9660922011064657e-01  4.9607305881961422e-01  4.9445851343407127e-01  4.9172749722183029e-01  4.9007865512070187e-01  4.9005222335922027e-01  4.9137031066539882e-01  4.9357674806323032e-01  4.9490924326280156e-01  4.9540150734787541e-01  4.9545910473177679e-01  4.9533131498602750e-01  4.9513542365600760e-01  4.949233305