<?xml version="1.0"?>
<VTKFile type="UnstructuredGrid"  version="0.1"  >
<UnstructuredGrid>
<Piece  NumberOfPoints="1681" NumberOfCells="3200">
<Points>
<DataArray  type="Float64"  NumberOfComponents="3"  format="ascii">0 0 0  0.025 0 0  0.05 0 0  0.075 0 0  0.1 0 0  0.125 0 0  0.15 0 0  0.175 0 0  0.2 0 0  0.225 0 0  0.25 0 0  0.275 0 0  0.3 0 0  0.325 0 0  0.35 0 0  0.375 0 0  0.4 0 0  0.425 0 0  0.45 0 0  0.475 0 0  0.5 0 0  0.525 0 0  0.55 0 0  0.575 0 0  0.6 0 0  0.625 0 0  0.65 0 0  0.675 0 0  0.7 0 0  0.725 0 0  0.75 0 0  0.775 0 0  0.8 0 0  0.825 0 0  0.85 0 0  0.875 0 0  0.9 0 0  0.925 0 0  0.95 0 0  0.975 0 0  1 0 0  0 0.025 0  0.025 0.025 0  0.05 0.025 0  0.075 0.025 0  0.1 0.025 0  0.125 0.025 0  0.15 0.025 0  0.175 0.025 0  0.2 0.025 0  0.225 0.025 0  0.25 0.025 0  0.275 0.025 0  0.3 0.025 0  0.325 0.025 0  0.35 0.025 0  0.375 0.025 0  0.4 0.025 0  0.425 0.025 0  0.45 0.025 0  0.475 0.025 0  0.5 0.025 0  0.525 0.025 0  0.55 0.025 0  0.575 0.025 0  0.6 0.025 0  0.625 0.025 0  0.65 0.025 0  0.675 0.025 0  0.7 0.025 0  0.725 0.025 0  0.75 0.025 0  0.775 0.025 0  0.8 0.025 0  0.825 0.025 0  0.85 0.025 0  0.875 0.025 0  0.9 0.025 0  0.925 0.025 0  0.95 0.025 0  0.975 0.025 0  1 0.025 0  0 0.05 0  0.025 0.05 0  0.05 0.05 0  0.075 0.05 0  0.1 0.05 0  0.125 0.05 0  0.15 0.05 0  0.175 0.05 0  0.2 0.05 0  0.225 0.05 0  0.25 0.05 0  0.275 0.05 0  0.3 0.05 0  0.325 0.05 0  0.35 0.05 0  0.375 0.05 0  0.4 0.05 0  0.425 0.05 0  0.45 0.05 0  0.475 0.05 0  0.5 0.05 0  0.525 0.05 0  0.55 0.05 0  0.575 0.05 0  0.6 0.05 0  0.625 0.05 0  0.65 0.05 0  0.675 0.05 0  0.7 0.05 0  0.725 0.05 0  0.75 0.05 0  0.775 0.05 0  0.8 0.05 0  0.825 0.05 0  0.85 0.05 0  0.875 0.05 0  0.9 0.05 0  0.925 0.05 0  0.95 0.05 0  0.975 0.05 0  1 0.05 0  0 0.075 0  0.025 0.075 0  0.05 0.075 0  0.075 0.075 0  0.1 0.075 0  0.125 0.075 0  0.15 0.075 0  0.175 0.075 0  0.2 0.075 0  0.225 0.075 0  0.25 0.075 0  0.275 0.075 0  0.3 0.075 0  0.325 0.075 0  0.35 0.075 0  0.375 0.075 0  0.4 0.075 0  0.425 0.075 0  0.45 0.075 0  0.475 0.075 0  0.5 0.075 0  0.525 0.075 0  0.55 0.075 0  0.575 0.075 0  0.6 0.075 0  0.625 0.075 0  0.65 0.075 0  0.675 0.075 0  0.7 0.075 0  0.725 0.075 0  0.75 0.075 0  0.775 0.075 0  0.8 0.075 0  0.825 0.075 0  0.85 0.075 0  0.875 0.075 0  0.9 0.075 0  0.925 0.075 0  0.95 0.075 0  0.975 0.075 0  1 0.075 0  0 0.1 0  0.025 0.1 0  0.05 0.1 0  0.075 0.1 0  0.1 0.1 0  0.125 0.1 0  0.15 0.1 0  0.175 0.1 0  0.2 0.1 0  0.225 0.1 0  0.25 0.1 0  0.275 0.1 0  0.3 0.1 0  0.325 0.1 0  0.35 0.1 0  0.375 0.1 0  0.4 0.1 0  0.425 0.1 0  0.45 0.1 0  0.475 0.1 0  0.5 0.1 0  0.525 0.1 0  0.55 0.1 0  0.575 0.1 0  0.6 0.1 0  0.625 0.1 0  0.65 0.1 0  0.675 0.1 0  0.7 0.1 0  0.725 0.1 0  0.75 0.1 0  0.775 0.1 0  0.8 0.1 0  0.825 0.1 0  0.85 0.1 0  0.875 0.1 0  0.9 0.1 0  0.925 0.1 0  0.95 0.1 0  0.975 0.1 0  1 0.1 0  0 0.125 0  0.025 0.125 0  0.05 0.125 0  0.075 0.125 0  0.1 0.125 0  0.125 0.125 0  0.15 0.125 0  0.175 0.125 0  0.2 0.125 0  0.225 0.125 0  0.25 0.125 0  0.275 0.125 0  0.3 0.125 0  0.325 0.125 0  0.35 0.125 0  0.375 0.125 0  0.4 0.125 0  0.425 0.125 0  0.45 0.125 0  0.475 0.125 0  0.5 0.125 0  0.525 0.125 0  0.55 0.125 0  0.575 0.125 0  0.6 0.125 0  0.625 0.125 0  0.65 0.125 0  0.675 0.125 0  0.7 0.125 0  0.725 0.125 0  0.75 0.125 0  0.775 0.125 0  0.8 0.125 0  0.825 0.125 0  0.85 0.125 0  0.875 0.125 0  0.9 0.125 0  0.925 0.125 0  0.95 0.125 0  0.975 0.125 0  1 0.125 0  0 0.15 0  0.025 0.15 0  0.05 0.15 0  0.075 0.15 0  0.1 0.15 0  0.125 0.15 0  0.15 0.15 0  0.175 0.15 0  0.2 0.15 0  0.225 0.15 0  0.25 0.15 0  0.275 0.15 0  0.3 0.15 0  0.325 0.15 0  0.35 0.15 0  0.375 0.15 0  0.4 0.15 0  0.425 0.15 0  0.45 0.15 0  0.475 0.15 0  0.5 0.15 0  0.525 0.15 0  0.55 0.15 0  0.575 0.15 0  0.6 0.15 0  0.625 0.15 0  0.65 0.15 0  0.675 0.15 0  0.7 0.15 0  0.725 0.15 0  0.75 0.15 0  0.775 0.15 0  0.8 0.15 0  0.825 0.15 0  0.85 0.15 0  0.875 0.15 0  0.9 0.15 0  0.925 0.15 0  0.95 0.15 0  0.975 0.15 0  1 0.15 0  0 0.175 0  0.025 0.175 0  0.05 0.175 0  0.075 0.175 0  0.1 0.175 0  0.125 0.175 0  0.15 0.175 0  0.175 0.175 0  0.2 0.175 0  0.225 0.175 0  0.25 0.175 0  0.275 0.175 0  0.3 0.175 0  0.325 0.175 0  0.35 0.175 0  0.375 0.175 0  0.4 0.175 0  0.425 0.175 0  0.45 0.175 0  0.475 0.175 0  0.5 0.175 0  0.525 0.175 0  0.55 0.175 0  0.575 0.175 0  0.6 0.175 0  0.625 0.175 0  0.65 0.175 0  0.675 0.175 0  0.7 0.175 0  0.725 0.175 0  0.75 0.175 0  0.775 0.175 0  0.8 0.175 0  0.825 0.175 0  0.85 0.175 0  0.875 0.175 0  0.9 0.175 0  0.925 0.175 0  0.95 0.175 0  0.975 0.175 0  1 0.175 0  0 0.2 0  0.025 0.2 0  0.05 0.2 0  0.075 0.2 0  0.1 0.2 0  0.125 0.2 0  0.15 0.2 0  0.175 0.2 0  0.2 0.2 0  0.225 0.2 0  0.25 0.2 0  0.275 0.2 0  0.3 0.2 0  0.325 0.2 0  0.35 0.2 0  0.375 0.2 0  0.4 0.2 0  0.425 0.2 0  0.45 0.2 0  0.475 0.2 0  0.5 0.2 0  0.525 0.2 0  0.55 0.2 0  0.575 0.2 0  0.6 0.2 0  0.625 0.2 0  0.65 0.2 0  0.675 0.2 0  0.7 0.2 0  0.725 0.2 0  0.75 0.2 0  0.775 0.2 0  0.8 0.2 0  0.825 0.2 0  0.85 0.2 0  0.875 0.2 0  0.9 0.2 0  0.925 0.2 0  0.95 0.2 0  0.975 0.2 0  1 0.2 0  0 0.225 0  0.025 0.225 0  0.05 0.225 0  0.075 0.225 0  0.1 0.225 0  0.125 0.225 0  0.15 0.225 0  0.175 0.225 0  0.2 0.225 0  0.225 0.225 0  0.25 0.225 0  0.275 0.225 0  0.3 0.225 0  0.325 0.225 0  0.35 0.225 0  0.375 0.225 0  0.4 0.225 0  0.425 0.225 0  0.45 0.225 0  0.475 0.225 0  0.5 0.225 0  0.525 0.225 0  0.55 0.225 0  0.575 0.225 0  0.6 0.225 0  0.625 0.225 0  0.65 0.225 0  0.675 0.225 0  0.7 0.225 0  0.725 0.225 0  0.75 0.225 0  0.775 0.225 0  0.8 0.225 0  0.825 0.225 0  0.85 0.225 0  0.875 0.225 0  0.9 0.225 0  0.925 0.225 0  0.95 0.225 0  0.975 0.225 0  1 0.225 0  0 0.25 0  0.025 0.25 0  0.05 0.25 0  0.075 0.25 0  0.1 0.25 0  0.125 0.25 0  0.15 0.25 0  0.175 0.25 0  0.2 0.25 0  0.225 0.25 0  0.25 0.25 0  0.275 0.25 0  0.3 0.25 0  0.325 0.25 0  0.35 0.25 0  0.375 0.25 0  0.4 0.25 0  0.425 0.25 0  0.45 0.25 0  0.475 0.25 0  0.5 0.25 0  0.525 0.25 0  0.55 0.25 0  0.575 0.25 0  0.6 0.25 0  0.625 0.25 0  0.65 0.25 0  0.675 0.25 0  0.7 0.25 0  0.725 0.25 0  0.75 0.25 0  0.775 0.25 0  0.8 0.25 0  0.825 0.25 0  0.85 0.25 0  0.875 0.25 0  0.9 0.25 0  0.925 0.25 0  0.95 0.25 0  0.975 0.25 0  1 0.25 0  0 0.275 0  0.025 0.275 0  0.05 0.275 0  0.075 0.275 0  0.1 0.275 0  0.125 0.275 0  0.15 0.275 0  0.175 0.275 0  0.2 0.275 0  0.225 0.275 0  0.25 0.275 0  0.275 0.275 0  0.3 0.275 0  0.325 0.275 0  0.35 0.275 0  0.375 0.275 0  0.4 0.275 0  0.425 0.275 0  0.45 0.275 0  0.475 0.275 0  0.5 0.275 0  0.525 0.275 0  0.55 0.275 0  0.575 0.275 0  0.6 0.275 0  0.625 0.275 0  0.65 0.275 0  0.675 0.275 0  0.7 0.275 0  0.725 0.275 0  0.75 0.275 0  0.775 0.275 0  0.8 0.275 0  0.825 0.275 0  0.85 0.275 0  0.875 0.275 0  0.9 0.275 0  0.925 0.275 0  0.95 0.275 0  0.975 0.275 0  1 0.275 0  0 0.3 0  0.025 0.3 0  0.05 0.3 0  0.075 0.3 0  0.1 0.3 0  0.125 0.3 0  0.15 0.3 0  0.175 0.3 0  0.2 0.3 0  0.225 0.3 0  0.25 0.3 0  0.275 0.3 0  0.3 0.3 0  0.325 0.3 0  0.35 0.3 0  0.375 0.3 0  0.4 0.3 0  0.425 0.3 0  0.45 0.3 0  0.475 0.3 0  0.5 0.3 0  0.525 0.3 0  0.55 0.3 0  0.575 0.3 0  0.6 0.3 0  0.625 0.3 0  0.65 0.3 0  0.675 0.3 0  0.7 0.3 0  0.725 0.3 0  0.75 0.3 0  0.775 0.3 0  0.8 0.3 0  0.825 0.3 0  0.85 0.3 0  0.875 0.3 0  0.9 0.3 0  0.925 0.3 0  0.95 0.3 0  0.975 0.3 0  1 0.3 0  0 0.325 0  0.025 0.325 0  0.05 0.325 0  0.075 0.325 0  0.1 0.325 0  0.125 0.325 0  0.15 0.325 0  0.175 0.325 0  0.2 0.325 0  0.225 0.325 0  0.25 0.325 0  0.275 0.325 0  0.3 0.325 0  0.325 0.325 0  0.35 0.325 0  0.375 0.325 0  0.4 0.325 0  0.425 0.325 0  0.45 0.325 0  0.475 0.325 0  0.5 0.325 0  0.525 0.325 0  0.55 0.325 0  0.575 0.325 0  0.6 0.325 0  0.625 0.325 0  0.65 0.325 0  0.675 0.325 0  0.7 0.325 0  0.725 0.325 0  0.75 0.325 0  0.775 0.325 0  0.8 0.325 0  0.825 0.325 0  0.85 0.325 0  0.875 0.325 0  0.9 0.325 0  0.925 0.325 0  0.95 0.325 0  0.975 0.325 0  1 0.325 0  0 0.35 0  0.025 0.35 0  0.05 0.35 0  0.075 0.35 0  0.1 0.35 0  0.125 0.35 0  0.15 0.35 0  0.175 0.35 0  0.2 0.35 0  0.225 0.35 0  0.25 0.35 0  0.275 0.35 0  0.3 0.35 0  0.325 0.35 0  0.35 0.35 0  0.375 0.35 0  0.4 0.35 0  0.425 0.35 0  0.45 0.35 0  0.475 0.35 0  0.5 0.35 0  0.525 0.35 0  0.55 0.35 0  0.575 0.35 0  0.6 0.35 0  0.625 0.35 0  0.65 0.35 0  0.675 0.35 0  0.7 0.35 0  0.725 0.35 0  0.75 0.35 0  0.775 0.35 0  0.8 0.35 0  0.825 0.35 0  0.85 0.35 0  0.875 0.35 0  0.9 0.35 0  0.925 0.35 0  0.95 0.35 0  0.975 0.35 0  1 0.35 0  0 0.375 0  0.025 0.375 0  0.05 0.375 0  0.075 0.375 0  0.1 0.375 0  0.125 0.375 0  0.15 0.375 0  0.175 0.375 0  0.2 0.375 0  0.225 0.375 0  0.25 0.375 0  0.275 0.375 0  0.3 0.375 0  0.325 0.375 0  0.35 0.375 0  0.375 0.375 0  0.4 0.375 0  0.425 0.375 0  0.45 0.375 0  0.475 0.375 0  0.5 0.375 0  0.525 0.375 0  0.55 0.375 0  0.575 0.375 0  0.6 0.375 0  0.625 0.375 0  0.65 0.375 0  0.675 0.375 0  0.7 0.375 0  0.725 0.375 0  0.75 0.375 0  0.775 0.375 0  0.8 0.375 0  0.825 0.375 0  0.85 0.375 0  0.875 0.375 0  0.9 0.375 0  0.925 0.375 0  0.95 0.375 0  0.975 0.375 0  1 0.375 0  0 0.4 0  0.025 0.4 0  0.05 0.4 0  0.075 0.4 0  0.1 0.4 0  0.125 0.4 0  0.15 0.4 0  0.175 0.4 0  0.2 0.4 0  0.225 0.4 0  0.25 0.4 0  0.275 0.4 0  0.3 0.4 0  0.325 0.4 0  0.35 0.4 0  0.375 0.4 0  0.4 0.4 0  0.425 0.4 0  0.45 0.4 0  0.475 0.4 0  0.5 0.4 0  0.525 0.4 0  0.55 0.4 0  0.575 0.4 0  0.6 0.4 0  0.625 0.4 0  0.65 0.4 0  0.675 0.4 0  0.7 0.4 0  0.725 0.4 0  0.75 0.4 0  0.775 0.4 0  0.8 0.4 0  0.825 0.4 0  0.85 0.4 0  0.875 0.4 0  0.9 0.4 0  0.925 0.4 0  0.95 0.4 0  0.975 0.4 0  1 0.4 0  0 0.425 0  0.025 0.425 0  0.05 0.425 0  0.075 0.425 0  0.1 0.425 0  0.125 0.425 0  0.15 0.425 0  0.175 0.425 0  0.2 0.425 0  0.225 0.425 0  0.25 0.425 0  0.275 0.425 0  0.3 0.425 0  0.325 0.425 0  0.35 0.425 0  0.375 0.425 0  0.4 0.425 0  0.425 0.425 0  0.45 0.425 0  0.475 0.425 0  0.5 0.425 0  0.525 0.425 0  0.55 0.425 0  0.575 0.425 0  0.6 0.425 0  0.625 0.425 0  0.65 0.425 0  0.675 0.425 0  0.7 0.425 0  0.725 0.425 0  0.75 0.425 0  0.775 0.425 0  0.8 0.425 0  0.825 0.425 0  0.85 0.425 0  0.875 0.425 0  0.9 0.425 0  0.925 0.425 0  0.95 0.425 0  0.975 0.425 0  1 0.425 0  0 0.45 0  0.02
[...]
<PointData  Scalars="ControlVisualisation"> 
<DataArray  type="Float64"  Name="ControlVisualisation"  format="ascii">3.3863629142142559e-03  2.2655833660094361e-03  2.2814513219589615e-03  2.3055703008498063e-03  2.3336199780091345e-03  2.3615767862675292e-03  2.3863900379908301e-03  2.4062969858368206e-03  2.4206657062999484e-03  2.4296496726028752e-03  2.4338464148142927e-03  2.4340408553023603e-03  2.4310434201236936e-03  2.4256025318326129e-03  2.4183662894484812e-03  2.4098730236568125e-03  2.4005569778544427e-03  2.3907607426785268e-03  2.3807497511845535e-03  2.3707264217643540e-03  2.3608428551398289e-03  2.3512117095542424e-03  2.3419152423137086e-03  2.3330126718956691e-03  2.3245460753550957e-03  2.3165450436961913e-03  2.3090303018440030e-03  2.3020164750750726e-03  2.2955141577312680e-03  2.2895314158623784e-03  2.2840748346001746e-03  2.2791502034992966e-03  2.2747629192109613e-03  2.2709181690165514e-03  2.2676209657788095e-03  2.2648760503868018e-03  2.2626877884756951e-03  2.2610594081340016e-03  2.2599984115531766e-03  2.2594878856142019e-03  6.7475433470248472e-03  2.2659111905173994e-03  1.1412483676268004e-03  1.1595418286087496e-03  1.1893828456182717e-03  1.2266854851551824e-03  1.2662622050858907e-03  1.3034142244172451e-03  1.3347330984687243e-03  1.3583432402934352e-03  1.3737390911129309e-03  1.3814028031885483e-03  1.3823888426746386e-03  1.3779839448377063e-03  1.3694769933156644e-03  1.3580291993789352e-03  1.3446178918926552e-03  1.3300265855143649e-03  1.3148600692933447e-03  1.2995703774936547e-03  1.2844853169927774e-03  1.2698352309431413e-03  1.2557761437106947e-03  1.2424088084503910e-03  1.2297938672684195e-03  1.2179636234599135e-03  1.2069310012610545e-03  1.1966962412091793e-03  1.1872518095723580e-03  1.1785859201554462e-03  1.1706849908619224e-03  1.1635352915474538e-03  1.1571239855478262e-03  1.1514397237166066e-03  1.1464729149529668e-03  1.1422157820940504e-03  1.1386622312899656e-03  1.1358077296105315e-03  1.1336490497239871e-03  1.1321822404760477e-03  1.1313533014891978e-03  2.2594879336447497e-03  2.2855155574844563e-03  1.1631053729987842e-03  1.1887625889227956e-03  1.2252888903231121e-03  1.2708113630189512e-03  1.3189891031305382e-03  1.3640327574801065e-03  1.4017202694007363e-03  1.4296949138200156e-03  1.4472954363726278e-03  1.4551188767484226e-03  1.4545174670420511e-03  1.4471641618219223e-03  1.4347451741615492e-03  1.4187800785299459e-03  1.4005412967642186e-03  1.3810385798342551e-03  1.3610395169112984e-03  1.3411059194577881e-03  1.3216339204711158e-03  1.3028914247883330e-03  1.2850502044498161e-03  1.2682119918387808e-03  1.2524289452169400e-03  1.2377192771843033e-03  1.2240789299821561e-03  1.2114901225141841e-03  1.1999274758829166e-03  1.1893622948703508e-03  1.1797654637325289e-03  1.1711093136068959e-03  1.1633687372813548e-03  1.1565217632571578e-03  1.1505497510556407e-03  1.1454373383440644e-03  1.1411722016871828e-03  1.1377449136836559e-03  1.1351472907437975e-03  1.1333630739561718e-03  1.1321839597633373e-03  2.2599994407313637e-03  2.3268905464337909e-03  1.2113568855084736e-03  1.2466596333589148e-03  1.2835520481617071e-03  1.3271953418687568e-03  1.3714950632241582e-03  1.4111447045503393e-03  1.4426921924829618e-03  1.4644900339986573e-03  1.4763672331370608e-03  1.4791776837315351e-03  1.4743509145229389e-03  1.4635260733489655e-03  1.4483007509139591e-03  1.4300882654125523e-03  1.4100577801978793e-03  1.3891281204698664e-03  1.3679910293906731e-03  1.3471469884804353e-03  1.3269434016671461e-03  1.3076098136311763e-03  1.2892879291567052e-03  1.2720559542528636e-03  1.2559476538009106e-03  1.2409668758573355e-03  1.2270983692714745e-03  1.2143156647958450e-03  1.2025866809731887e-03  1.1918775968662336e-03  1.1821554233417807e-03  1.1733896104772587e-03  1.1655529521744665e-03  1.1586219890844156e-03  1.1525770631555922e-03  1.1474021488273229e-03  1.1430845158494525e-03  1.1396143869276839e-03  1.1369824168237102e-03  1.1351560981585293e-03  1.1336587921923803e-03  2.2610662440957514e-03  2.4060674332219275e-03  1.3091483158578074e-03  1.3672617023022244e-03  1.3971796305053455e-03  1.4291553824348627e-03  1.4596783970105742e-03  1.4851974469258162e-03  1.5034062813651266e-03  1.5133478906222469e-03  1.5151602886139838e-03  1.5097228157658039e-03  1.4983163880655189e-03  1.4823472070168672e-03  1.4631584702091923e-03  1.4419243693176234e-03  1.4196073321592173e-03  1.3969564872319284e-03  1.3745288428618134e-03  1.3527201420170155e-03  1.3317974079723178e-03  1.3119289436142629e-03  1.2932099671790302e-03  1.2756834648119031e-03  1.2593565559015196e-03  1.2442129726779620e-03  1.2302223345894920e-03  1.2173468641314457e-03  1.2055461086483471e-03  1.1947801373689132e-03  1.1850115917540018e-03  1.1762068874539143e-03  1.1683368001733909e-03  1.1613766153251469e-03  1.1553059789500045e-03  1.1501085623975350e-03  1.1457715777786926e-03  1.1422852633985454e-03  1.1396392140868683e-03  1.1377784542282790e-03  1.1358401571050500e-03  2.2627128233373523e-03  2.5444718878975515e-03  1.5678182965704879e-03  1.6557637121909332e-03  1.6338231189081968e-03  1.6147306208454805e-03  1.6046310880742966e-03  1.5982925553971233e-03  1.5913967206812576e-03  1.5815994639661892e-03  1.5679763105485316e-03  1.5505704825378240e-03  1.5299659609583490e-03  1.5069847764180716e-03  1.4824862030011416e-03  1.4572521475799162e-03  1.4319338854498083e-03  1.4070382711644828e-03  1.3829362609293417e-03  1.3598820182139223e-03  1.3380353755536325e-03  1.3174836513176749e-03  1.2982608977289093e-03  1.2803638897282965e-03  1.2637648386962560e-03  1.2484211453965275e-03  1.2342826366388902e-03  1.2212967502493136e-03  1.2094120978924157e-03  1.1985807768018942e-03  1.1887597374937978e-03  1.1799114542765531e-03  1.1720040931913435e-03  1.1650113294882042e-03  1.1589119315845975e-03  1.1536892087419921e-03  1.1493303473018471e-03  1.1458256928343236e-03  1.1431635765541081e-03  1.1412598392807013e-03  1.1387444341696687e-03  2.2649431807919658e-03  3.2554211453676104e-03  2.5830070034811676e-03  2.7362858799342025e-03  2.2208719858779666e-03  1.9669746859387054e-03  1.8399574725844617e-03  1.7645667183760847e-03  1.7128819141950078e-03  1.6719955769535976e-03  1.6360377407976111e-03  1.6022657904232454e-03  1.5695540881627602e-03  1.5375758473665131e-03  1.5063788713984775e-03  1.4761544907872402e-03  1.4471183765834201e-03  1.4194543185776409e-03  1.3932930943187875e-03  1.3687099261752657e-03  1.3457309483657272e-03  1.3243432365533520e-03  1.3045054216947142e-03  1.2861573773335151e-03  1.2692283304233816e-03  1.2536432342257931e-03  1.2393275011442599e-03  1.2262103132237119e-03  1.2142267661771806e-03  1.2033190960177452e-03  1.1934372088318347e-03  1.1845386981089556e-03  1.1765884986072027e-03  1.1695582950407210e-03  1.1634257776662127e-03  1.1581738244524492e-03  1.1537896191165212e-03  1.1502636776029400e-03  1.1475827922976221e-03  1.1456265300408609e-03  1.1423915719700314e-03  2.2677695964683970e-03  6.3948039494295755e-02  3.9082793542402738e-02  1.5669131709099074e-02  4.4438792744581432e-03  2.7430256369381260e-03  2.2199820985247969e-03  2.0011630816431682e-03  1.8737208243410155e-03  1.7867173544851276e-03  1.7200679997611162e-03  1.6649671283978644e-03  1.6170249422032409e-03  1.5739986068762769e-03  1.5347082093667063e-03  1.4985179530470770e-03  1.4650671937215737e-03  1.4341296969623248e-03  1.4055401996158476e-03  1.3791576386515071e-03  1.3548484909529923e-03  1.3324809152978024e-03  1.3119243286438946e-03  1.2930513373649159e-03  1.2757403228211895e-03  1.2598778154610023e-03  1.2453602847292834e-03  1.2320952489680563e-03  1.2200017511354198e-03  1.2090103065305754e-03  1.1990624432271293e-03  1.1901099476843500e-03  1.1821139112287865e-03  1.1750436558399632e-03  1.1688756016915204e-03  1.1635921348096335e-03  1.1591804635918317e-03  1.1556313321540934e-03  1.1529296870657227e-03  1.1509113582272960e-03  1.1468076714149650e-03  2.2712075157906228e-03  5.1241905727094905e-01  3.9450807921903902e-01  1.9843457720381941e-01  4.6764721379914512e-02  5.6018402373596782e-03  2.9703466593333835e-03  2.3307382082823017e-03  2.0791574089252720e-03  1.9268446618712523e-03  1.8202427998756476e-03  1.7385174274605450e-03  1.6721387339781555e-03  1.6160145609371104e-03  1.5672662013535266e-03  1.5241699283599836e-03  1.4856394569314440e-03  1.4509495912249624e-03  1.4195837653470642e-03  1.3911485166496305e-03  1.3653258084766039e-03  1.3418469939555696e-03  1.3204789835635719e-03  1.3010170540030059e-03  1.2832810657887298e-03  1.2671132738871569e-03  1.2523767661124837e-03  1.2389540602968470e-03  1.2267456670005861e-03  1.2156685657491123e-03  1.2056546056723792e-03  1.1966488627109667e-03  1.1886079882149324e-03  1.1814985807486100e-03  1.1752956083222951e-03  1.1699809135203344e-03  1.1655417649491153e-03  1.1619691999614269e-03  1.1592460016378566e-03  1.1571563467089765e-03  1.1520260721911413e-03  2.2752767537812173e-03  7.3718135868437384e-01  6.6045053582007185e-01  5.0332607828890730e-01  2.8305796537872391e-01  7.4177706805899926e-02  6.0342654993537316e-03  2.9649379531536224e-03  2.3404248862104928e-03  2.0935717461646078e-03  1.9361609470835378e-03  1.8224774943082543e-03  1.7344817076734207e-03  1.6632775581588372e-03  1.6037719755927259e-03  1.5528834026168606e-03  1.5086492541559824e-03  1.4697592680661255e-03  1.4352936329946047e-03  1.4045728827686531e-03  1.3770711445643981e-03  1.3523658844818518e-03  1.3301085908984018e-03  1.3100073124223696e-03  1.2918157948519295e-03  1.2753262284508143e-03  1.2603639496582468e-03  1.2467832142771635e-03  1.2344635942622686e-03  1.2233067813062506e-03  1.2132336925014203e-03  1.2041818221442797e-03  1.1961028048146458e-03  1.1889601665170137e-03  1.1827272488343491e-03  1.1773853072055127e-03  1.1729217163747093e-03  1.1693278862377515e-03  1.1665841074308553e-03  1.1644143778899094e-03  1.1580887457007445e-03  2.2800023099750471e-03  8.0532049474990719e-01  8.0116882912694087e-01  7.2609180855700883e-01  5.5482450667524930e-01  3.0463693936630071e-01  7.9586332304901655e-02  5.7060121028763107e-03  2.8336948474944903e-03  2.2951960847267024e-03  2.0681546182914276e-03  1.9162170135403238e-03  1.8035117725970396e-03  1.7153478804041791e-03  1.6438796067580451e-03  1.5843791305003858e-03  1.5338627735230113e-03  1.4903574660642394e-03  1.4524945828231414e-03  1.4192785953326785e-03  1.3899539869942561e-03  1.3639276767036578e-03  1.3407227757763018e-03  1.3199500486975771e-03  1.3012894097912588e-03  1.2844771560892405e-03  1.2692965425623098e-03  1.2555703911372371e-03  1.2431550348776161e-03  1.2319352216385950e-03  1.2218197557537433e-03  1.2127377245556390e-03  1.2046351920999975e-03  1.1974722699939536e-03  1.1912204987798408e-03  1.1858605027996239e-03  1.1813798147259284e-03  1.1777703098566235e-03  1.1750094366057120e-03  1.1727517149938817e-03  1.1650483069663810e-03  2.2854155413899978e-03  7.1926975415759875e-01  7.8429390822235345e-01  7.9770205044415299e-01  7.1718525221651841e-01  5.3443524628118433e-01  2.8440358669894161e-01  7.1412343486357263e-02  4.8462242963762427e-03  2.6526666953702103e-03  2.2219549113760167e-03  2.0196224795779407e-03  1.8785802953010208e-03  1.7717169097732253e-03  1.6871964170824282e-03  1.6183349249724811e-03  1.5609975928195644e-03  1.5124886479707985e-03  1.4709550368505377e-03  1.4350587386379205e-03  1.4037932339418524e-03  1.3763775024272448e-03  1.3521924019572306e-03  1.3307406243539786e-03  1.3116200873372909e-03  1.2945051842457136e-03  1.2791327782301050e-03  1.2652912228055529e-03  1.2528114869485565e-03  1.2415598756257398e-03  1.2314320123791300e-03  1.2223478167513429e-03  1.2142472520582294e-03  1.2070866676284900e-03  1.2008356062536186e-03  1.1954739936517933e-03  1.1909895599008127e-03  1.1873747427259686e-03  1.1846037667593474e-03  1.1822514007689075e-03  1.1729706855276437e-03  2.2915556977254987e-03  4.6125931367159856e-01  6.1251795151765731e-01  7.3153972210478257e-01  7.4589991098250474e-01  6.6325771116810739e-01  4.8243589051246771e-01  2.4765006352703822e-01  5.0064013570952470e-02  3.9683597476750524e-03  2.4661517577979890e-03  2.1354382197493220e-03  1.9591598692125433e-03  1.8318456486206718e-03  1.7333266288324523e-03  1.6544085689430361e-03  1.5897245402833405e-03  1.5358327087869907e-03  1.4903716884324364e-03  1.4516354245501576e-03  1.4183422132258206e-03  1.3895025456417496e-03  1.3643387115393046e-03  1.3422329432194958e-03  1.3226921032828804e-03  1.3053223276469706e-03  1.2898098261348310e-03  1.2759057151547429e-03  1.2634137944650802e-03  1.2521806947586916e-03  1.2420879669345006e-03  1.2330456906096898e-03  1.2249872161174970e-03  1.2178647467303953e-03  1.2116455606780742e-03  1.2063087394395210e-03  1.2018421918782098e-03  1.1982389942563731e-03  1.1954697199278229e-03  1.1930178880681732e-03  1.1819387378936904e-03  2.2984719628000956e-03  2.5582690561414909e-02  3.2339972087089935e-01  5.4911645049447566e-01  6.7353385527533838e-01  6.8830542670790484e-01  6.0371547097541645e-01  4.2682640107326614e-01  2.0577513633814065e-01  2.6883033770109130e-02  3.2848580942630790e-03  2.2961983429952517e-03  2.0463101472690611e-03  1.8954050313916811e-03  1.7819955131305756e-03  1.6922808166009375e-03  1.6196695326444490e-03  1.5599877001721150e-03  1.5103468516143366e-03  1.4686379187218413e-03  1.4332697602657163e-03  1.4030164770319964e-03  1.3769208824079696e-03  1.3542296837151073e-03  1.3343482090489175e-03  1.3168074922289960e-03  1.3012390279469241e-03  1.2873544998550108e-03  1.2749293503370176e-03  1.2637897641314913e-03  1.2538025915024710e-03  1.2448675128849170e-03  1.2369107568168164e-03  1.2298799068490955e-03  1.2237395447835008e-03  1.2184675665216334e-03  1.2140518779712151e-03  1.2104861895879959e-03  1.2077369316733251e-03  1.2051833422585827e-03  1.1920571031843400e-03  2.3062261259682942e-03  3.1237032263267219e-03  4.3851550597123701e-02  3.0986686085886117e-01  5.2205753210094152e-01  6.3638333644391987e-01  6.4300532407278876e-01  5.5289460454531048e-01  3.7744598036457488e-01  1.6044780111063989e-01  1.1895234996877033e-02  2.7904953389683821e-03  2.1572765042732161e-03  1.9639502722261942e-03  1.8333138359499421e-03  1.7317249016018527e-03  1.6504015038457686e-03  1.5844360385988408e-03  1.5303534983947512e-03  1.4855731534376719e-03  1.4481369753370128e-03  1.4165415789337025e-03  1.3896225476462359e-03  1.3664723672795226e-03  1.3463823520463770e-03  1.3288009367733874e-03  1.3133014308730796e-03  1.2995551673079231e-03  1.2873092676530440e-03  1.2763694637391034e-03  1.2665876156728016e-03  1.2578525578226310e-03  1.2500828760047100e-03  1.2432208984560257e-03  1.2372277411641533e-03  1.2320793298546523e-03  1.2277629851871301e-03  1.2242728280145393e-03  1.2215705676247104e-03  1.2189162398143557e-03  1.2034587142810203e-03  2.3148960468042461e-03  2.6532429593838563e-03  2.8237339642124717e-03  9.0999129429526843e-02  3.2024743714204862e-01  5.1544190778101373e-01  6.1264631023266003e-01  6.0760082568564644e-01  5.0947343880862095e-01  3.2596067356458880e-01  1.1230204267325156e-01  6.0925411378795974e-03  2.4621639602959160e-03  2.0492879482637461e-03  1.8887658017887035e-03  1.7726541048150031e-03  1.6813766424369251e-03  1.6084775241007674e-03  1.5496824053450801e-03  1.5017879652664261e-03  1.4623708387000898e-03  1.4295899256642629e-03  1.4020385281191012e-03  1.3786326811596461e-03  1.3585343172526139e-03  1.3411005415234574e-03  1.3258444304030986e-03  1.3123990041632551e-03  1.3004856125946296e-03  1.2898906790135027e-03  1.2804509922788518e-03  1.2720441003789037e-03  1.2645804639920138e-03  1.2579963451137155e-03  1.2522480019064961e-03  1.2473076347512453e-03  1.2431604491432789e-03  1.2398002062211373e-03  1.2371832101491108e-03  1.2344331388296551e-03  1.2163134846648255e-03  2.3245800740537888e-03  2.6017198657728052e-03  1.9376012467126635e-03  5.5491003751447559e-03  1.2555092844588939e-01  3.4273618927378785e-01  5.1685230795162840e-01  5.9513767174945631e-01  5.7646733687245011e-01  4.6367057284047397e-01  2.7107814507851363e-01  7.5294642798331132e-02  4.0552849634450045e-03  2.2442700519802830e-03  1.9551549424344523e-03  1.8152879119674459e-03  1.7117787481046442e-03  1.6311167635192046e-03  1.5673694821919954e-03  1.5164269497206936e-03  1.4752399218887567e-03  1.4415468841146376e-03  1.4136635212304792e-03  1.3903072549440139e-03  1.3704893174300429e-03  1.3534625004042134e-03  1.3386807789763475e-03  1.3257482893299409e-03  1.3143685753781767e-03  1.3043111299701436e-03  1.2953967127502699e-03  1.2874907195515202e-03  1.2804954871189986e-03  1.2743406167664755e-03  1.2689750657550196e-03  1.2643634029788063e-03  1.2604849536718993e-03  1.2573310318407371e-03  1.2548517325471186e-03  1.2520148415152159e-03  1.2308397585075969e-03  2.3354025118451668e-03  2.5403914603759846e-03  1.6642162087295617e-03  2.2676829240082410e-03  8.5636322268354513e-03  1.5849124146218113e-01  3.6860450064282974e-01  5.2307690451664812e-01  5.8269568137797434e-01  5.4782121038926557e-01  4.1987300506027875e-01  2.3377167093803305e-01  4.0505377587613668e-02  3.1303319868675925e-03  2.0770937963370145e-03  1.8614874684612140e-03  1.7404181465367548e-03  1.6509210529428657e-03  1.5821054355517909e-03  1.5283975228161950e-03  1.4858462822203758e-03  1.4516625109597160e-03  1.4238828581916105e-03  1.4010186751822183e-03  1.3818890014155253e-03  1.3656119697258921e-03  1.3515915596591071e-03  1.3394330569048377e-03  1.3288425886422213e-03  1.3195740843153507e-03  1.3114256828627075e-03  1.3042481147705976e-03  1.2979382899332328e-03  1.2924207863156238e-03  1.2876331494543391e-03  1.2835234615409866e-03  1.2800560657549060e-03  1.2772145390942198e-03  1.2749418329434171e-03  1.2720285902823266e-03  1.2473189981615205e-03  2.3475199765063404e-03  2.4727672517231478e-03  1.5135265869796572e-03  1.7414948975745920e-03  2.3089371281698281e-03  1.6606870390571637e-02  1.9648476941965462e-01  3.9491807949689373e-01  5.3179353954474728e-01  5.7309846668947817e-01  5.1921482211220327e-01  3.8121597636224647e-01  1.9246902680083872e-01  1.8097357646293118e-02  2.5993147600385205e-03  1.9327691392542229e-03  1.7669485938576852e-03  1.6660158551123478e-03  1.5921603900772561e-03  1.5363977661978622e-03  1.4931925034865740e-03  1.4590648958787090e-03  1.4319540055141590e-03  1.4102222091632176e-03  1.3923681196091465e-03  1.3772757995633011e-03  1.3643332005152783e-03  1.3532410278075304e-03  1.3437581797809957e-03  1.3356094625897093e-03  1.3285407627623065e-03  1.3223818450877076e-03  1.3170388362462818e-03  1.3124427426823347e-03  1.3085128314387904e-03  1.3051594497190096e-03  1.3023095678618372e-03  1.2999263118099599e-03  1.2979449142833694e-03  1.2949585983466384e-03  1.2661134730578292e-03  2.3611276180917633e-03  2.4068911081987394e-03  1.3893519423272143e-03  1.5274813844887885e-03  1.6885198046093562e-03  2.5104990046645364e-03  3.6496452279023081e-02  2.3134138376901892e-01  4.2218827092582845e-01  5.3936442709981203e-01  5.6161335046885974e-01  4.8965953287244474e-01  3.4422723759379942e-01  1.4789529944357729e-01  8.4099047155082370e-03  2.2720374308330543e-03  1.8121126370661538e-03  1.6776246795101731e-03  1.5957472951299708e-03  1.5391523534923541e-03  1.4964680509950202e-03  1.4627715730025494e-03  1.4369017082435081e-03  1.4173215366350051e-03  1.4016841417523428e-03  1.3882846237070379e-03  1.3766452928218346e-03  1.3668784534620669e-03  1.3589107952072614e-03  1.3523453056205224e-03  1.3467657731517214e-03  1.3419708375407588e-03  1.3379376134678830e-03  1.3346498111576517e-03  1.3319935157173998e-03  1.3297851644858210e-03  1.3278604282546075e-03  1.3261356701008977e-03  1.3245378751376169e-03  1.3214475435657819e-03  1.2876829982519775e-03  2.3764615098827431e-03  2.3489397844109511e-03  1.2905794379006858e-03  1.3848584686835803e-03  1.4915113282947846e-03  1.7307812135733908e-03  3.1802532726438603e-03  7.3501417453066181e-02  2.8268572992612284e-01  4.529767977