<?xml version="1.0"?>
<VTKFile type="UnstructuredGrid"  version="0.1"  >
<UnstructuredGrid>
<Piece  NumberOfPoints="1681" NumberOfCells="3200">
<Points>
<DataArray  type="Float64"  NumberOfComponents="3"  format="ascii">0 0 0  0.025 0 0  0.05 0 0  0.075 0 0  0.1 0 0  0.125 0 0  0.15 0 0  0.175 0 0  0.2 0 0  0.225 0 0  0.25 0 0  0.275 0 0  0.3 0 0  0.325 0 0  0.35 0 0  0.375 0 0  0.4 0 0  0.425 0 0  0.45 0 0  0.475 0 0  0.5 0 0  0.525 0 0  0.55 0 0  0.575 0 0  0.6 0 0  0.625 0 0  0.65 0 0  0.675 0 0  0.7 0 0  0.725 0 0  0.75 0 0  0.775 0 0  0.8 0 0  0.825 0 0  0.85 0 0  0.875 0 0  0.9 0 0  0.925 0 0  0.95 0 0  0.975 0 0  1 0 0  0 0.025 0  0.025 0.025 0  0.05 0.025 0  0.075 0.025 0  0.1 0.025 0  0.125 0.025 0  0.15 0.025 0  0.175 0.025 0  0.2 0.025 0  0.225 0.025 0  0.25 0.025 0  0.275 0.025 0  0.3 0.025 0  0.325 0.025 0  0.35 0.025 0  0.375 0.025 0  0.4 0.025 0  0.425 0.025 0  0.45 0.025 0  0.475 0.025 0  0.5 0.025 0  0.525 0.025 0  0.55 0.025 0  0.575 0.025 0  0.6 0.025 0  0.625 0.025 0  0.65 0.025 0  0.675 0.025 0  0.7 0.025 0  0.725 0.025 0  0.75 0.025 0  0.775 0.025 0  0.8 0.025 0  0.825 0.025 0  0.85 0.025 0  0.875 0.025 0  0.9 0.025 0  0.925 0.025 0  0.95 0.025 0  0.975 0.025 0  1 0.025 0  0 0.05 0  0.025 0.05 0  0.05 0.05 0  0.075 0.05 0  0.1 0.05 0  0.125 0.05 0  0.15 0.05 0  0.175 0.05 0  0.2 0.05 0  0.225 0.05 0  0.25 0.05 0  0.275 0.05 0  0.3 0.05 0  0.325 0.05 0  0.35 0.05 0  0.375 0.05 0  0.4 0.05 0  0.425 0.05 0  0.45 0.05 0  0.475 0.05 0  0.5 0.05 0  0.525 0.05 0  0.55 0.05 0  0.575 0.05 0  0.6 0.05 0  0.625 0.05 0  0.65 0.05 0  0.675 0.05 0  0.7 0.05 0  0.725 0.05 0  0.75 0.05 0  0.775 0.05 0  0.8 0.05 0  0.825 0.05 0  0.85 0.05 0  0.875 0.05 0  0.9 0.05 0  0.925 0.05 0  0.95 0.05 0  0.975 0.05 0  1 0.05 0  0 0.075 0  0.025 0.075 0  0.05 0.075 0  0.075 0.075 0  0.1 0.075 0  0.125 0.075 0  0.15 0.075 0  0.175 0.075 0  0.2 0.075 0  0.225 0.075 0  0.25 0.075 0  0.275 0.075 0  0.3 0.075 0  0.325 0.075 0  0.35 0.075 0  0.375 0.075 0  0.4 0.075 0  0.425 0.075 0  0.45 0.075 0  0.475 0.075 0  0.5 0.075 0  0.525 0.075 0  0.55 0.075 0  0.575 0.075 0  0.6 0.075 0  0.625 0.075 0  0.65 0.075 0  0.675 0.075 0  0.7 0.075 0  0.725 0.075 0  0.75 0.075 0  0.775 0.075 0  0.8 0.075 0  0.825 0.075 0  0.85 0.075 0  0.875 0.075 0  0.9 0.075 0  0.925 0.075 0  0.95 0.075 0  0.975 0.075 0  1 0.075 0  0 0.1 0  0.025 0.1 0  0.05 0.1 0  0.075 0.1 0  0.1 0.1 0  0.125 0.1 0  0.15 0.1 0  0.175 0.1 0  0.2 0.1 0  0.225 0.1 0  0.25 0.1 0  0.275 0.1 0  0.3 0.1 0  0.325 0.1 0  0.35 0.1 0  0.375 0.1 0  0.4 0.1 0  0.425 0.1 0  0.45 0.1 0  0.475 0.1 0  0.5 0.1 0  0.525 0.1 0  0.55 0.1 0  0.575 0.1 0  0.6 0.1 0  0.625 0.1 0  0.65 0.1 0  0.675 0.1 0  0.7 0.1 0  0.725 0.1 0  0.75 0.1 0  0.775 0.1 0  0.8 0.1 0  0.825 0.1 0  0.85 0.1 0  0.875 0.1 0  0.9 0.1 0  0.925 0.1 0  0.95 0.1 0  0.975 0.1 0  1 0.1 0  0 0.125 0  0.025 0.125 0  0.05 0.125 0  0.075 0.125 0  0.1 0.125 0  0.125 0.125 0  0.15 0.125 0  0.175 0.125 0  0.2 0.125 0  0.225 0.125 0  0.25 0.125 0  0.275 0.125 0  0.3 0.125 0  0.325 0.125 0  0.35 0.125 0  0.375 0.125 0  0.4 0.125 0  0.425 0.125 0  0.45 0.125 0  0.475 0.125 0  0.5 0.125 0  0.525 0.125 0  0.55 0.125 0  0.575 0.125 0  0.6 0.125 0  0.625 0.125 0  0.65 0.125 0  0.675 0.125 0  0.7 0.125 0  0.725 0.125 0  0.75 0.125 0  0.775 0.125 0  0.8 0.125 0  0.825 0.125 0  0.85 0.125 0  0.875 0.125 0  0.9 0.125 0  0.925 0.125 0  0.95 0.125 0  0.975 0.125 0  1 0.125 0  0 0.15 0  0.025 0.15 0  0.05 0.15 0  0.075 0.15 0  0.1 0.15 0  0.125 0.15 0  0.15 0.15 0  0.175 0.15 0  0.2 0.15 0  0.225 0.15 0  0.25 0.15 0  0.275 0.15 0  0.3 0.15 0  0.325 0.15 0  0.35 0.15 0  0.375 0.15 0  0.4 0.15 0  0.425 0.15 0  0.45 0.15 0  0.475 0.15 0  0.5 0.15 0  0.525 0.15 0  0.55 0.15 0  0.575 0.15 0  0.6 0.15 0  0.625 0.15 0  0.65 0.15 0  0.675 0.15 0  0.7 0.15 0  0.725 0.15 0  0.75 0.15 0  0.775 0.15 0  0.8 0.15 0  0.825 0.15 0  0.85 0.15 0  0.875 0.15 0  0.9 0.15 0  0.925 0.15 0  0.95 0.15 0  0.975 0.15 0  1 0.15 0  0 0.175 0  0.025 0.175 0  0.05 0.175 0  0.075 0.175 0  0.1 0.175 0  0.125 0.175 0  0.15 0.175 0  0.175 0.175 0  0.2 0.175 0  0.225 0.175 0  0.25 0.175 0  0.275 0.175 0  0.3 0.175 0  0.325 0.175 0  0.35 0.175 0  0.375 0.175 0  0.4 0.175 0  0.425 0.175 0  0.45 0.175 0  0.475 0.175 0  0.5 0.175 0  0.525 0.175 0  0.55 0.175 0  0.575 0.175 0  0.6 0.175 0  0.625 0.175 0  0.65 0.175 0  0.675 0.175 0  0.7 0.175 0  0.725 0.175 0  0.75 0.175 0  0.775 0.175 0  0.8 0.175 0  0.825 0.175 0  0.85 0.175 0  0.875 0.175 0  0.9 0.175 0  0.925 0.175 0  0.95 0.175 0  0.975 0.175 0  1 0.175 0  0 0.2 0  0.025 0.2 0  0.05 0.2 0  0.075 0.2 0  0.1 0.2 0  0.125 0.2 0  0.15 0.2 0  0.175 0.2 0  0.2 0.2 0  0.225 0.2 0  0.25 0.2 0  0.275 0.2 0  0.3 0.2 0  0.325 0.2 0  0.35 0.2 0  0.375 0.2 0  0.4 0.2 0  0.425 0.2 0  0.45 0.2 0  0.475 0.2 0  0.5 0.2 0  0.525 0.2 0  0.55 0.2 0  0.575 0.2 0  0.6 0.2 0  0.625 0.2 0  0.65 0.2 0  0.675 0.2 0  0.7 0.2 0  0.725 0.2 0  0.75 0.2 0  0.775 0.2 0  0.8 0.2 0  0.825 0.2 0  0.85 0.2 0  0.875 0.2 0  0.9 0.2 0  0.925 0.2 0  0.95 0.2 0  0.975 0.2 0  1 0.2 0  0 0.225 0  0.025 0.225 0  0.05 0.225 0  0.075 0.225 0  0.1 0.225 0  0.125 0.225 0  0.15 0.225 0  0.175 0.225 0  0.2 0.225 0  0.225 0.225 0  0.25 0.225 0  0.275 0.225 0  0.3 0.225 0  0.325 0.225 0  0.35 0.225 0  0.375 0.225 0  0.4 0.225 0  0.425 0.225 0  0.45 0.225 0  0.475 0.225 0  0.5 0.225 0  0.525 0.225 0  0.55 0.225 0  0.575 0.225 0  0.6 0.225 0  0.625 0.225 0  0.65 0.225 0  0.675 0.225 0  0.7 0.225 0  0.725 0.225 0  0.75 0.225 0  0.775 0.225 0  0.8 0.225 0  0.825 0.225 0  0.85 0.225 0  0.875 0.225 0  0.9 0.225 0  0.925 0.225 0  0.95 0.225 0  0.975 0.225 0  1 0.225 0  0 0.25 0  0.025 0.25 0  0.05 0.25 0  0.075 0.25 0  0.1 0.25 0  0.125 0.25 0  0.15 0.25 0  0.175 0.25 0  0.2 0.25 0  0.225 0.25 0  0.25 0.25 0  0.275 0.25 0  0.3 0.25 0  0.325 0.25 0  0.35 0.25 0  0.375 0.25 0  0.4 0.25 0  0.425 0.25 0  0.45 0.25 0  0.475 0.25 0  0.5 0.25 0  0.525 0.25 0  0.55 0.25 0  0.575 0.25 0  0.6 0.25 0  0.625 0.25 0  0.65 0.25 0  0.675 0.25 0  0.7 0.25 0  0.725 0.25 0  0.75 0.25 0  0.775 0.25 0  0.8 0.25 0  0.825 0.25 0  0.85 0.25 0  0.875 0.25 0  0.9 0.25 0  0.925 0.25 0  0.95 0.25 0  0.975 0.25 0  1 0.25 0  0 0.275 0  0.025 0.275 0  0.05 0.275 0  0.075 0.275 0  0.1 0.275 0  0.125 0.275 0  0.15 0.275 0  0.175 0.275 0  0.2 0.275 0  0.225 0.275 0  0.25 0.275 0  0.275 0.275 0  0.3 0.275 0  0.325 0.275 0  0.35 0.275 0  0.375 0.275 0  0.4 0.275 0  0.425 0.275 0  0.45 0.275 0  0.475 0.275 0  0.5 0.275 0  0.525 0.275 0  0.55 0.275 0  0.575 0.275 0  0.6 0.275 0  0.625 0.275 0  0.65 0.275 0  0.675 0.275 0  0.7 0.275 0  0.725 0.275 0  0.75 0.275 0  0.775 0.275 0  0.8 0.275 0  0.825 0.275 0  0.85 0.275 0  0.875 0.275 0  0.9 0.275 0  0.925 0.275 0  0.95 0.275 0  0.975 0.275 0  1 0.275 0  0 0.3 0  0.025 0.3 0  0.05 0.3 0  0.075 0.3 0  0.1 0.3 0  0.125 0.3 0  0.15 0.3 0  0.175 0.3 0  0.2 0.3 0  0.225 0.3 0  0.25 0.3 0  0.275 0.3 0  0.3 0.3 0  0.325 0.3 0  0.35 0.3 0  0.375 0.3 0  0.4 0.3 0  0.425 0.3 0  0.45 0.3 0  0.475 0.3 0  0.5 0.3 0  0.525 0.3 0  0.55 0.3 0  0.575 0.3 0  0.6 0.3 0  0.625 0.3 0  0.65 0.3 0  0.675 0.3 0  0.7 0.3 0  0.725 0.3 0  0.75 0.3 0  0.775 0.3 0  0.8 0.3 0  0.825 0.3 0  0.85 0.3 0  0.875 0.3 0  0.9 0.3 0  0.925 0.3 0  0.95 0.3 0  0.975 0.3 0  1 0.3 0  0 0.325 0  0.025 0.325 0  0.05 0.325 0  0.075 0.325 0  0.1 0.325 0  0.125 0.325 0  0.15 0.325 0  0.175 0.325 0  0.2 0.325 0  0.225 0.325 0  0.25 0.325 0  0.275 0.325 0  0.3 0.325 0  0.325 0.325 0  0.35 0.325 0  0.375 0.325 0  0.4 0.325 0  0.425 0.325 0  0.45 0.325 0  0.475 0.325 0  0.5 0.325 0  0.525 0.325 0  0.55 0.325 0  0.575 0.325 0  0.6 0.325 0  0.625 0.325 0  0.65 0.325 0  0.675 0.325 0  0.7 0.325 0  0.725 0.325 0  0.75 0.325 0  0.775 0.325 0  0.8 0.325 0  0.825 0.325 0  0.85 0.325 0  0.875 0.325 0  0.9 0.325 0  0.925 0.325 0  0.95 0.325 0  0.975 0.325 0  1 0.325 0  0 0.35 0  0.025 0.35 0  0.05 0.35 0  0.075 0.35 0  0.1 0.35 0  0.125 0.35 0  0.15 0.35 0  0.175 0.35 0  0.2 0.35 0  0.225 0.35 0  0.25 0.35 0  0.275 0.35 0  0.3 0.35 0  0.325 0.35 0  0.35 0.35 0  0.375 0.35 0  0.4 0.35 0  0.425 0.35 0  0.45 0.35 0  0.475 0.35 0  0.5 0.35 0  0.525 0.35 0  0.55 0.35 0  0.575 0.35 0  0.6 0.35 0  0.625 0.35 0  0.65 0.35 0  0.675 0.35 0  0.7 0.35 0  0.725 0.35 0  0.75 0.35 0  0.775 0.35 0  0.8 0.35 0  0.825 0.35 0  0.85 0.35 0  0.875 0.35 0  0.9 0.35 0  0.925 0.35 0  0.95 0.35 0  0.975 0.35 0  1 0.35 0  0 0.375 0  0.025 0.375 0  0.05 0.375 0  0.075 0.375 0  0.1 0.375 0  0.125 0.375 0  0.15 0.375 0  0.175 0.375 0  0.2 0.375 0  0.225 0.375 0  0.25 0.375 0  0.275 0.375 0  0.3 0.375 0  0.325 0.375 0  0.35 0.375 0  0.375 0.375 0  0.4 0.375 0  0.425 0.375 0  0.45 0.375 0  0.475 0.375 0  0.5 0.375 0  0.525 0.375 0  0.55 0.375 0  0.575 0.375 0  0.6 0.375 0  0.625 0.375 0  0.65 0.375 0  0.675 0.375 0  0.7 0.375 0  0.725 0.375 0  0.75 0.375 0  0.775 0.375 0  0.8 0.375 0  0.825 0.375 0  0.85 0.375 0  0.875 0.375 0  0.9 0.375 0  0.925 0.375 0  0.95 0.375 0  0.975 0.375 0  1 0.375 0  0 0.4 0  0.025 0.4 0  0.05 0.4 0  0.075 0.4 0  0.1 0.4 0  0.125 0.4 0  0.15 0.4 0  0.175 0.4 0  0.2 0.4 0  0.225 0.4 0  0.25 0.4 0  0.275 0.4 0  0.3 0.4 0  0.325 0.4 0  0.35 0.4 0  0.375 0.4 0  0.4 0.4 0  0.425 0.4 0  0.45 0.4 0  0.475 0.4 0  0.5 0.4 0  0.525 0.4 0  0.55 0.4 0  0.575 0.4 0  0.6 0.4 0  0.625 0.4 0  0.65 0.4 0  0.675 0.4 0  0.7 0.4 0  0.725 0.4 0  0.75 0.4 0  0.775 0.4 0  0.8 0.4 0  0.825 0.4 0  0.85 0.4 0  0.875 0.4 0  0.9 0.4 0  0.925 0.4 0  0.95 0.4 0  0.975 0.4 0  1 0.4 0  0 0.425 0  0.025 0.425 0  0.05 0.425 0  0.075 0.425 0  0.1 0.425 0  0.125 0.425 0  0.15 0.425 0  0.175 0.425 0  0.2 0.425 0  0.225 0.425 0  0.25 0.425 0  0.275 0.425 0  0.3 0.425 0  0.325 0.425 0  0.35 0.425 0  0.375 0.425 0  0.4 0.425 0  0.425 0.425 0  0.45 0.425 0  0.475 0.425 0  0.5 0.425 0  0.525 0.425 0  0.55 0.425 0  0.575 0.425 0  0.6 0.425 0  0.625 0.425 0  0.65 0.425 0  0.675 0.425 0  0.7 0.425 0  0.725 0.425 0  0.75 0.425 0  0.775 0.425 0  0.8 0.425 0  0.825 0.425 0  0.85 0.425 0  0.875 0.425 0  0.9 0.425 0  0.925 0.425 0  0.95 0.425 0  0.975 0.425 0  1 0.425 0  0 0.45 0  0.02
[...]
<PointData  Scalars="ControlVisualisation"> 
<DataArray  type="Float64"  Name="ControlVisualisation"  format="ascii">4.8644033643091694e-02  3.2414715025061339e-02  3.2422271314748147e-02  3.2439744028019107e-02  3.2469321536766481e-02  3.2508848382752149e-02  3.2552676095114363e-02  3.2594642089437659e-02  3.2630279051451272e-02  3.2657375247943307e-02  3.2675526063243643e-02  3.2685431188287019e-02  3.2688308967429851e-02  3.2685514370508401e-02  3.2678330380727691e-02  3.2667875656896238e-02  3.2655079054796976e-02  3.2640687903668614e-02  3.2625290784078803e-02  3.2609344501338428e-02  3.2593200159293192e-02  3.2577126149265820e-02  3.2561327402562609e-02  3.2545960982982430e-02  3.2531148385624029e-02  3.2516984987398606e-02  3.2503547093388423e-02  3.2490896998719876e-02  3.2479086461046705e-02  3.2468158953193660e-02  3.2458151036824187e-02  3.2449093161968652e-02  3.2441010155217276e-02  3.2433921590315745e-02  3.2427842237061903e-02  3.2422782493866723e-02  3.2418749547211426e-02  3.2415745360921747e-02  3.2413783700364546e-02  3.2412816126046053e-02  9.9078415040203913e-02  3.2414182742823414e-02  1.6244900389967627e-02  1.6254500966531950e-02  1.6276938873092610e-02  1.6315596902152139e-02  1.6368061288915301e-02  1.6427192726300603e-02  1.6484814346677611e-02  1.6534642179408893e-02  1.6573270420903157e-02  1.6599773931293541e-02  1.6614852582192190e-02  1.6620040436815683e-02  1.6617151387866031e-02  1.6607957693044222e-02  1.6594035629930663e-02  1.6576711732853654e-02  1.6557062854643131e-02  1.6535941637131013e-02  1.6514011270653172e-02  1.6491781034823797e-02  1.6469638626285310e-02  1.6447877787278294e-02  1.6426721016257813e-02  1.6406337699321105e-02  1.6386858199220051e-02  1.6368384482586908e-02  1.6350997858189574e-02  1.6334764376063030e-02  1.6319738408563222e-02  1.6305964896887432e-02  1.6293480697945256e-02  1.6282315407059322e-02  1.6272491951921972e-02  1.6264027223729792e-02  1.6256932700897946e-02  1.6251215655202097e-02  1.6246879359056242e-02  1.6243925145156018e-02  1.6242216751875684e-02  3.2412816130087750e-02  3.2415796472653385e-02  1.6249625700222287e-02  1.6266061734142363e-02  1.6299981718919353e-02  1.6354412485859129e-02  1.6423097596388624e-02  1.6496134528975574e-02  1.6564292707467943e-02  1.6621380017745775e-02  1.6664411645212866e-02  1.6692919413237851e-02  1.6708051513765396e-02  1.6711748681572963e-02  1.6706173909874160e-02  1.6693395903876952e-02  1.6675241388572903e-02  1.6653244718034105e-02  1.6628651204292539e-02  1.6602447052192378e-02  1.6575399279860528e-02  1.6548096451696678e-02  1.6520985837353206e-02  1.6494405336052571e-02  1.6468609893426751e-02  1.6443792737776398e-02  1.6420101971586346e-02  1.6397653114798311e-02  1.6376538218051493e-02  1.6356832168776203e-02  1.6338596803169684e-02  1.6321883407372687e-02  1.6306734139404505e-02  1.6293182836755772e-02  1.6281255581914768e-02  1.6270971341766062e-02  1.6262342655058777e-02  1.6255377406338607e-02  1.6250076114781867e-02  1.6246423132995833e-02  1.6243925314302944e-02  3.2413783810007091e-02  3.2413412085182003e-02  1.6254588695132903e-02  1.6288085634688254e-02  1.6347968124968262e-02  1.6422404149898089e-02  1.6499432147429174e-02  1.6570464442056679e-02  1.6631128568815094e-02  1.6678835148979186e-02  1.6712349291522419e-02  1.6732169564914856e-02  1.6739929136316018e-02  1.6737646429785875e-02  1.6727341292527363e-02  1.6710874366275302e-02  1.6689866883154478e-02  1.6665672434811683e-02  1.6639386561622144e-02  1.6611876002657268e-02  1.6583814659500457e-02  1.6555719442678501e-02  1.6527982786178660e-02  1.6500900674494091e-02  1.6474696071032115e-02  1.6449537986181460e-02  1.6425556500922901e-02  1.6402854118624424e-02  1.6381513901656066e-02  1.6361604926024158e-02  1.6343185627239867e-02  1.6326305610804878e-02  1.6311006463936337e-02  1.6297322045687967e-02  1.6285278641964655e-02  1.6274895312741670e-02  1.6266184423886880e-02  1.6259153087481659e-02  1.6253798878821918e-02  1.6250077134878017e-02  1.6246880342986457e-02  3.2415746127159147e-02  3.2417379453007031e-02  1.6283430983822782e-02  1.6395581720760607e-02  1.6555917320859669e-02  1.6653194898790195e-02  1.6695172824950432e-02  1.6719907414671983e-02  1.6745241838285463e-02  1.6767215017608895e-02  1.6780898402685856e-02  1.6785320082282007e-02  1.6781250880505964e-02  1.6769905372183258e-02  1.6752686047285550e-02  1.6730992007288087e-02  1.6706071021738492e-02  1.6678970617570611e-02  1.6650542870391461e-02  1.6621465223518248e-02  1.6592266300537024e-02  1.6563352428517558e-02  1.6535032006074528e-02  1.6507536949297005e-02  1.6481041294832473e-02  1.6455676926637824e-02  1.6431546251782156e-02  1.6408731772331275e-02  1.6387302745947616e-02  1.6367319341361868e-02  1.6348834814546954e-02  1.6331896267730669e-02  1.6316544533585726e-02  1.6302813674907532e-02  1.6290730504362024e-02  1.6280314469002168e-02  1.6271577879965977e-02  1.6264527117149222e-02  1.6259156383817891e-02  1.6255381311340418e-02  1.6251218880171309e-02  3.2418752373003984e-02  3.4236302234796144e-02  1.6944321622207381e-02  1.8318876164053657e-02  1.9581947166355133e-02  1.9691456869331533e-02  1.8587555130173995e-02  1.7566544805094696e-02  1.7101773605438200e-02  1.6941842840927215e-02  1.6884487690167781e-02  1.6856922951708282e-02  1.6834789977650054e-02  1.6811100363206266e-02  1.6784823258635222e-02  1.6756414745376015e-02  1.6726524455071820e-02  1.6695759994189936e-02  1.6664646418959941e-02  1.6633613557429015e-02  1.6603002894332697e-02  1.6573080306071051e-02  1.6544048225591093e-02  1.6516057545803792e-02  1.6489219859775785e-02  1.6463619212475751e-02  1.6439322128532677e-02  1.6416385136375659e-02  1.6394859639727883e-02  1.6374794429800672e-02  1.6356236347180447e-02  1.6339229663785326e-02  1.6323814740273820e-02  1.6310026467028504e-02  1.6297892918622502e-02  1.6287434595562436e-02  1.6278664257100797e-02  1.6271587857391086e-02  1.6266195762567881e-02  1.6262352740383935e-02  1.6256940441696878e-02  3.2422789882254791e-02  3.7834760770503920e-02  3.1283752713969652e-02  1.4365737959002770e-01  2.3479801161463981e-01  1.7576665787055687e-01  8.3475551772425466e-02  3.7244635003610395e-02  2.2539602778550688e-02  1.8220955046015681e-02  1.7195733615746719e-02  1.6976099332692580e-02  1.6904810821450483e-02  1.6861143828423644e-02  1.6823132046438781e-02  1.6786655404855751e-02  1.6750904411647512e-02  1.6715845429229520e-02  1.6681597692437516e-02  1.6648288792399928e-02  1.6616036736903310e-02  1.6584944423474704e-02  1.6555092408359458e-02  1.6526537182795252e-02  1.6499316068344559e-02  1.6473455263420811e-02  1.6448977534580855e-02  1.6425907710882454e-02  1.6404275549286661e-02  1.6384116282916465e-02  1.6365469432166789e-02  1.6348376493082666e-02  1.6332878075653826e-02  1.6319011014851462e-02  1.6306805913218172e-02  1.6296285533258383e-02  1.6287464085951758e-02  1.6280347773453937e-02  1.6274922823626681e-02  1.6270992018390128e-02  1.6264041883405508e-02  3.2427857512178825e-02  9.7092122482293575e-01  9.7782214934897749e-01  9.8235670563804567e-01  9.7913511018420418e-01  9.6574375729773954e-01  9.0507171716717405e-01  5.6655939604767780e-01  2.0702753846192490e-01  4.3404888800968988e-02  2.1001323639907254e-02  1.7598961139720815e-02  1.7052638228831261e-02  1.6927263508537231e-02  1.6867610861403936e-02  1.6821015025594549e-02  1.6778575037970540e-02  1.6738742516009944e-02  1.6701051978634494e-02  1.6665246990493612e-02  1.6631191762534202e-02  1.6598817530800454e-02  1.6568076563408175e-02  1.6538921503752899e-02  1.6511304502534518e-02  1.6485183865660256e-02  1.6460530624543772e-02  1.6437332249411525e-02  1.6415593269251412e-02  1.6395333477539339e-02  1.6376584533434699e-02  1.6359385651860799e-02  1.6343778953158639e-02  1.6329804983568029e-02  1.6317498884733293e-02  1.6306887685810179e-02  1.6297988830759051e-02  1.6290810126574760e-02  1.6285333918049708e-02  1.6281290404760326e-02  1.6272513636113022e-02  3.2433947461406640e-02  9.9584303887065406e-01  9.9712755092085059e-01  9.9627625336062586e-01  9.9497245581321336e-01  9.9290625089495099e-01  9.8894999259929528e-01  9.7911612305237206e-01  9.3266398078532631e-01  5.4353088975533792e-01  9.6174396069930029e-02  2.5634305731091968e-02  1.8076690940211790e-02  1.7102016243653005e-02  1.6929532702487586e-02  1.6860231531936019e-02  1.6808901223068745e-02  1.6763854826596716e-02  1.6722590521089986e-02  1.6684187355471343e-02  1.6648236150510993e-02  1.6614519037211155e-02  1.6582866982688994e-02  1.6553121193152158e-02  1.6525136158986865e-02  1.6498790695144885e-02  1.6473995401869390e-02  1.6450694652336114e-02  1.6428864394489560e-02  1.6408507426575507e-02  1.6389647370879327e-02  1.6372322098432104e-02  1.6356577089526481e-02  1.6342459153930469e-02  1.6330010972383763e-02  1.6319266992548768e-02  1.6310250893737520e-02  1.6302974636815348e-02  1.6297418035111130e-02  1.6293229157035276e-02  1.6282336212953000e-02  3.2441045016369754e-02  9.9776644131766024e-01  9.9863607423488954e-01  9.9819297447017952e-01  9.9753177766427215e-01  9.9662646566703350e-01  9.9528722359749999e-01  9.9292333725349979e-01  9.8742193558803648e-01  9.6769160958791156e-01  7.5452560297508997e-01  2.1545839361592417e-01  2.9211585023252450e-02  1.8412685576712339e-02  1.7125490265848847e-02  1.6917706273063118e-02  1.6842602209534964e-02  1.6790696047297292e-02  1.6745820915335618e-02  1.6704790163986918e-02  1.6666885674820348e-02  1.6631807334521756e-02  1.6599276705701126e-02  1.6569007971743939e-02  1.6540738000854514e-02  1.6514250620690826e-02  1.6489386037157210e-02  1.6466039817413770e-02  1.6444156392001967e-02  1.6423720394725973e-02  1.6404747525303451e-02  1.6387275561700616e-02  1.6371355703574925e-02  1.6357044421471307e-02  1.6344396177532548e-02  1.6333457603246448e-02  1.6324263496110297e-02  1.6316834502674470e-02  1.6311151178363001e-02  1.6306771746748515e-02  1.6293473259122969e-02  3.2449123398281460e-02  9.9804771627994304e-01  9.9891564038772795e-01  9.9862113413125797e-01  9.9818958370709254e-01  9.9763545855091740e-01  9.9691129987026050e-01  9.9585082692186944e-01  9.9400205360393290e-01  9.8987227168540304e-01  9.7588388717041030e-01  8.3330100950657726e-01  2.9989054295580647e-01  3.1173125805881354e-02  1.8546604052742360e-02  1.7108091893192963e-02  1.6893951544069422e-02  1.6820801592779447e-02  1.6770764273368297e-02  1.6726767471978536e-02  1.6686779522180450e-02  1.6650348606225534e-02  1.6617044198796539e-02  1.6586403048405522e-02  1.6558008274195832e-02  1.6531527449651875e-02  1.6506719608244833e-02  1.6483426726315906e-02  1.6461559786761164e-02  1.6441084597797730e-02  1.6422009100540404e-02  1.6404372142882928e-02  1.6388233157566125e-02  1.6373662376106213e-02  1.6360731712201634e-02  1.6349506931318702e-02  1.6340041664764722e-02  1.6332373006390496e-02  1.6326488847305726e-02  1.6321853226087649e-02  1.6305861430251117e-02  3.2458136683040616e-02  9.9749006764729109e-01  9.9875621129010672e-01  9.9854274481378102e-01  9.9824038403893223e-01  9.9787504602438060e-01  9.9742803028643601e-01  9.9682549355679817e-01  9.9589997217955539e-01  9.9424009369357513e-01  9.9052263426817611e-01  9.7791576679196324e-01  8.5314760232810904e-01  3.0121260015780094e-01  3.2547194703287888e-02  1.8265914357935044e-02  1.7069607987586992e-02  1.6870891846292403e-02  1.6799559353929280e-02  1.6750008332777205e-02  1.6707409470471592e-02  1.6669661665604990e-02  1.6635805199451244e-02  1.6605066014665368e-02  1.6576814665553864e-02  1.6550576724240193e-02  1.6526021471804372e-02  1.6502935965052701e-02  1.6481198079300614e-02  1.6460754772679595e-02  1.6441605829122574e-02  1.6423791293038961e-02  1.6407380589344555e-02  1.6392461931609204e-02  1.6379131724854529e-02  1.6367484608030954e-02  1.6357604923687950e-02  1.6349559179623580e-02  1.6343354931510276e-02  1.6338363836986634e-02  1.6319394559602799e-02  3.2468008665296519e-02  9.9428744836420779e-01  9.9781561854259515e-01  9.9787315623410033e-01  9.9781614205117564e-01  9.9767754844219669e-01  9.9746014698558749e-01  9.9713161580209797e-01  9.9661633836134444e-01  9.9575081039142566e-01  9.9412665083541329e-01  9.9041041618840597e-01  9.7751687902306317e-01  8.4369083901850717e-01  2.6549412666509536e-01  3.0602485642050044e-02  1.8148874636291220e-02  1.7054437353957959e-02  1.6848837370866565e-02  1.6775931057253640e-02  1.6728220790860820e-02  1.6689095591619164e-02  1.6655075399079098e-02  1.6624693510908613e-02  1.6597002193744770e-02  1.6571355574334125e-02  1.6547334980781821e-02  1.6524680419743275e-02  1.6503241006831468e-02  1.6482945209319137e-02  1.6463782338797011e-02  1.6445790736244522e-02  1.6429048877132098e-02  1.6413665871885912e-02  1.6399770378782440e-02  1.6387498846031197e-02  1.6376984092819763e-02  1.6368343294171330e-02  1.6361625894224158e-02  1.6356124125289057e-02  1.6333899127631283e-02  3.2478615599474306e-02  8.8054611073865507e-01  9.9184081912121669e-01  9.9539581613922412e-01  9.9656823431529939e-01  9.9700091235039956e-01  9.9713248683703481e-01  9.9707561680322876e-01  9.9684089102475804e-01  9.9637206321090033e-01  9.9551053295377567e-01  9.9383085800975712e-01  9.8990356639221255e-01  9.7588138859481210e-01  8.1958876940646419e-01  2.3776534366203786e-01  3.0632812330226827e-02  1.8382734571392521e-02  1.7056194082231319e-02  1.6825094279578606e-02  1.6751549645991366e-02  1.6708351214620221e-02  1.6674355418201871e-02  1.6644974873512033e-02  1.6618432868512230e-02  1.6593844508816978e-02  1.6570735433285799e-02  1.6548818900346256e-02  1.6527920806543420e-02  1.6507951354271050e-02  1.6488883067905975e-02  1.6470742474958715e-02  1.6453609526988246e-02  1.6437613057067368e-02  1.6422920648953766e-02  1.6409726259229651e-02  1.6398236705300259e-02  1.6388654028035368e-02  1.6381108830299321e-02  1.6374847158357457e-02  1.6349095976918419e-02  3.2489759172684263e-02  3.9568419268871162e-02  4.9117222312101050e-01  9.8387022434758675e-01  9.9313780301358145e-01  9.9551661748177978e-01  9.9639013210116389e-01  9.9672652662837313e-01  9.9677160826566735e-01  9.9658186150825112e-01  9.9611797665463508e-01  9.9522148793748821e-01  9.9344309866193992e-01  9.8924765535316195e-01  9.7412829389505007e-01  8.0645549138608685e-01  2.4178258278622902e-01  3.4704350397731377e-02  1.8835592150077050e-02  1.7126405624209078e-02  1.6817942597402123e-02  1.6734490046236172e-02  1.6694939811092723e-02  1.6666152875841344e-02  1.6641150057071011e-02  1.6618099568499793e-02  1.6596361492396863e-02  1.6575578683409371e-02  1.6555550026800855e-02  1.6536174086920662e-02  1.6517390644003531e-02  1.6499184746470958e-02  1.6481616366276236e-02  1.6464825362703946e-02  1.6449019833974836e-02  1.6434466515000662e-02  1.6421480491548627e-02  1.6410402495331183e-02  1.6401512799807873e-02  1.6394081635594165e-02  1.6364540395933783e-02  3.2501123954399178e-02  3.2949621612820404e-02  3.4760849544161296e-02  7.7520015332632408e-01  9.8169349622804514e-01  9.9229618890613525e-01  9.9499618021056724e-01  9.9603940104307120e-01  9.9645472096550880e-01  9.9653043160101284e-01  9.9634193353001554e-01  9.9585727745595420e-01  9.9491799903803813e-01  9.9307027518870949e-01  9.8878853557368740e-01  9.7405285736210245e-01  8.3974437626960485e-01  2.9958712887077726e-01  4.9211948492674983e-02  2.0692491493504162e-02  1.7498255591255552e-02  1.6883492791459474e-02  1.6743991062620978e-02  1.6695339789948100e-02  1.6667486995893703e-02  1.6645073918380354e-02  1.6624672368746041e-02  1.6605326749539663e-02  1.6586548405876908e-02  1.6568152188303955e-02  1.6549982700810033e-02  1.6531898690714999e-02  1.6513897418470577e-02  1.6496113239463830e-02  1.6478780773930266e-02  1.6462243309141304e-02  1.6446964658039964e-02  1.6433506241526681e-02  1.6422416228679022e-02  1.6413127943356393e-02  1.6379528448038083e-02  3.2512210122454942e-02  3.2615646387313915e-02  1.9200324056090762e-02  1.3384069007904753e-01  8.9295519050163574e-01  9.8373288196036313e-01  9.9234722564956956e-01  9.9482877217267385e-01  9.9584573373023144e-01  9.9624844220951247e-01  9.9630981179475120e-01  9.9610568992521975e-01  9.9560846136771441e-01  9.9467224471493598e-01  9.9289260688668313e-01  9.8899978560020763e-01  9.7724475214997530e-01  9.0907052321830062e-01  4.5546494330494852e-01  1.1064905319368279e-01  2.8616252034599016e-02  1.9401243559114684e-02  1.7320105207633073e-02  1.6863108295967287e-02  1.6739256236871797e-02  1.6687347868220369e-02  1.6659581057543761e-02  1.6640113060413474e-02  1.6622123502544148e-02  1.6604766859488883e-02  1.6587656939638248e-02  1.6570044966117033e-02  1.6551699089263676e-02  1.6532741570680645e-02  1.6513381626996719e-02  1.6493993423855699e-02  1.6475220273339711e-02  1.6457964936345014e-02  1.6443244438472986e-02  1.6430920111294454e-02  1.6392951833045438e-02  3.2522227053410777e-02  3.2631286904443037e-02  1.6803986168483664e-02  2.4203114853002285e-02  3.5176658655402238e-01  9.3722616594962416e-01  9.8668136506517257e-01  9.9268125257224149e-01  9.9477864049251463e-01  9.9568338098145293e-01  9.9604157429975282e-01  9.9608884960195088e-01  9.9589499980654250e-01  9.9544116430953689e-01  9.9461520624176070e-01  9.9312566273757652e-01  9.9016704917103615e-01  9.8289149478969440e-01  9.5801236725131744e-01  7.7126861606228059e-01  3.6805501767238591e-01  7.9310914833002080e-02  3.0039399637141573e-02  2.0490237142841147e-02  1.7765886329005665e-02  1.6997700744428624e-02  1.6790181626820895e-02  1.6715150165370826e-02  1.6673497499125875e-02  1.6649804903874209e-02  1.6633337050393229e-02  1.6616078833734969e-02  1.6597022518787516e-02  1.6576684517093675e-02  1.6554815846308066e-02  1.6531435434685080e-02  1.6507373781696796e-02  1.6484064800277608e-02  1.6463305711239860e-02  1.6445877972248904e-02  1.6403079215655328e-02  3.2529927146515938e-02  3.2663466644167000e-02  1.6643423058168041e-02  1.7628270689856628e-02  3.2539009957594525e-02  5.8976774985520020e-01  9.6281649877430420e-01  9.8901562301745150e-01  9.9289096874973881e-01  9.9466210409493794e-01  9.9547686459433060e-01  9.9582895390173598e-01  9.9591512155372541e-01  9.9579875933479822e-01  9.9547418029862633e-01  9.9487543670227818e-01  9.9384156206096252e-01  9.9199456028670485e-01  9.8832948815793031e-01  9.7982686550162712e-01  9.5376223609246036e-01  8.2331961216609695e-01  4.5320717390386900e-01  1.5624129286714944e-01  4.3353453662208309e-02  2.4881391350514676e-02  1.9641329707636768e-02  1.7630388890278612e-02  1.6978417830948576e-02  1.6792260871596680e-02  1.6725621177862724e-02  1.6683809932236320e-02  1.6654836175756638e-02  1.6632078665156348e-02  1.6607108136510368e-02  1.6577841356680043e-02  1.6545785313923072e-02  1.6512909736233823e-02  1.6482032037747570e-02  1.6455788341077662e-02  1.6407256350582263e-02  3.2533356614134083e-02  3.2644893330927655e-02  1.6592521960216017e-02  1.6867038566460164e-02  1.8905132527867779e-02  5.2910183053849008e-02  8.5439465614471022e-01  9.8744854900910550e-01  9.8978377004938822e-01  9.9278514443341215e-01  9.9444606406628044e-01  9.9528675496918750e-01  9.9572097944785931e-01  9.9591645710855659e-01  9.9593394435370908e-01  9.9578444605481797e-01  9.9544393875324488e-01  9.9484617645756201e-01  9.9385236261215282e-01  9.9217030891227020e-01  9.8913358407839891e-01  9.8318519078495203e-01  9.6994049824800399e-01  9.2918261136016866e-01  7.1075495303516067e-01  4.3642728465678698e-01  1.2835063437375008e-01  4.1083371749203651e-02  2.5067715842160609e-02  1.9968987517197941e-02  1.7780611272025862e-02  1.7026360145746208e-02  1.6808217501531802e-02  1.6733944037694806e-02  1.6684623087773381e-02  1.6640167054721197e-02  1.6595761206130006e-02  1.6547932289941239e-02  1.6499892748629529e-02  1.6457990830161688e-02  1.6401589654721722e-02  3.2529512445789867e-02  3.2586259853885011e-02  1.6512154620346817e-02  1.6679675073459514e-02  1.7130278168334668e-02  2.1953605639640161e-02  1.3317843664469869e-01  9.7430909865197890e-01  9.8951836400313775e-01  9.895041287