<?xml version="1.0"?>
<VTKFile type="UnstructuredGrid"  version="0.1"  >
<UnstructuredGrid>
<Piece  NumberOfPoints="1681" NumberOfCells="3200">
<Points>
<DataArray  type="Float64"  NumberOfComponents="3"  format="ascii">0 0 0  0.025 0 0  0.05 0 0  0.075 0 0  0.1 0 0  0.125 0 0  0.15 0 0  0.175 0 0  0.2 0 0  0.225 0 0  0.25 0 0  0.275 0 0  0.3 0 0  0.325 0 0  0.35 0 0  0.375 0 0  0.4 0 0  0.425 0 0  0.45 0 0  0.475 0 0  0.5 0 0  0.525 0 0  0.55 0 0  0.575 0 0  0.6 0 0  0.625 0 0  0.65 0 0  0.675 0 0  0.7 0 0  0.725 0 0  0.75 0 0  0.775 0 0  0.8 0 0  0.825 0 0  0.85 0 0  0.875 0 0  0.9 0 0  0.925 0 0  0.95 0 0  0.975 0 0  1 0 0  0 0.025 0  0.025 0.025 0  0.05 0.025 0  0.075 0.025 0  0.1 0.025 0  0.125 0.025 0  0.15 0.025 0  0.175 0.025 0  0.2 0.025 0  0.225 0.025 0  0.25 0.025 0  0.275 0.025 0  0.3 0.025 0  0.325 0.025 0  0.35 0.025 0  0.375 0.025 0  0.4 0.025 0  0.425 0.025 0  0.45 0.025 0  0.475 0.025 0  0.5 0.025 0  0.525 0.025 0  0.55 0.025 0  0.575 0.025 0  0.6 0.025 0  0.625 0.025 0  0.65 0.025 0  0.675 0.025 0  0.7 0.025 0  0.725 0.025 0  0.75 0.025 0  0.775 0.025 0  0.8 0.025 0  0.825 0.025 0  0.85 0.025 0  0.875 0.025 0  0.9 0.025 0  0.925 0.025 0  0.95 0.025 0  0.975 0.025 0  1 0.025 0  0 0.05 0  0.025 0.05 0  0.05 0.05 0  0.075 0.05 0  0.1 0.05 0  0.125 0.05 0  0.15 0.05 0  0.175 0.05 0  0.2 0.05 0  0.225 0.05 0  0.25 0.05 0  0.275 0.05 0  0.3 0.05 0  0.325 0.05 0  0.35 0.05 0  0.375 0.05 0  0.4 0.05 0  0.425 0.05 0  0.45 0.05 0  0.475 0.05 0  0.5 0.05 0  0.525 0.05 0  0.55 0.05 0  0.575 0.05 0  0.6 0.05 0  0.625 0.05 0  0.65 0.05 0  0.675 0.05 0  0.7 0.05 0  0.725 0.05 0  0.75 0.05 0  0.775 0.05 0  0.8 0.05 0  0.825 0.05 0  0.85 0.05 0  0.875 0.05 0  0.9 0.05 0  0.925 0.05 0  0.95 0.05 0  0.975 0.05 0  1 0.05 0  0 0.075 0  0.025 0.075 0  0.05 0.075 0  0.075 0.075 0  0.1 0.075 0  0.125 0.075 0  0.15 0.075 0  0.175 0.075 0  0.2 0.075 0  0.225 0.075 0  0.25 0.075 0  0.275 0.075 0  0.3 0.075 0  0.325 0.075 0  0.35 0.075 0  0.375 0.075 0  0.4 0.075 0  0.425 0.075 0  0.45 0.075 0  0.475 0.075 0  0.5 0.075 0  0.525 0.075 0  0.55 0.075 0  0.575 0.075 0  0.6 0.075 0  0.625 0.075 0  0.65 0.075 0  0.675 0.075 0  0.7 0.075 0  0.725 0.075 0  0.75 0.075 0  0.775 0.075 0  0.8 0.075 0  0.825 0.075 0  0.85 0.075 0  0.875 0.075 0  0.9 0.075 0  0.925 0.075 0  0.95 0.075 0  0.975 0.075 0  1 0.075 0  0 0.1 0  0.025 0.1 0  0.05 0.1 0  0.075 0.1 0  0.1 0.1 0  0.125 0.1 0  0.15 0.1 0  0.175 0.1 0  0.2 0.1 0  0.225 0.1 0  0.25 0.1 0  0.275 0.1 0  0.3 0.1 0  0.325 0.1 0  0.35 0.1 0  0.375 0.1 0  0.4 0.1 0  0.425 0.1 0  0.45 0.1 0  0.475 0.1 0  0.5 0.1 0  0.525 0.1 0  0.55 0.1 0  0.575 0.1 0  0.6 0.1 0  0.625 0.1 0  0.65 0.1 0  0.675 0.1 0  0.7 0.1 0  0.725 0.1 0  0.75 0.1 0  0.775 0.1 0  0.8 0.1 0  0.825 0.1 0  0.85 0.1 0  0.875 0.1 0  0.9 0.1 0  0.925 0.1 0  0.95 0.1 0  0.975 0.1 0  1 0.1 0  0 0.125 0  0.025 0.125 0  0.05 0.125 0  0.075 0.125 0  0.1 0.125 0  0.125 0.125 0  0.15 0.125 0  0.175 0.125 0  0.2 0.125 0  0.225 0.125 0  0.25 0.125 0  0.275 0.125 0  0.3 0.125 0  0.325 0.125 0  0.35 0.125 0  0.375 0.125 0  0.4 0.125 0  0.425 0.125 0  0.45 0.125 0  0.475 0.125 0  0.5 0.125 0  0.525 0.125 0  0.55 0.125 0  0.575 0.125 0  0.6 0.125 0  0.625 0.125 0  0.65 0.125 0  0.675 0.125 0  0.7 0.125 0  0.725 0.125 0  0.75 0.125 0  0.775 0.125 0  0.8 0.125 0  0.825 0.125 0  0.85 0.125 0  0.875 0.125 0  0.9 0.125 0  0.925 0.125 0  0.95 0.125 0  0.975 0.125 0  1 0.125 0  0 0.15 0  0.025 0.15 0  0.05 0.15 0  0.075 0.15 0  0.1 0.15 0  0.125 0.15 0  0.15 0.15 0  0.175 0.15 0  0.2 0.15 0  0.225 0.15 0  0.25 0.15 0  0.275 0.15 0  0.3 0.15 0  0.325 0.15 0  0.35 0.15 0  0.375 0.15 0  0.4 0.15 0  0.425 0.15 0  0.45 0.15 0  0.475 0.15 0  0.5 0.15 0  0.525 0.15 0  0.55 0.15 0  0.575 0.15 0  0.6 0.15 0  0.625 0.15 0  0.65 0.15 0  0.675 0.15 0  0.7 0.15 0  0.725 0.15 0  0.75 0.15 0  0.775 0.15 0  0.8 0.15 0  0.825 0.15 0  0.85 0.15 0  0.875 0.15 0  0.9 0.15 0  0.925 0.15 0  0.95 0.15 0  0.975 0.15 0  1 0.15 0  0 0.175 0  0.025 0.175 0  0.05 0.175 0  0.075 0.175 0  0.1 0.175 0  0.125 0.175 0  0.15 0.175 0  0.175 0.175 0  0.2 0.175 0  0.225 0.175 0  0.25 0.175 0  0.275 0.175 0  0.3 0.175 0  0.325 0.175 0  0.35 0.175 0  0.375 0.175 0  0.4 0.175 0  0.425 0.175 0  0.45 0.175 0  0.475 0.175 0  0.5 0.175 0  0.525 0.175 0  0.55 0.175 0  0.575 0.175 0  0.6 0.175 0  0.625 0.175 0  0.65 0.175 0  0.675 0.175 0  0.7 0.175 0  0.725 0.175 0  0.75 0.175 0  0.775 0.175 0  0.8 0.175 0  0.825 0.175 0  0.85 0.175 0  0.875 0.175 0  0.9 0.175 0  0.925 0.175 0  0.95 0.175 0  0.975 0.175 0  1 0.175 0  0 0.2 0  0.025 0.2 0  0.05 0.2 0  0.075 0.2 0  0.1 0.2 0  0.125 0.2 0  0.15 0.2 0  0.175 0.2 0  0.2 0.2 0  0.225 0.2 0  0.25 0.2 0  0.275 0.2 0  0.3 0.2 0  0.325 0.2 0  0.35 0.2 0  0.375 0.2 0  0.4 0.2 0  0.425 0.2 0  0.45 0.2 0  0.475 0.2 0  0.5 0.2 0  0.525 0.2 0  0.55 0.2 0  0.575 0.2 0  0.6 0.2 0  0.625 0.2 0  0.65 0.2 0  0.675 0.2 0  0.7 0.2 0  0.725 0.2 0  0.75 0.2 0  0.775 0.2 0  0.8 0.2 0  0.825 0.2 0  0.85 0.2 0  0.875 0.2 0  0.9 0.2 0  0.925 0.2 0  0.95 0.2 0  0.975 0.2 0  1 0.2 0  0 0.225 0  0.025 0.225 0  0.05 0.225 0  0.075 0.225 0  0.1 0.225 0  0.125 0.225 0  0.15 0.225 0  0.175 0.225 0  0.2 0.225 0  0.225 0.225 0  0.25 0.225 0  0.275 0.225 0  0.3 0.225 0  0.325 0.225 0  0.35 0.225 0  0.375 0.225 0  0.4 0.225 0  0.425 0.225 0  0.45 0.225 0  0.475 0.225 0  0.5 0.225 0  0.525 0.225 0  0.55 0.225 0  0.575 0.225 0  0.6 0.225 0  0.625 0.225 0  0.65 0.225 0  0.675 0.225 0  0.7 0.225 0  0.725 0.225 0  0.75 0.225 0  0.775 0.225 0  0.8 0.225 0  0.825 0.225 0  0.85 0.225 0  0.875 0.225 0  0.9 0.225 0  0.925 0.225 0  0.95 0.225 0  0.975 0.225 0  1 0.225 0  0 0.25 0  0.025 0.25 0  0.05 0.25 0  0.075 0.25 0  0.1 0.25 0  0.125 0.25 0  0.15 0.25 0  0.175 0.25 0  0.2 0.25 0  0.225 0.25 0  0.25 0.25 0  0.275 0.25 0  0.3 0.25 0  0.325 0.25 0  0.35 0.25 0  0.375 0.25 0  0.4 0.25 0  0.425 0.25 0  0.45 0.25 0  0.475 0.25 0  0.5 0.25 0  0.525 0.25 0  0.55 0.25 0  0.575 0.25 0  0.6 0.25 0  0.625 0.25 0  0.65 0.25 0  0.675 0.25 0  0.7 0.25 0  0.725 0.25 0  0.75 0.25 0  0.775 0.25 0  0.8 0.25 0  0.825 0.25 0  0.85 0.25 0  0.875 0.25 0  0.9 0.25 0  0.925 0.25 0  0.95 0.25 0  0.975 0.25 0  1 0.25 0  0 0.275 0  0.025 0.275 0  0.05 0.275 0  0.075 0.275 0  0.1 0.275 0  0.125 0.275 0  0.15 0.275 0  0.175 0.275 0  0.2 0.275 0  0.225 0.275 0  0.25 0.275 0  0.275 0.275 0  0.3 0.275 0  0.325 0.275 0  0.35 0.275 0  0.375 0.275 0  0.4 0.275 0  0.425 0.275 0  0.45 0.275 0  0.475 0.275 0  0.5 0.275 0  0.525 0.275 0  0.55 0.275 0  0.575 0.275 0  0.6 0.275 0  0.625 0.275 0  0.65 0.275 0  0.675 0.275 0  0.7 0.275 0  0.725 0.275 0  0.75 0.275 0  0.775 0.275 0  0.8 0.275 0  0.825 0.275 0  0.85 0.275 0  0.875 0.275 0  0.9 0.275 0  0.925 0.275 0  0.95 0.275 0  0.975 0.275 0  1 0.275 0  0 0.3 0  0.025 0.3 0  0.05 0.3 0  0.075 0.3 0  0.1 0.3 0  0.125 0.3 0  0.15 0.3 0  0.175 0.3 0  0.2 0.3 0  0.225 0.3 0  0.25 0.3 0  0.275 0.3 0  0.3 0.3 0  0.325 0.3 0  0.35 0.3 0  0.375 0.3 0  0.4 0.3 0  0.425 0.3 0  0.45 0.3 0  0.475 0.3 0  0.5 0.3 0  0.525 0.3 0  0.55 0.3 0  0.575 0.3 0  0.6 0.3 0  0.625 0.3 0  0.65 0.3 0  0.675 0.3 0  0.7 0.3 0  0.725 0.3 0  0.75 0.3 0  0.775 0.3 0  0.8 0.3 0  0.825 0.3 0  0.85 0.3 0  0.875 0.3 0  0.9 0.3 0  0.925 0.3 0  0.95 0.3 0  0.975 0.3 0  1 0.3 0  0 0.325 0  0.025 0.325 0  0.05 0.325 0  0.075 0.325 0  0.1 0.325 0  0.125 0.325 0  0.15 0.325 0  0.175 0.325 0  0.2 0.325 0  0.225 0.325 0  0.25 0.325 0  0.275 0.325 0  0.3 0.325 0  0.325 0.325 0  0.35 0.325 0  0.375 0.325 0  0.4 0.325 0  0.425 0.325 0  0.45 0.325 0  0.475 0.325 0  0.5 0.325 0  0.525 0.325 0  0.55 0.325 0  0.575 0.325 0  0.6 0.325 0  0.625 0.325 0  0.65 0.325 0  0.675 0.325 0  0.7 0.325 0  0.725 0.325 0  0.75 0.325 0  0.775 0.325 0  0.8 0.325 0  0.825 0.325 0  0.85 0.325 0  0.875 0.325 0  0.9 0.325 0  0.925 0.325 0  0.95 0.325 0  0.975 0.325 0  1 0.325 0  0 0.35 0  0.025 0.35 0  0.05 0.35 0  0.075 0.35 0  0.1 0.35 0  0.125 0.35 0  0.15 0.35 0  0.175 0.35 0  0.2 0.35 0  0.225 0.35 0  0.25 0.35 0  0.275 0.35 0  0.3 0.35 0  0.325 0.35 0  0.35 0.35 0  0.375 0.35 0  0.4 0.35 0  0.425 0.35 0  0.45 0.35 0  0.475 0.35 0  0.5 0.35 0  0.525 0.35 0  0.55 0.35 0  0.575 0.35 0  0.6 0.35 0  0.625 0.35 0  0.65 0.35 0  0.675 0.35 0  0.7 0.35 0  0.725 0.35 0  0.75 0.35 0  0.775 0.35 0  0.8 0.35 0  0.825 0.35 0  0.85 0.35 0  0.875 0.35 0  0.9 0.35 0  0.925 0.35 0  0.95 0.35 0  0.975 0.35 0  1 0.35 0  0 0.375 0  0.025 0.375 0  0.05 0.375 0  0.075 0.375 0  0.1 0.375 0  0.125 0.375 0  0.15 0.375 0  0.175 0.375 0  0.2 0.375 0  0.225 0.375 0  0.25 0.375 0  0.275 0.375 0  0.3 0.375 0  0.325 0.375 0  0.35 0.375 0  0.375 0.375 0  0.4 0.375 0  0.425 0.375 0  0.45 0.375 0  0.475 0.375 0  0.5 0.375 0  0.525 0.375 0  0.55 0.375 0  0.575 0.375 0  0.6 0.375 0  0.625 0.375 0  0.65 0.375 0  0.675 0.375 0  0.7 0.375 0  0.725 0.375 0  0.75 0.375 0  0.775 0.375 0  0.8 0.375 0  0.825 0.375 0  0.85 0.375 0  0.875 0.375 0  0.9 0.375 0  0.925 0.375 0  0.95 0.375 0  0.975 0.375 0  1 0.375 0  0 0.4 0  0.025 0.4 0  0.05 0.4 0  0.075 0.4 0  0.1 0.4 0  0.125 0.4 0  0.15 0.4 0  0.175 0.4 0  0.2 0.4 0  0.225 0.4 0  0.25 0.4 0  0.275 0.4 0  0.3 0.4 0  0.325 0.4 0  0.35 0.4 0  0.375 0.4 0  0.4 0.4 0  0.425 0.4 0  0.45 0.4 0  0.475 0.4 0  0.5 0.4 0  0.525 0.4 0  0.55 0.4 0  0.575 0.4 0  0.6 0.4 0  0.625 0.4 0  0.65 0.4 0  0.675 0.4 0  0.7 0.4 0  0.725 0.4 0  0.75 0.4 0  0.775 0.4 0  0.8 0.4 0  0.825 0.4 0  0.85 0.4 0  0.875 0.4 0  0.9 0.4 0  0.925 0.4 0  0.95 0.4 0  0.975 0.4 0  1 0.4 0  0 0.425 0  0.025 0.425 0  0.05 0.425 0  0.075 0.425 0  0.1 0.425 0  0.125 0.425 0  0.15 0.425 0  0.175 0.425 0  0.2 0.425 0  0.225 0.425 0  0.25 0.425 0  0.275 0.425 0  0.3 0.425 0  0.325 0.425 0  0.35 0.425 0  0.375 0.425 0  0.4 0.425 0  0.425 0.425 0  0.45 0.425 0  0.475 0.425 0  0.5 0.425 0  0.525 0.425 0  0.55 0.425 0  0.575 0.425 0  0.6 0.425 0  0.625 0.425 0  0.65 0.425 0  0.675 0.425 0  0.7 0.425 0  0.725 0.425 0  0.75 0.425 0  0.775 0.425 0  0.8 0.425 0  0.825 0.425 0  0.85 0.425 0  0.875 0.425 0  0.9 0.425 0  0.925 0.425 0  0.95 0.425 0  0.975 0.425 0  1 0.425 0  0 0.45 0  0.02
[...]
<PointData  Scalars="ControlVisualisation"> 
<DataArray  type="Float64"  Name="ControlVisualisation"  format="ascii">1.0127503366260474e-01  7.0820954428960414e-02  7.0850442154634485e-02  7.0913447937425739e-02  7.1013933891602862e-02  7.1145627466332698e-02  7.1294401557431400e-02  7.1445113767813276e-02  7.1586287105477889e-02  7.1711051091146297e-02  7.1815965326177761e-02  7.1899552041205642e-02  7.1961358067531192e-02  7.2001565186357849e-02  7.2020897004010848e-02  7.2020604969659105e-02  7.2002424538231261e-02  7.1968475657496395e-02  7.1921125023738083e-02  7.1862840647528903e-02  7.1796064426664516e-02  7.1723116421345101e-02  7.1646133005233772e-02  7.1567033711843406e-02  7.1487508872867325e-02  7.1409020596742298e-02  7.1332811543110497e-02  7.1259917990806818e-02  7.1191185259624395e-02  7.1127284509864802e-02  7.1068730413061526e-02  7.1015899382244979e-02  7.0969048193227635e-02  7.0928332541347963e-02  7.0893826121274872e-02  7.0865537192642977e-02  7.0843433108760484e-02  7.0827438388831737e-02  7.0817526712235249e-02  7.0813440290127469e-02  1.7203411724110404e-01  7.0819692266601619e-02  3.7032125465280674e-02  3.7084015561620241e-02  3.7194532869813821e-02  3.7376140754191774e-02  3.7622477565080054e-02  3.7912380975510265e-02  3.8220309074956972e-02  3.8524422634995489e-02  3.8809054979142658e-02  3.9063411932833650e-02  3.9279668969333617e-02  3.9451998211646966e-02  3.9576497781528185e-02  3.9651461778735964e-02  3.9677541851946947e-02  3.9657613898260204e-02  3.9596362368161629e-02  3.9499697589730605e-02  3.9374144556001363e-02  3.9226311828676169e-02  3.9062497262018658e-02  3.8888438985184057e-02  3.8709189239012121e-02  3.8529076787777915e-02  3.8351725053021340e-02  3.8180100830410152e-02  3.8016577155611402e-02  3.7863000854985118e-02  3.7720759910777502e-02  3.7590848358707366e-02  3.7473927723101340e-02  3.7370384655559197e-02  3.7280384499881136e-02  3.7203921761741615e-02  3.7140864922672844e-02  3.7091003931494962e-02  3.7054075719772213e-02  3.7029763222565258e-02  3.7016228647206197e-02  7.0813440484056078e-02  7.0833533931376577e-02  3.7067423069293406e-02  3.7156928919626159e-02  3.7325903605989523e-02  3.7597734855408606e-02  3.7956796946294183e-02  3.8370983479084547e-02  3.8807104941123036e-02  3.9239554080040574e-02  3.9650033542628860e-02  4.0024032909128378e-02  4.0348639871162981e-02  4.0612513692336615e-02  4.0806958530156541e-02  4.0927027394646633e-02  4.0972093013974475e-02  4.0945716311823706e-02  4.0854906454444659e-02  4.0709022135103398e-02  4.0518603523623201e-02  4.0294362137761434e-02  4.0046444760349971e-02  3.9783985219159428e-02  3.9514894683786328e-02  3.9245818857409326e-02  3.8982195660030389e-02  3.8728364074778733e-02  3.8487692945706656e-02  3.8262712481464366e-02  3.8055240104513902e-02  3.7866497184281089e-02  3.7697215568508573e-02  3.7547734012011988e-02  3.7418084954266628e-02  3.7308073594776316e-02  3.7217346505805986e-02  3.7145465195498106e-02  3.7091903462319935e-02  3.7055736434978268e-02  3.7029703852719677e-02  7.0817519443592269e-02  7.0836839439231761e-02  3.7110684273275366e-02  3.7267535631889850e-02  3.7534521064583437e-02  3.7909926133320913e-02  3.8354016939773992e-02  3.8822360029955788e-02  3.9286328872878522e-02  3.9732035442122587e-02  4.0149925483375058e-02  4.0528447248221001e-02  4.0854030186925808e-02  4.1113697773630151e-02  4.1297493756839124e-02  4.1399994940448534e-02  4.1420927210760954e-02  4.1364930935542624e-02  4.1240591412204590e-02  4.1059033863248579e-02  4.0832469772700733e-02  4.0572993900862206e-02  4.0291766135087191e-02  3.9998569763563432e-02  3.9701659611210624e-02  3.9407794965763514e-02  3.9122369209819083e-02  3.8849576875329327e-02  3.8592584956739853e-02  3.8353693354332224e-02  3.8134479459961956e-02  3.7935926575562232e-02  3.7758537524634164e-02  3.7602435302127098e-02  3.7467452485987866e-02  3.7353212200630995e-02  3.7259199095990930e-02  3.7184829793977220e-02  3.7129403945769100e-02  3.7091213295340715e-02  3.7053625242416822e-02  7.0827346738735822e-02  7.0786798485987679e-02  3.7130511482676452e-02  3.7591912656664055e-02  3.8220934884365593e-02  3.8853976422665325e-02  3.9396093455135658e-02  3.9844959486056340e-02  4.0242596623125564e-02  4.0617903983741405e-02  4.0976207144532824e-02  4.1304951975339906e-02  4.1584617487688651e-02  4.1797692861591969e-02  4.1932131537855521e-02  4.1982077692622070e-02  4.1947934406919372e-02  4.1835825466492733e-02  4.1656221824775491e-02  4.1422084969720538e-02  4.1147073671429460e-02  4.0844183572039172e-02  4.0524935120571634e-02  4.0199039850507177e-02  3.9874393134783040e-02  3.9557241771055449e-02  3.9252415653768913e-02  3.8963560144183139e-02  3.8693341963484763e-02  3.8443622765010448e-02  3.8215603999860945e-02  3.8009949154483982e-02  3.7826888817911956e-02  3.7666312763164018e-02  3.7527852031567110e-02  3.7410954396816534e-02  3.7314951661962588e-02  3.7239123312652896e-02  3.7182588899410375e-02  3.7142618330070133e-02  3.7089271027584594e-02  7.0842989868938430e-02  7.2350261848899672e-02  3.8317508739872871e-02  4.1360281962948442e-02  4.4211054875593611e-02  4.5719677435810152e-02  4.5152386907845662e-02  4.3790195578260221e-02  4.2904365297539077e-02  4.2563312029096870e-02  4.2533893717155435e-02  4.2632997226019008e-02  4.2751143068178350e-02  4.2832317087168593e-02  4.2849513964650483e-02  4.2790753464821613e-02  4.2654478535458576e-02  4.2447207841277229e-02  4.2180734270089608e-02  4.1869255892455375e-02  4.1527067276859911e-02  4.1167075923898386e-02  4.0800111097953902e-02  4.0434815350854657e-02  4.0077863783882520e-02  3.9734303978771687e-02  3.9407891300530996e-02  3.9101365609838887e-02  3.8816660717825073e-02  3.8555058873567777e-02  3.8317307510012381e-02  3.8103712716958026e-02  3.7914219109759457e-02  3.7748481793294951e-02  3.7605933566437502e-02  3.7485850131679398e-02  3.7387410751838879e-02  3.7309751573907673e-02  3.7251785176724020e-02  3.7209522628613663e-02  3.7136087148359261e-02  7.0864160442475746e-02  7.8579538647640973e-02  5.5531419309716418e-02  1.1573595814525856e-01  1.6188718566825994e-01  1.5917903466433267e-01  1.2234257343399672e-01  8.5201030038307105e-02  6.3249177882288135e-02  5.1545990201186054e-02  4.6710848210372954e-02  4.5223665682242925e-02  4.4727233858305029e-02  4.4463544902840220e-02  4.4230131461514409e-02  4.3963095149653103e-02  4.3644854818757073e-02  4.3277999180128007e-02  4.2873710018826457e-02  4.2445721975460031e-02  4.2007070702765020e-02  4.1568583149030391e-02  4.1138507735273507e-02  4.0722787275293423e-02  4.0325574617324077e-02  3.9949744623241988e-02  3.9597290579425348e-02  3.9269585259525175e-02  3.8967533311972266e-02  3.8691654548418060e-02  3.8442132336256873e-02  3.8218849706723568e-02  3.8021425010623500e-02  3.7849251821618322e-02  3.7701544104874488e-02  3.7577386873570519e-02  3.7475786730027265e-02  3.7395708359205741e-02  3.7335806865971703e-02  3.7290626254535705e-02  3.7193155658074052e-02  7.0890493923308276e-02  8.8081525260717397e-01  8.7212485430960907e-01  8.9222866323395300e-01  8.8312495074266006e-01  8.4506566606881128e-01  7.7774345146123547e-01  6.3724338249081580e-01  3.5150468817217390e-01  1.6088615902754316e-01  8.1918918711683386e-02  5.7242695654813380e-02  4.9560029809461156e-02  4.7334788354923905e-02  4.6392755097328535e-02  4.5710948495169379e-02  4.5072464049350523e-02  4.4438500945257926e-02  4.3812201845799106e-02  4.3204043595153320e-02  4.2622572668417728e-02  4.2072747434154546e-02  4.1556629892725842e-02  4.1074482780472071e-02  4.0625692911189240e-02  4.0209381138867697e-02  3.9824719286731890e-02  3.9471031460093217e-02  3.9147767812480021e-02  3.8854424858605130e-02  3.8590461715862230e-02  3.8355237488046853e-02  3.8147977448636461e-02  3.7967766115448422e-02  3.7813561876404264e-02  3.7684227680655304e-02  3.7578566070768940e-02  3.7495328931454186e-02  3.7432851036204841e-02  3.7384055456321966e-02  3.7259186868577918e-02  7.0921456229064830e-02  9.8348727431996974e-01  9.8855924562792030e-01  9.8522079797575957e-01  9.8012901491061377e-01  9.7280939351318119e-01  9.6054844548343588e-01  9.3607283555188914e-01  8.8386426708214672e-01  7.6828362027815111e-01  4.4914923415239744e-01  1.8496194565575225e-01  8.5871290655532950e-02  5.8244542465702334e-02  5.0844060887300646e-02  4.8496323730441368e-02  4.7171273309754805e-02  4.6082584483437716e-02  4.5100002276493127e-02  4.4211140220914186e-02  4.3414800794399876e-02  4.2704305645830463e-02  4.2069254036195255e-02  4.1498854748103546e-02  4.0983771896544535e-02  4.0516716282920341e-02  4.0092362060801488e-02  3.9706971601089991e-02  3.9357945004478118e-02  3.9043408261565313e-02  3.8761890189932743e-02  3.8512097996547340e-02  3.8292779155908764e-02  3.8102649226754867e-02  3.7940365997168150e-02  3.7804533629330624e-02  3.7693714769619656e-02  3.7606400566362282e-02  3.7540538717141844e-02  3.7487354033177774e-02  3.7332487492309656e-02  7.0956343933878674e-02  9.9124464642222210e-01  9.9463972829830460e-01  9.9298508487852755e-01  9.9057621415281061e-01  9.8739620213714485e-01  9.8306598969782333e-01  9.7643561492501996e-01  9.6467858371335513e-01  9.4221066510780904e-01  8.9752874135069038e-01  7.6417734338675591e-01  3.8438686377356474e-01  1.5471852082237159e-01  7.5484381709842271e-02  5.5756525164691866e-02  5.0639078410947724e-02  4.8448372841305633e-02  4.6869179770802648e-02  4.5550888169831945e-02  4.4434998661857981e-02  4.3492671668142718e-02  4.2692545072749825e-02  4.2004648623773851e-02  4.1404575777779860e-02  4.0874361523188484e-02  4.0401582239204606e-02  3.9977954059500574e-02  3.9598012911962653e-02  3.9258071979432659e-02  3.8955481360367090e-02  3.8688145695537267e-02  3.8454234500453877e-02  3.8252023190307113e-02  3.8079816588151377e-02  3.7935919534543922e-02  3.7818616969032125e-02  3.7726088864384298e-02  3.7655833633480518e-02  3.7597401033467787e-02  3.7410907681998493e-02  7.0994256553007701e-02  9.9236595468930733e-01  9.9574036894628726e-01  9.9459470778753101e-01  9.9295328308870934e-01  9.9092050609834892e-01  9.8846098387522308e-01  9.8530617990573521e-01  9.8071826559372344e-01  9.7334657126914814e-01  9.6114720867320425e-01  9.3866388159341851e-01  8.7723415397823612e-01  6.4889591676460601e-01  2.7158694418084223e-01  1.0406483224009648e-01  6.1981499518831792e-02  5.2518257820197166e-02  4.9329976779119586e-02  4.7310326058491219e-02  4.5737221830464928e-02  4.4471855283730453e-02  4.3446313160183388e-02  4.2602712326945000e-02  4.1893831903520272e-02  4.1285224049411991e-02  4.0753672104634486e-02  4.0284246957815892e-02  3.9867511987033998e-02  3.9497397753374200e-02  3.9169769809175164e-02  3.8881545426309845e-02  3.8630189099441978e-02  3.8413443255926702e-02  3.8229192358567060e-02  3.8075393333899192e-02  3.7950013205754675e-02  3.7850872429845403e-02  3.7774975376668130e-02  3.7710349479060892e-02  3.7491798114238861e-02  7.1034076610404159e-02  9.9007321506353274e-01  9.9502341548904139e-01  9.9408997672413046e-01  9.9282059735231176e-01  9.9136687260766099e-01  9.8975515435114958e-01  9.8787936925879460e-01  9.8544554243090998e-01  9.8196664981343795e-01  9.7682285729801510e-01  9.6902860710162053e-01  9.5441148094084527e-01  9.1533662921765990e-01  7.9767081206929757e-01  4.3931696963779499e-01  1.4220750346155792e-01  6.7940695463591966e-02  5.3679176814381016e-02  4.9643681983685496e-02  4.7356175455892754e-02  4.5667651443351658e-02  4.4352261255963837e-02  4.3308380211389462e-02  4.2461051312823045e-02  4.1754600457185286e-02  4.1151120588966111e-02  4.0626480148819907e-02  4.0165814094170652e-02  3.9759891528455479e-02  3.9402660012399296e-02  3.9089774050759585e-02  3.8817795129143996e-02  3.8583785425961949e-02  3.8385103889275456e-02  3.8219289377583253e-02  3.8083944097955652e-02  3.7976489368254478e-02  3.7893428740280531e-02  3.7821582852697516e-02  3.7571974928933681e-02  7.1074447565676949e-02  9.7649426316352017e-01  9.9062298517538305e-01  9.9057974679608796e-01  9.9019887643134930e-01  9.8961459421134124e-01  9.8889232207235822e-01  9.8797885989918011e-01  9.8672365880629687e-01  9.8492022506917398e-01  9.8233331036940896e-01  9.7866046980210342e-01  9.7287694778063394e-01  9.6073223936206631e-01  9.3012806584839747e-01  8.5696081804237312e-01  5.9111698306327187e-01  1.7613723922043065e-01  7.1161614522983224e-02  5.3809499210460875e-02  4.9394711067207102e-02  4.7079053267895014e-02  4.5421541555085751e-02  4.4140879700606518e-02  4.3123511480852833e-02  4.2294306581813053e-02  4.1600473604066796e-02  4.1007219772890575e-02  4.0492792585571417e-02  4.0043723311301481e-02  3.9651303808879559e-02  3.9309404778113538e-02  3.9013297484154767e-02  3.8759077091653431e-02  3.8543379222338775e-02  3.8363201530595685e-02  3.8215714508264234e-02  3.8097916808521287e-02  3.8005872886005904e-02  3.7925712383583055e-02  3.7647704990323785e-02  7.1113754420344968e-02  5.7184602765366077e-01  9.5026175307025940e-01  9.7301777767052056e-01  9.8077389094580092e-01  9.8402754770930045e-01  9.8554880883799612e-01  9.8617311840082178e-01  9.8617601078820871e-01  9.8563257254112113e-01  9.8452682132252778e-01  9.8277004174968341e-01  9.8002400778184229e-01  9.7481500862032677e-01  9.6265681390994773e-01  9.3438399672787820e-01  8.7299169503478957e-01  6.3773307204717467e-01  1.8557009993168833e-01  7.0730009651076994e-02  5.3069449148687234e-02  4.8794504934453656e-02  4.6646317833778352e-02  4.5113177957519117e-02  4.3906840386332809e-02  4.2927970358332852e-02  4.2117590699958150e-02  4.1434522404041919e-02  4.0850659875759025e-02  4.0347371342230730e-02  3.9912101705032739e-02  3.9535854601623857e-02  3.9211734257904231e-02  3.8934244316605963e-02  3.8698899853442610e-02  3.8501914052066738e-02  3.8339895948680439e-02  3.8209412718308598e-02  3.8106261587498511e-02  3.8016640178766561e-02  3.7714722340548595e-02  7.1150108401128606e-02  7.8644796569812367e-02  1.9196196744893967e-01  8.4370452320737732e-01  9.3612308445061276e-01  9.6777864584246798e-01  9.7797059540739217e-01  9.8225726774944100e-01  9.8432589323721098e-01  9.8524939441801840e-01  9.8541923039564683e-01  9.8494363664600504e-01  9.8372829469015277e-01  9.8122551061528185e-01  9.7545823046479074e-01  9.6162557668028437e-01  9.3129035401986515e-01  8.6237493041549496e-01  5.9733480706773245e-01  1.7231207322913164e-01  6.8209715167421067e-02  5.2018565496732283e-02  4.8143854160178155e-02  4.6229647039578714e-02  4.4830934339698689e-02  4.3687324118095332e-02  4.2730544560380043e-02  4.1926101315032611e-02  4.1247029520508224e-02  4.0671277610860347e-02  4.0181329773827094e-02  3.9763382301010480e-02  3.9406633251652147e-02  3.9102767147244359e-02  3.8845371327443874e-02  3.8629338371191362e-02  3.8450408236802951e-02  3.8304681397254604e-02  3.8188010218239560e-02  3.8087722133337276e-02  3.7768287130735857e-02  7.1181337286234228e-02  7.1944440899327722e-02  4.9371007269632526e-02  2.5221989224946967e-01  7.2951392060351716e-01  9.2466558589257331e-01  9.6490042149872113e-01  9.7654184741103067e-01  9.8180421884651314e-01  9.8445828536424040e-01  9.8585896512325311e-01  9.8641916418333786e-01  9.8617305894558493e-01  9.8494273923232278e-01  9.8191757544599390e-01  9.7460222189697021e-01  9.5786070649673472e-01  9.2216867475384245e-01  8.3116715767469462e-01  5.1846304574669400e-01  1.5569028771355620e-01  6.6248726570671643e-02  5.1290806996619615e-02  4.7672658176261692e-02  4.5905144116066741e-02  4.4578982149296995e-02  4.3457996102079566e-02  4.2501127721726206e-02  4.1693744542165977e-02  4.1018496560116233e-02  4.0455336306184815e-02  3.9984735784050020e-02  3.9589573043880617e-02  3.9256269183633223e-02  3.8974973048072854e-02  3.8738416304477830e-02  3.8540759634228490e-02  3.8377293673486822e-02  3.8244406793380939e-02  3.8132070601636738e-02  3.7803288948569963e-02  7.1204977219823717e-02  7.2462976702700410e-02  4.2813959241850559e-02  6.2202581145939032e-02  2.3234097010738264e-01  7.5277892231429855e-01  8.9760070843458006e-01  9.5760907254347150e-01  9.7485417086859583e-01  9.8149778436494528e-01  9.8490987048080425e-01  9.8687855299891991e-01  9.8766047694969761e-01  9.8728968498359859e-01  9.8555961589669272e-01  9.8137301227507023e-01  9.7190005008604030e-01  9.5225528391334313e-01  9.1098956269920817e-01  7.9684694743932882e-01  4.6415689316569514e-01  1.5250806390984528e-01  6.7639349944819502e-02  5.1506372348432986e-02  4.7480160248259400e-02  4.5616731815415250e-02  4.4260838966729908e-02  4.3128371256158295e-02  4.2170180995997751e-02  4.1372836156808951e-02  4.0719957898531778e-02  4.0187504794082354e-02  3.9748778668632266e-02  3.9382774138529267e-02  3.9076683992053808e-02  3.8820559903280885e-02  3.8604529211038116e-02  3.8421571589373510e-02  3.8269413549375027e-02  3.8143036019032864e-02  3.7814364090052441e-02  7.1218245915918410e-02  7.2783211570512069e-02  4.2696016437664346e-02  4.9339499682130201e-02  6.7667218286066561e-02  2.2108892745402059e-01  8.3180778492945140e-01  9.0499085902203158e-01  9.5477980913197535e-01  9.7125584223031902e-01  9.7886092642890732e-01  9.8376025338605877e-01  9.8678929132035198e-01  9.8788495129366294e-01  9.8726085908532935e-01  9.8473824054331704e-01  9.7912114700288477e-01  9.6807624311053642e-01  9.4803049170508313e-01  9.0665788901105993e-01  7.8963059257312340e-01  4.7475031339411888e-01  1.7892657052120423e-01  7.7561410354713381e-02  5.4100984512810125e-02  4.7891350335891716e-02  4.5390654582712388e-02  4.3825071838601445e-02  4.2636494787087711e-02  4.1689331941479266e-02  4.0934393608171242e-02  4.0334313585915472e-02  3.9850804744984356e-02  3.9454272790958540e-02  3.9129252467762082e-02  3.8862256054353034e-02  3.8634907785251013e-02  3.8434032256112097e-02  3.8259148631596407e-02  3.8114864753926767e-02  3.7795957183699352e-02  7.1217955901066443e-02  7.2855720614930369e-02  4.2839469195431905e-02  4.7922077681732032e-02  5.2509325149661459e-02  6.9816759833778594e-02  2.0532541637232207e-01  9.0384628561383185e-01  9.1525211310408472e-01  9.5892559263426669e-01  9.7111478329668222e-01  9.7563363967315864e-01  9.8062426596973584e-01  9.8477310626644843e-01  9.8633372593434832e-01  9.8547404134330896e-01  9.8223293809004697e-01  9.7599853875366294e-01  9.6588332737995397e-01  9.4968853918889251e-01  9.1764548255377854e-01  8.3062762116820399e-01  5.8270726280485063e-01  2.5928597113863505e-01  1.1272025487353389e-01  6.5503164682584741e-02  5.1359015449986452e-02  4.6335185494933755e-02  4.3899734783274212e-02  4.2351717100856154e-02  4.1258701777740020e-02  4.0481677015517054e-02  3.9910128577619226e-02  3.9453250312058125e-02  3.9091231621871975e-02  3.8828190094955160e-02  3.8618918158919775e-02  3.8414470699873221e-02  3.8213346485214753e-02  3.8043439745761805e-02  3.7742217462396747e-02  7.1200253854504264e-02  7.2690791500549676e-02  4.2425437043441171e-02  4.6748452251255533e-02  4.9380385897227423e-02  5.3778895546101865e-02  7.0235681628376997e-02  1.9036753626238562e-01  9.4377577421538361e-01  9.2118029877387153e-01  9.6347992274292737e-01  9.7135782962231954e-01  9.7158864141924328e-01  9.7558238280274989e-01  9.8070142340343525e-01  9.8295921403693720e-01  9.8231410362067617e-01  9.7943176882674843e-01  9.7469717195002503e-01  9.6809593048918563e-01  9.5828619442190033e-01  9.4023845055540034e-01  8.9738129150360624e-01  7.7215968595556794e-01  4.7502909922746844e-01  2.1784037783607282e-01  1.1154679803199308e-01  7.0073979043857773e-02  5.4157029895585365e-02  4.7541102213029422e-02  4.4402809616109574e-02  4.2491596583336615e-02  4.0991946812257693e-02  3.9801315672094821e-02  3.9049886875408113e-02  3.8711026754915744e-02  3.8538850353157350e-02  3.8350445210611393e-02  3.8132628506383562e-02  3.7928032424688576e-02  3.7646458717496417e-02  7.1160085309984300e-02  7.2385939251758666e-02  4.1629674132471775e-02  4.5196534292677809e-02  4.7043862548579604e-02  4.9562545423567153e-02  5.3936715572725426e-02  6.9489098252489168e-02  1.8220529360236551e-01  9.737824545