<?xml version="1.0"?>
<VTKFile type="UnstructuredGrid"  version="0.1"  >
<UnstructuredGrid>
<Piece  NumberOfPoints="1681" NumberOfCells="3200">
<Points>
<DataArray  type="Float64"  NumberOfComponents="3"  format="ascii">0 0 0  0.025 0 0  0.05 0 0  0.075 0 0  0.1 0 0  0.125 0 0  0.15 0 0  0.175 0 0  0.2 0 0  0.225 0 0  0.25 0 0  0.275 0 0  0.3 0 0  0.325 0 0  0.35 0 0  0.375 0 0  0.4 0 0  0.425 0 0  0.45 0 0  0.475 0 0  0.5 0 0  0.525 0 0  0.55 0 0  0.575 0 0  0.6 0 0  0.625 0 0  0.65 0 0  0.675 0 0  0.7 0 0  0.725 0 0  0.75 0 0  0.775 0 0  0.8 0 0  0.825 0 0  0.85 0 0  0.875 0 0  0.9 0 0  0.925 0 0  0.95 0 0  0.975 0 0  1 0 0  0 0.025 0  0.025 0.025 0  0.05 0.025 0  0.075 0.025 0  0.1 0.025 0  0.125 0.025 0  0.15 0.025 0  0.175 0.025 0  0.2 0.025 0  0.225 0.025 0  0.25 0.025 0  0.275 0.025 0  0.3 0.025 0  0.325 0.025 0  0.35 0.025 0  0.375 0.025 0  0.4 0.025 0  0.425 0.025 0  0.45 0.025 0  0.475 0.025 0  0.5 0.025 0  0.525 0.025 0  0.55 0.025 0  0.575 0.025 0  0.6 0.025 0  0.625 0.025 0  0.65 0.025 0  0.675 0.025 0  0.7 0.025 0  0.725 0.025 0  0.75 0.025 0  0.775 0.025 0  0.8 0.025 0  0.825 0.025 0  0.85 0.025 0  0.875 0.025 0  0.9 0.025 0  0.925 0.025 0  0.95 0.025 0  0.975 0.025 0  1 0.025 0  0 0.05 0  0.025 0.05 0  0.05 0.05 0  0.075 0.05 0  0.1 0.05 0  0.125 0.05 0  0.15 0.05 0  0.175 0.05 0  0.2 0.05 0  0.225 0.05 0  0.25 0.05 0  0.275 0.05 0  0.3 0.05 0  0.325 0.05 0  0.35 0.05 0  0.375 0.05 0  0.4 0.05 0  0.425 0.05 0  0.45 0.05 0  0.475 0.05 0  0.5 0.05 0  0.525 0.05 0  0.55 0.05 0  0.575 0.05 0  0.6 0.05 0  0.625 0.05 0  0.65 0.05 0  0.675 0.05 0  0.7 0.05 0  0.725 0.05 0  0.75 0.05 0  0.775 0.05 0  0.8 0.05 0  0.825 0.05 0  0.85 0.05 0  0.875 0.05 0  0.9 0.05 0  0.925 0.05 0  0.95 0.05 0  0.975 0.05 0  1 0.05 0  0 0.075 0  0.025 0.075 0  0.05 0.075 0  0.075 0.075 0  0.1 0.075 0  0.125 0.075 0  0.15 0.075 0  0.175 0.075 0  0.2 0.075 0  0.225 0.075 0  0.25 0.075 0  0.275 0.075 0  0.3 0.075 0  0.325 0.075 0  0.35 0.075 0  0.375 0.075 0  0.4 0.075 0  0.425 0.075 0  0.45 0.075 0  0.475 0.075 0  0.5 0.075 0  0.525 0.075 0  0.55 0.075 0  0.575 0.075 0  0.6 0.075 0  0.625 0.075 0  0.65 0.075 0  0.675 0.075 0  0.7 0.075 0  0.725 0.075 0  0.75 0.075 0  0.775 0.075 0  0.8 0.075 0  0.825 0.075 0  0.85 0.075 0  0.875 0.075 0  0.9 0.075 0  0.925 0.075 0  0.95 0.075 0  0.975 0.075 0  1 0.075 0  0 0.1 0  0.025 0.1 0  0.05 0.1 0  0.075 0.1 0  0.1 0.1 0  0.125 0.1 0  0.15 0.1 0  0.175 0.1 0  0.2 0.1 0  0.225 0.1 0  0.25 0.1 0  0.275 0.1 0  0.3 0.1 0  0.325 0.1 0  0.35 0.1 0  0.375 0.1 0  0.4 0.1 0  0.425 0.1 0  0.45 0.1 0  0.475 0.1 0  0.5 0.1 0  0.525 0.1 0  0.55 0.1 0  0.575 0.1 0  0.6 0.1 0  0.625 0.1 0  0.65 0.1 0  0.675 0.1 0  0.7 0.1 0  0.725 0.1 0  0.75 0.1 0  0.775 0.1 0  0.8 0.1 0  0.825 0.1 0  0.85 0.1 0  0.875 0.1 0  0.9 0.1 0  0.925 0.1 0  0.95 0.1 0  0.975 0.1 0  1 0.1 0  0 0.125 0  0.025 0.125 0  0.05 0.125 0  0.075 0.125 0  0.1 0.125 0  0.125 0.125 0  0.15 0.125 0  0.175 0.125 0  0.2 0.125 0  0.225 0.125 0  0.25 0.125 0  0.275 0.125 0  0.3 0.125 0  0.325 0.125 0  0.35 0.125 0  0.375 0.125 0  0.4 0.125 0  0.425 0.125 0  0.45 0.125 0  0.475 0.125 0  0.5 0.125 0  0.525 0.125 0  0.55 0.125 0  0.575 0.125 0  0.6 0.125 0  0.625 0.125 0  0.65 0.125 0  0.675 0.125 0  0.7 0.125 0  0.725 0.125 0  0.75 0.125 0  0.775 0.125 0  0.8 0.125 0  0.825 0.125 0  0.85 0.125 0  0.875 0.125 0  0.9 0.125 0  0.925 0.125 0  0.95 0.125 0  0.975 0.125 0  1 0.125 0  0 0.15 0  0.025 0.15 0  0.05 0.15 0  0.075 0.15 0  0.1 0.15 0  0.125 0.15 0  0.15 0.15 0  0.175 0.15 0  0.2 0.15 0  0.225 0.15 0  0.25 0.15 0  0.275 0.15 0  0.3 0.15 0  0.325 0.15 0  0.35 0.15 0  0.375 0.15 0  0.4 0.15 0  0.425 0.15 0  0.45 0.15 0  0.475 0.15 0  0.5 0.15 0  0.525 0.15 0  0.55 0.15 0  0.575 0.15 0  0.6 0.15 0  0.625 0.15 0  0.65 0.15 0  0.675 0.15 0  0.7 0.15 0  0.725 0.15 0  0.75 0.15 0  0.775 0.15 0  0.8 0.15 0  0.825 0.15 0  0.85 0.15 0  0.875 0.15 0  0.9 0.15 0  0.925 0.15 0  0.95 0.15 0  0.975 0.15 0  1 0.15 0  0 0.175 0  0.025 0.175 0  0.05 0.175 0  0.075 0.175 0  0.1 0.175 0  0.125 0.175 0  0.15 0.175 0  0.175 0.175 0  0.2 0.175 0  0.225 0.175 0  0.25 0.175 0  0.275 0.175 0  0.3 0.175 0  0.325 0.175 0  0.35 0.175 0  0.375 0.175 0  0.4 0.175 0  0.425 0.175 0  0.45 0.175 0  0.475 0.175 0  0.5 0.175 0  0.525 0.175 0  0.55 0.175 0  0.575 0.175 0  0.6 0.175 0  0.625 0.175 0  0.65 0.175 0  0.675 0.175 0  0.7 0.175 0  0.725 0.175 0  0.75 0.175 0  0.775 0.175 0  0.8 0.175 0  0.825 0.175 0  0.85 0.175 0  0.875 0.175 0  0.9 0.175 0  0.925 0.175 0  0.95 0.175 0  0.975 0.175 0  1 0.175 0  0 0.2 0  0.025 0.2 0  0.05 0.2 0  0.075 0.2 0  0.1 0.2 0  0.125 0.2 0  0.15 0.2 0  0.175 0.2 0  0.2 0.2 0  0.225 0.2 0  0.25 0.2 0  0.275 0.2 0  0.3 0.2 0  0.325 0.2 0  0.35 0.2 0  0.375 0.2 0  0.4 0.2 0  0.425 0.2 0  0.45 0.2 0  0.475 0.2 0  0.5 0.2 0  0.525 0.2 0  0.55 0.2 0  0.575 0.2 0  0.6 0.2 0  0.625 0.2 0  0.65 0.2 0  0.675 0.2 0  0.7 0.2 0  0.725 0.2 0  0.75 0.2 0  0.775 0.2 0  0.8 0.2 0  0.825 0.2 0  0.85 0.2 0  0.875 0.2 0  0.9 0.2 0  0.925 0.2 0  0.95 0.2 0  0.975 0.2 0  1 0.2 0  0 0.225 0  0.025 0.225 0  0.05 0.225 0  0.075 0.225 0  0.1 0.225 0  0.125 0.225 0  0.15 0.225 0  0.175 0.225 0  0.2 0.225 0  0.225 0.225 0  0.25 0.225 0  0.275 0.225 0  0.3 0.225 0  0.325 0.225 0  0.35 0.225 0  0.375 0.225 0  0.4 0.225 0  0.425 0.225 0  0.45 0.225 0  0.475 0.225 0  0.5 0.225 0  0.525 0.225 0  0.55 0.225 0  0.575 0.225 0  0.6 0.225 0  0.625 0.225 0  0.65 0.225 0  0.675 0.225 0  0.7 0.225 0  0.725 0.225 0  0.75 0.225 0  0.775 0.225 0  0.8 0.225 0  0.825 0.225 0  0.85 0.225 0  0.875 0.225 0  0.9 0.225 0  0.925 0.225 0  0.95 0.225 0  0.975 0.225 0  1 0.225 0  0 0.25 0  0.025 0.25 0  0.05 0.25 0  0.075 0.25 0  0.1 0.25 0  0.125 0.25 0  0.15 0.25 0  0.175 0.25 0  0.2 0.25 0  0.225 0.25 0  0.25 0.25 0  0.275 0.25 0  0.3 0.25 0  0.325 0.25 0  0.35 0.25 0  0.375 0.25 0  0.4 0.25 0  0.425 0.25 0  0.45 0.25 0  0.475 0.25 0  0.5 0.25 0  0.525 0.25 0  0.55 0.25 0  0.575 0.25 0  0.6 0.25 0  0.625 0.25 0  0.65 0.25 0  0.675 0.25 0  0.7 0.25 0  0.725 0.25 0  0.75 0.25 0  0.775 0.25 0  0.8 0.25 0  0.825 0.25 0  0.85 0.25 0  0.875 0.25 0  0.9 0.25 0  0.925 0.25 0  0.95 0.25 0  0.975 0.25 0  1 0.25 0  0 0.275 0  0.025 0.275 0  0.05 0.275 0  0.075 0.275 0  0.1 0.275 0  0.125 0.275 0  0.15 0.275 0  0.175 0.275 0  0.2 0.275 0  0.225 0.275 0  0.25 0.275 0  0.275 0.275 0  0.3 0.275 0  0.325 0.275 0  0.35 0.275 0  0.375 0.275 0  0.4 0.275 0  0.425 0.275 0  0.45 0.275 0  0.475 0.275 0  0.5 0.275 0  0.525 0.275 0  0.55 0.275 0  0.575 0.275 0  0.6 0.275 0  0.625 0.275 0  0.65 0.275 0  0.675 0.275 0  0.7 0.275 0  0.725 0.275 0  0.75 0.275 0  0.775 0.275 0  0.8 0.275 0  0.825 0.275 0  0.85 0.275 0  0.875 0.275 0  0.9 0.275 0  0.925 0.275 0  0.95 0.275 0  0.975 0.275 0  1 0.275 0  0 0.3 0  0.025 0.3 0  0.05 0.3 0  0.075 0.3 0  0.1 0.3 0  0.125 0.3 0  0.15 0.3 0  0.175 0.3 0  0.2 0.3 0  0.225 0.3 0  0.25 0.3 0  0.275 0.3 0  0.3 0.3 0  0.325 0.3 0  0.35 0.3 0  0.375 0.3 0  0.4 0.3 0  0.425 0.3 0  0.45 0.3 0  0.475 0.3 0  0.5 0.3 0  0.525 0.3 0  0.55 0.3 0  0.575 0.3 0  0.6 0.3 0  0.625 0.3 0  0.65 0.3 0  0.675 0.3 0  0.7 0.3 0  0.725 0.3 0  0.75 0.3 0  0.775 0.3 0  0.8 0.3 0  0.825 0.3 0  0.85 0.3 0  0.875 0.3 0  0.9 0.3 0  0.925 0.3 0  0.95 0.3 0  0.975 0.3 0  1 0.3 0  0 0.325 0  0.025 0.325 0  0.05 0.325 0  0.075 0.325 0  0.1 0.325 0  0.125 0.325 0  0.15 0.325 0  0.175 0.325 0  0.2 0.325 0  0.225 0.325 0  0.25 0.325 0  0.275 0.325 0  0.3 0.325 0  0.325 0.325 0  0.35 0.325 0  0.375 0.325 0  0.4 0.325 0  0.425 0.325 0  0.45 0.325 0  0.475 0.325 0  0.5 0.325 0  0.525 0.325 0  0.55 0.325 0  0.575 0.325 0  0.6 0.325 0  0.625 0.325 0  0.65 0.325 0  0.675 0.325 0  0.7 0.325 0  0.725 0.325 0  0.75 0.325 0  0.775 0.325 0  0.8 0.325 0  0.825 0.325 0  0.85 0.325 0  0.875 0.325 0  0.9 0.325 0  0.925 0.325 0  0.95 0.325 0  0.975 0.325 0  1 0.325 0  0 0.35 0  0.025 0.35 0  0.05 0.35 0  0.075 0.35 0  0.1 0.35 0  0.125 0.35 0  0.15 0.35 0  0.175 0.35 0  0.2 0.35 0  0.225 0.35 0  0.25 0.35 0  0.275 0.35 0  0.3 0.35 0  0.325 0.35 0  0.35 0.35 0  0.375 0.35 0  0.4 0.35 0  0.425 0.35 0  0.45 0.35 0  0.475 0.35 0  0.5 0.35 0  0.525 0.35 0  0.55 0.35 0  0.575 0.35 0  0.6 0.35 0  0.625 0.35 0  0.65 0.35 0  0.675 0.35 0  0.7 0.35 0  0.725 0.35 0  0.75 0.35 0  0.775 0.35 0  0.8 0.35 0  0.825 0.35 0  0.85 0.35 0  0.875 0.35 0  0.9 0.35 0  0.925 0.35 0  0.95 0.35 0  0.975 0.35 0  1 0.35 0  0 0.375 0  0.025 0.375 0  0.05 0.375 0  0.075 0.375 0  0.1 0.375 0  0.125 0.375 0  0.15 0.375 0  0.175 0.375 0  0.2 0.375 0  0.225 0.375 0  0.25 0.375 0  0.275 0.375 0  0.3 0.375 0  0.325 0.375 0  0.35 0.375 0  0.375 0.375 0  0.4 0.375 0  0.425 0.375 0  0.45 0.375 0  0.475 0.375 0  0.5 0.375 0  0.525 0.375 0  0.55 0.375 0  0.575 0.375 0  0.6 0.375 0  0.625 0.375 0  0.65 0.375 0  0.675 0.375 0  0.7 0.375 0  0.725 0.375 0  0.75 0.375 0  0.775 0.375 0  0.8 0.375 0  0.825 0.375 0  0.85 0.375 0  0.875 0.375 0  0.9 0.375 0  0.925 0.375 0  0.95 0.375 0  0.975 0.375 0  1 0.375 0  0 0.4 0  0.025 0.4 0  0.05 0.4 0  0.075 0.4 0  0.1 0.4 0  0.125 0.4 0  0.15 0.4 0  0.175 0.4 0  0.2 0.4 0  0.225 0.4 0  0.25 0.4 0  0.275 0.4 0  0.3 0.4 0  0.325 0.4 0  0.35 0.4 0  0.375 0.4 0  0.4 0.4 0  0.425 0.4 0  0.45 0.4 0  0.475 0.4 0  0.5 0.4 0  0.525 0.4 0  0.55 0.4 0  0.575 0.4 0  0.6 0.4 0  0.625 0.4 0  0.65 0.4 0  0.675 0.4 0  0.7 0.4 0  0.725 0.4 0  0.75 0.4 0  0.775 0.4 0  0.8 0.4 0  0.825 0.4 0  0.85 0.4 0  0.875 0.4 0  0.9 0.4 0  0.925 0.4 0  0.95 0.4 0  0.975 0.4 0  1 0.4 0  0 0.425 0  0.025 0.425 0  0.05 0.425 0  0.075 0.425 0  0.1 0.425 0  0.125 0.425 0  0.15 0.425 0  0.175 0.425 0  0.2 0.425 0  0.225 0.425 0  0.25 0.425 0  0.275 0.425 0  0.3 0.425 0  0.325 0.425 0  0.35 0.425 0  0.375 0.425 0  0.4 0.425 0  0.425 0.425 0  0.45 0.425 0  0.475 0.425 0  0.5 0.425 0  0.525 0.425 0  0.55 0.425 0  0.575 0.425 0  0.6 0.425 0  0.625 0.425 0  0.65 0.425 0  0.675 0.425 0  0.7 0.425 0  0.725 0.425 0  0.75 0.425 0  0.775 0.425 0  0.8 0.425 0  0.825 0.425 0  0.85 0.425 0  0.875 0.425 0  0.9 0.425 0  0.925 0.425 0  0.95 0.425 0  0.975 0.425 0  1 0.425 0  0 0.45 0  0.02
[...]
<PointData  Scalars="ControlVisualisation"> 
<DataArray  type="Float64"  Name="ControlVisualisation"  format="ascii">4.3995915380915068e-01  4.3993826695400101e-01  4.3993927880631689e-01  4.3994471814671665e-01  4.3995418940674835e-01  4.3996530901397696e-01  4.3997584714464777e-01  4.3998449883118446e-01  4.3999082973073272e-01  4.3999494873693679e-01  4.3999720820625010e-01  4.3999801413728817e-01  4.3999773337849446e-01  4.3999666149588329e-01  4.3999502132429846e-01  4.3999297390722258e-01  4.3999063246040232e-01  4.3998807531227557e-01  4.3998535649754345e-01  4.3998251390099918e-01  4.3997957530114756e-01  4.3997656276261621e-01  4.3997349578422817e-01  4.3997039352435563e-01  4.3996727633856170e-01  4.3996416679130079e-01  4.3996109024715768e-01  4.3995807510667101e-01  4.3995515272554486e-01  4.3995235704229885e-01  4.3994972393892534e-01  4.3994729037619229e-01  4.3994509339704463e-01  4.3994316921474219e-01  4.3994155278344982e-01  4.3994027843172678e-01  4.3993938064795396e-01  4.3993888553261901e-01  4.3993876338923471e-01  4.3993883044686566e-01  4.3997963293001485e-01  4.3993819096635406e-01  4.3988180121473575e-01  4.3991147568582906e-01  4.3998115582662917e-01  4.4008756816995165e-01  4.4020988762399821e-01  4.4032628185227302e-01  4.4042309278901381e-01  4.4049527784448411e-01  4.4054351502892281e-01  4.4057122542151211e-01  4.4058257720520766e-01  4.4058145331741000e-01  4.4057105523333778e-01  4.4055384573687140e-01  4.4053163895084918e-01  4.4050573465924353e-01  4.4047704966265921e-01  4.4044622876663769e-01  4.4041373211059376e-01  4.4037990124459331e-01  4.4034500801123161e-01  4.4030929020146004e-01  4.4027297725034648e-01  4.4023630842440137e-01  4.4019954522315397e-01  4.4016297913626701e-01  4.4012693546832016e-01  4.4009177365608099e-01  4.4005788434591137e-01  4.4002568347484905e-01  4.3999560373499913e-01  4.3996808418728595e-01  4.3994355948028691e-01  4.3992245089994403e-01  4.3990516030493687e-01  4.3989205251875435e-01  4.3988336279245294e-01  4.3987888160403654e-01  4.3987754953818936e-01  4.3993883038150272e-01  4.3993866856036362e-01  4.3991318605663837e-01  4.4003026388608502e-01  4.4022003273790389e-01  4.4046881691923123e-01  4.4073951144236090e-01  4.4099132712713146e-01  4.4119845230223353e-01  4.4135184825747026e-01  4.4145370626421077e-01  4.4151153034111779e-01  4.4153418792734900e-01  4.4152987836759744e-01  4.4150535993553619e-01  4.4146584700920394e-01  4.4141519914562138e-01  4.4135619854793290e-01  4.4129082176585444e-01  4.4122047044008922e-01  4.4114615407028640e-01  4.4106862936047031e-01  4.4098850417681412e-01  4.4090631409273301e-01  4.4082257814453202e-01  4.4073783879926398e-01  4.4065268966000598e-01  4.4056779323933065e-01  4.4048389024184997e-01  4.4040180119600159e-01  4.4032242094610941e-01  4.4024670645464065e-01  4.4017565857870200e-01  4.4011029894667192e-01  4.4005164336356367e-01  4.4000067153265476e-01  4.3995828201356474e-01  4.3992518323914431e-01  4.3990159094280218e-01  4.3988665451083830e-01  4.3987887849751195e-01  4.3993876196483434e-01  4.3994368237340070e-01  4.4000477811238464e-01  4.4028344591066798e-01  4.4060131721548951e-01  4.4093522638731059e-01  4.4126286428565220e-01  4.4155154750076803e-01  4.4178022346711887e-01  4.4194355689846260e-01  4.4204676988772046e-01  4.4209968764344509e-01  4.4211286502648295e-01  4.4209569184852188e-01  4.4205575436233030e-01  4.4199883867103706e-01  4.4192919749651116e-01  4.4184988342300258e-01  4.4176306084724715e-01  4.4167026617476929e-01  4.4157261248191648e-01  4.4147094539400711e-01  4.4136595971351456e-01  4.4125828579413034e-01  4.4114855296256855e-01  4.4103743541237844e-01  4.4092568432191559e-01  4.4081414860507995e-01  4.4070378570501423e-01  4.4059566317078636e-01  4.4049095139089650e-01  4.4039090776391870e-01  4.4029685265646373e-01  4.4021013734360753e-01  4.4013210228109123e-01  4.4006401604718998e-01  4.4000695863640693e-01  4.3996154464213266e-01  4.3992728981700485e-01  4.3990180619819497e-01  4.3988339875422411e-01  4.3993887921288161e-01  4.3995698812179052e-01  4.4020980301634527e-01  4.4080268851896376e-01  4.4126824234308465e-01  4.4160976583095551e-01  4.4188362126404074e-01  4.4210166411920077e-01  4.4226186993780003e-01  4.4236604064433122e-01  4.4242101836630943e-01  4.4243576977720772e-01  4.4241908119307349e-01  4.4237844740261151e-01  4.4231977563967245e-01  4.4224749484526277e-01  4.4216481699774041e-01  4.4207402240918370e-01  4.4197671498293944e-01  4.4187403120164859e-01  4.4176680351307646e-01  4.4165568497579794e-01  4.4154124321157667e-01  4.4142403082645709e-01  4.4130463791758540e-01  4.4118373069934458e-01  4.4106207890176541e-01  4.4094057348932797e-01  4.4082023542639037e-01  4.4070221566442225e-01  4.4058778621672834e-01  4.4047832204072945e-01  4.4037527318398223e-01  4.4028012537159122e-01  4.4019434206093033e-01  4.4011926411631491e-01  4.4005589463038997e-01  4.4000438287855931e-01  4.3996289227257179e-01  4.3992634549051046e-01  4.3989234493331586e-01  4.3993937212028478e-01  4.3998412777459539e-01  4.4071834703443696e-01  4.4191199893088690e-01  4.4249714842029092e-01  4.4267813366630571e-01  4.4273739711679544e-01  4.4276404754758747e-01  4.4277165581009731e-01  4.4275989091261092e-01  4.4272918244509463e-01  4.4268176005427951e-01  4.4262053088915321e-01  4.4254825869779973e-01  4.4246721966600816e-01  4.4237914035480735e-01  4.4228526295297843e-01  4.4218645219185004e-01  4.4208330437026522e-01  4.4197624327343144e-01  4.4186559926702579e-01  4.4175167262966236e-01  4.4163478370433540e-01  4.4151531249949061e-01  4.4139372983624620e-01  4.4127062143310875e-01  4.4114670562931879e-01  4.4102284485123677e-01  4.4090005045838959e-01  4.4077948028003461e-01  4.4066242794796651e-01  4.4055030292026764e-01  4.4044459939524155e-01  4.4034684962521181e-01  4.4025854782362894e-01  4.4018100223264023e-01  4.4011499281251809e-01  4.4005992623919882e-01  4.4001196983298402e-01  4.3996203080940183e-01  4.3990628021195699e-01  4.3994029188732353e-01  4.4027889515638452e-01  4.4239325180787020e-01  4.4446116032958777e-01  4.4472626568040707e-01  4.4432015441170247e-01  4.4389799476768388e-01  4.4358159727403734e-01  4.4335152817546014e-01  4.4317563259029963e-01  4.4303162586852618e-01  4.4290616723170700e-01  4.4279143672663496e-01  4.4268275073946833e-01  4.4257719186265504e-01  4.4247285860312030e-01  4.4236845792706697e-01  4.4226308309133050e-01  4.4215609231042929e-01  4.4204704319712251e-01  4.4193565873980417e-01  4.4182181154278277e-01  4.4170551884718745e-01  4.4158694389901143e-01  4.4146640080761534e-01  4.4134436081021289e-01  4.4122145819155295e-01  4.4109849420792585e-01  4.4097643735588188e-01  4.4085641827943495e-01  4.4073971752736524e-01  4.4062774408357808e-01  4.4052200138938441e-01  4.4042403317091328e-01  4.4033532673617898e-01  4.4025710695452824e-01  4.4018983018088964e-01  4.4013189951709397e-01  4.4007679819157275e-01  4.4000999795305945e-01  4.3992551219078430e-01  4.3994165016007530e-01  4.4378136260899742e-01  4.4855926726856815e-01  4.4991639160355784e-01  4.4834868399219385e-01  4.4658074232612727e-01  4.4532968471837087e-01  4.4451473517313367e-01  4.4397621380545910e-01  4.4360365103148225e-01  4.4333154038564315e-01  4.4312160423664576e-01  4.4295092547423437e-01  4.4280531040791055e-01  4.4267566859643981e-01  4.4255600403336487e-01  4.4244226546149024e-01  4.4233166707319860e-01  4.4222227584961121e-01  4.4211275546059620e-01  4.4200220522944711e-01  4.4189005857889868e-01  4.4177601962983726e-01  4.4166002467659449e-01  4.4154221990464276e-01  4.4142294942014831e-01  4.4130274922988688e-01  4.4118234370231013e-01  4.4106264152749469e-01  4.4094472843308369e-01  4.4082985394048746e-01  4.4071940903822010e-01  4.4061488980474428e-01  4.4051783542802586e-01  4.4042970750724386e-01  4.4035161235737075e-01  4.4028358697846831e-01  4.4022275060731497e-01  4.4015915759433211e-01  4.4007133472525684e-01  4.3995040766745847e-01  4.3994346599500961e-01  4.5466957505123695e-01  4.6349005752944705e-01  4.5867673654771229e-01  4.5302414531755519e-01  4.4915884294633313e-01  4.4683499136995780e-01  4.4544198177007566e-01  4.4457261372718015e-01  4.4400110759602618e-01  4.4360514694356629e-01  4.4331642046868980e-01  4.4309512725667838e-01  4.4291707091939819e-01  4.4276697944712012e-01  4.4263490835997849e-01  4.4251421940251995e-01  4.4240039856712843e-01  4.4229034062799910e-01  4.4218190382465389e-01  4.4207362702023445e-01  4.4196454792500811e-01  4.4185408601430765e-01  4.4174196778087382e-01  4.4162818002734411e-01  4.4151294164440430e-01  4.4139668712948849e-01  4.4128005675416671e-01  4.4116388922959815e-01  4.4104921319890605e-01  4.4093723396810242e-01  4.4082931127236924e-01  4.4072692117814166e-01  4.4063158583767464e-01  4.4054472447983195e-01  4.4046728785834638e-01  4.4039878649822473e-01  4.4033474388637478e-01  4.4026096852484298e-01  4.4014739740945591e-01  4.3998149189570296e-01  4.3994577476045771e-01  4.6547333316340656e-01  4.8024290617109427e-01  4.6721006630105305e-01  4.5725104502767666e-01  4.5137185149873293e-01  4.4807758000164133e-01  4.4618617138814254e-01  4.4504231560333474e-01  4.4431133482181162e-01  4.4381910074329844e-01  4.4347088633162152e-01  4.4321255285909777e-01  4.4301167409324899e-01  4.4284802781295668e-01  4.4270857443113604e-01  4.4258467959641257e-01  4.4247051010835781e-01  4.4236207151696305e-01  4.4225661220063223e-01  4.4215224532653408e-01  4.4204770514248259e-01  4.4194218875322039e-01  4.4183525372219412e-01  4.4172675279053675e-01  4.4161679341049048e-01  4.4150571358775803e-01  4.4139406776722245e-01  4.4128261776898192e-01  4.4117232440518983e-01  4.4106433545308565e-01  4.4095996470418902e-01  4.4086065298105753e-01  4.4076788909874870e-01  4.4068302758897032e-01  4.4060681714372840e-01  4.4053811611756061e-01  4.4047049864320614e-01  4.4038461131927531e-01  4.4023995923678749e-01  4.4001948231958488e-01  4.3994862832163212e-01  4.6877419032310946e-01  4.8796397048688611e-01  4.7130748211732293e-01  4.5933877374358112e-01  4.5249041057863304e-01  4.4871916398512784e-01  4.4657699706601017e-01  4.4529396268956989e-01  4.4448268926524670e-01  4.4394291312625461e-01  4.4356639460745928e-01  4.4329158526935047e-01  4.4308178447096325e-01  4.4291418958852130e-01  4.4277414106681362e-01  4.4265195480541325e-01  4.4254109972574801e-01  4.4243710726968699e-01  4.4233689686940331e-01  4.4223834771173792e-01  4.4214002191540802e-01  4.4204098394294300e-01  4.4194068292653749e-01  4.4183887702045482e-01  4.4173558615416009e-01  4.4163106386427547e-01  4.4152578141720994e-01  4.4142041885148325e-01  4.4131585820669755e-01  4.4121317409473726e-01  4.4111361531154464e-01  4.4101856590013588e-01  4.4092945680273754e-01  4.4084754495898648e-01  4.4077331573246015e-01  4.4070482409617395e-01  4.4063328502360305e-01  4.4053313174678199e-01  4.4035132691703982e-01  4.4006532303127965e-01  4.3995209621413922e-01  4.6273426880374757e-01  4.8227835765262955e-01  4.6901347520812614e-01  4.5846916189459114e-01  4.5214929557069133e-01  4.4858051035407887e-01  4.4652123416860762e-01  4.4527651314722244e-01  4.4448558689723205e-01  4.4395853625406451e-01  4.4359144182839283e-01  4.4332462959206481e-01  4.4312225388135823e-01  4.4296191025655057e-01  4.4282912626243492e-01  4.4271430487730296e-01  4.4261095365926711e-01  4.4251461838413281e-01  4.4242221939204501e-01  4.4233162769311080e-01  4.4224138926289025e-01  4.4215054405920651e-01  4.4205850737227115e-01  4.4196499317374804e-01  4.4186996620879621e-01  4.4177361379026692e-01  4.4167633073446438e-01  4.4157871223240225e-01  4.4148154996745448e-01  4.4138582640807944e-01  4.4129270008375460e-01  4.4120346755048034e-01  4.4111946518559025e-01  4.4104180390629344e-01  4.4097062331071107e-01  4.4090298824990948e-01  4.4082726796098476e-01  4.4071044889084438e-01  4.4048448622750602e-01  4.4012023969313507e-01  4.3995626909769620e-01  4.5083358642403037e-01  4.6647013059695697e-01  4.6144142567090962e-01  4.5504412103670028e-01  4.5049782289291845e-01  4.4771826794216091e-01  4.4604102542070678e-01  4.4499805459389036e-01  4.4432224617874067e-01  4.4386577213704798e-01  4.4354489201501385e-01  4.4331026921393779e-01  4.4313167222132249e-01  4.4298990299663493e-01  4.4287240498101071e-01  4.4277077056822972e-01  4.4267926955754289e-01  4.4259394833699506e-01  4.4251206118226638e-01  4.4243170249267139e-01  4.4235156503252998e-01  4.4227077979464113e-01  4.4218881026977697e-01  4.4210538387142223e-01  4.4202044920261080e-01  4.4193415142999848e-01  4.4184682014319687e-01  4.4175896519190022e-01  4.4167127628762559e-01  4.4158462142968119e-01  4.4150003630037887e-01  4.4141868749917113e-01  4.4134176358821170e-01  4.4127015899546684e-01  4.4120355458152211e-01  4.4113778783056423e-01  4.4105779007674994e-01  4.4092162417264041e-01  4.4064330687508241e-01  4.4018582191715011e-01  4.3996126449460110e-01  4.4188062233582603e-01  4.5023467346568224e-01  4.5251915304127721e-01  4.5051852427805827e-01  4.4812469851565184e-01  4.4639544484075455e-01  4.4526210615557088e-01  4.4452154278454586e-01  4.4402542005390266e-01  4.4368212844039384e-01  4.4343625448348190e-01  4.4325367988091369e-01  4.4311280284086835e-01  4.4299956120672923e-01  4.4290458360329277e-01  4.4282150675672177e-01  4.4274595003752115e-01  4.4267487066612865e-01  4.4260614754355215e-01  4.4253830719221099e-01  4.4247034093325011e-01  4.4240158239108096e-01  4.4233162595531578e-01  4.4226027371016047e-01  4.4218750254399036e-01  4.4211344573886135e-01  4.4203838488061198e-01  4.4196274870033048e-01  4.4188711549807741e-01  4.4181221472109411e-01  4.4173891949611471e-01  4.4166821018733343e-01  4.4160105268854727e-01  4.4153802360775279e-01  4.4147818769001435e-01  4.4141584492984165e-01  4.4133174977796263e-01  4.4117323667299529e-01  4.4083283581008720e-01  4.4026414273048015e-01  4.3996723524099740e-01  4.4010805506601525e-01  4.4281493050417436e-01  4.4614108850031869e-01  4.4652128016441223e-01  4.4575244448596163e-01  4.4495685875795482e-01  4.4435932086832236e-01  4.4394045634363938e-01  4.4364721977102589e-01  4.4343762294078831e-01  4.4328327003604340e-01  4.4316553355066002e-01  4.4307212163892101e-01  4.4299480499044014e-01  4.4292799272572919e-01  4.4286784099472987e-01  4.4281168618662725e-01  4.4275767665811810e-01  4.4270452901529039e-01  4.4265136449409570e-01  4.4259759822907924e-01  4.4254286429627226e-01  4.4248696549942318e-01  4.4242984062961005e-01  4.4237154430119685e-01  4.4231223597083513e-01  4.4225217565014846e-01  4.4219172423398345e-01  4.4213134619252131e-01  4.4207161101156861e-01  4.4201318523957667e-01  4.4195679265608656e-01  4.4190307498299153e-01  4.4185214720400429e-01  4.4180223591575252e-01  4.4174568700199157e-01  4.4165813135643150e-01  4.4147392094669108e-01  4.4105972201073973e-01  4.4035793164247167e-01  4.3997438164349295e-01  4.4000511973251971e-01  4.4106556649787432e-01  4.4302224685820435e-01  4.4383907161060077e-01  4.4386092978862285e-01  4.4367357887564535e-01  4.4348859645331895e-01  4.4334705213666503e-01  4.4324364857864018e-01  4.4316703567249055e-01  4.4310793917809838e-01  4.4305993429781870e-01  4.4301874041132294e-01  4.4298152491145099e-01  4.4294640855337014e-01  4.4291214326100298e-01  4.4287790532530241e-01  4.4284316202665264e-01  4.4280758476466725e-01  4.4277099190765179e-01  4.4273331099825503e-01  4.4269455378353018e-01  4.4265479987205025e-01  4.4261418625011240e-01  4.4257290077778494e-01  4.4253117833739025e-01  4.4248929861914843e-01  4.4244758461794859e-01  4.4240640058041902e-01  4.4236614666410035e-01  4.4232724254273142e-01  4.4229007506589274e-01  4.4225483050071596e-01  4.4222096227919011e-01  4.4218554361492213e-01  4.4213839171641750e-01  4.4204876615397615e-01  4.4183515321119754e-01  4.4133284226598035e-01  4.4047082890625733e-01  4.3998296910161805e-01  4.3998109132926100e-01  4.4053356577107239e-01  4.4161820573904920e-01  4.4226466036172341e-01  4.4253746246144660e-01  4.4266304105942850e-01  4.4274454313459022e-01  4.4280932923021926e-01  4.4286195361609498e-01  4.4290283967038147e-01  4.4293251621046814e-01  4.4295212339472462e-01  4.4296307939920754e-01  4.4296680932846927e-01  4.4296460216786543e-01  4.4295756349967791e-01  4.4294661866889312e-01  4.4293253801093724e-01  4.4291596851306403e-01  4.4289746441535011e-01  4.4287751365087868e-01  4.4285655916385092e-01  4.4283501506739315e-01  4.4281327788184660e-01  4.4279173306457936e-01  4.4277075687531159e-01  4.4275071340475664e-01  4.4273194633700974e-01  4.4271476450657632e-01  4.4269941888791997e-01  4.4268606315050635e-01  4.4267467043154435e-01  4.4266481503367294e-01  4.4265502018189479e-01  4.4264075698592692e-01  4.4260850158812021e-01  4.4251944738430193e-01  4.4227242631757252e-01  4.4166424434969453e-01  4.4060776698630116e-01  4.3999335406657653e-01  4.3996257907825786e-01  4.4023911536944677e-01  4.4085801019746867e-01  4.4132535501873665e-01  4.4165425947784276e-01  4.4192403658717999e-01  4.4216098577746460e-01  4.4236536762965489e-01  4.4253512543220019e-01  4.4267107229679098e-01  4.4277667047203773e-01  4.4285659207493194e-01  4.4291563023049813e-01  4.4295813802539102e-01  4.4298781465702858e-01  4.4300768970401844e-01  4.4302019761038980e-01  4.4302728299467914e-01  4.4303050663165938e-01  4.4303113907212471e-01  4.4303023765898353e-01  4.4302870678363349e-01  4.4302734274450589e-01  4.4302686477306580e-01  4.4302793336435980e-01  4.4303115634281759e-01  4.4303708230247385e-01  4.4304618023229075e-01  4.4305880322452335e-01  4.4307513244073354e-01  4.4309509131281077e-01  4.4311819939421182e-01  4.4314325942964145e-01  4.4316752138743098e-01  4.4318422387825479e-01  4.4317533548455262e-01  4.4309160224570171e-01  4.4280705562915296e-01  4.4207060715003882e-01  4.4077555646985789e-01  4.4000602297595387e-01  4.3995087060624405e-01  4.4006513344642795e-01  4.4041365214657985e-01  4.4074937906370876e-01  4.4107808965290052e-01  4.4141279752676171e-01  4.4173703384364144e-01  4.4203094868229487e-01  4.4228304950890002e-01  4.4249049599017082e-01  4.4265622308121538e-01  4.4278591326698802e-01  4.4288601694066027e-01  4.4296267216922386e-01  4.4302123685139466e-01  4.4306617319647779e-01  4.4310110582576928e-01  4.4312895036681149e-01  4.4315205755420722e-01  4.4317234709118042e-01  4.4319142121675964e-01  4.4321065563781331e-01  4.4323126866186091e-01  4.4325437010500451e-01  4.4328099100319585e-01  4.4331209392208493e-01  4.4334856203532447e-01  4.4339116322006805e-01  4.4344048329653374e-01  4.4349681912986516e-01  4.4356001498339787e-01  4.4362920190865912e-01  4.4370230848926540e-01  4.4377492872207541e-01  4.4383722040747020e-01  4.4386493116354891e-01  4.4379487301123671e-01  4.4346903024876366e-01  4.4257557093886268e-01  4.4098381573451900e-01  4.4002165234867596e-01  4.3994353266483244e-01  4.3995877597517202e-01  4.4014571404569813e-01  4.4039990888536867e-01  4.4072126018170643e-01  4.4108763836327769e-01  4.4146131674294625e-01  4.4181055779621997e-01  4.4211688587546638e-01  4.4237389360074530e-01  4.4258312759762874e-01  4.4275024465602536e-01  4.4288239104101457e-01  4.4298669156825149e-01  4.4306953829329387e-01  4.4313635489056030e-01  4.4319161117366929e-01  4.4323894913442080e-01  4.4328134385919021e-01  4.4332126148998324e-01  4.4336079803478717e-01  4.4340179389606971e-01  4.4344592381173353e-01  4.4349476323038117e-01  4.4354983147832194e-01  4.4361261016196546e-01  4.4368453235009964e-01  4.4376693421248031e-01  4.4386095575463619e-01  4.4396736973102569e-01  4.4408630618333428e-01  4.4421680457674023e-01  4.4435602250967932e-01  4.4449759891079388e-01  4.4462751700744557e-01  4.4471279446123668e-01  4.4467111241377905e-01  4.4430172288517872e-01  4.4321366224266828e-01  4.4124649423448353e-01  4.4004120075232533e-01  4.3993980159985879e-01  4.3990359674039597e-01  4.4000643395925554e-01  4.4021949088692941e-01  4.4053861610999095e-01  4.4092339451977469e-01  4.4132511230067795e-01  4.4170580606818899e-01  4.420435133