<?xml version="1.0"?>
<VTKFile type="UnstructuredGrid"  version="0.1"  >
<UnstructuredGrid>
<Piece  NumberOfPoints="1681" NumberOfCells="3200">
<Points>
<DataArray  type="Float64"  NumberOfComponents="3"  format="ascii">0 0 0  0.025 0 0  0.05 0 0  0.075 0 0  0.1 0 0  0.125 0 0  0.15 0 0  0.175 0 0  0.2 0 0  0.225 0 0  0.25 0 0  0.275 0 0  0.3 0 0  0.325 0 0  0.35 0 0  0.375 0 0  0.4 0 0  0.425 0 0  0.45 0 0  0.475 0 0  0.5 0 0  0.525 0 0  0.55 0 0  0.575 0 0  0.6 0 0  0.625 0 0  0.65 0 0  0.675 0 0  0.7 0 0  0.725 0 0  0.75 0 0  0.775 0 0  0.8 0 0  0.825 0 0  0.85 0 0  0.875 0 0  0.9 0 0  0.925 0 0  0.95 0 0  0.975 0 0  1 0 0  0 0.025 0  0.025 0.025 0  0.05 0.025 0  0.075 0.025 0  0.1 0.025 0  0.125 0.025 0  0.15 0.025 0  0.175 0.025 0  0.2 0.025 0  0.225 0.025 0  0.25 0.025 0  0.275 0.025 0  0.3 0.025 0  0.325 0.025 0  0.35 0.025 0  0.375 0.025 0  0.4 0.025 0  0.425 0.025 0  0.45 0.025 0  0.475 0.025 0  0.5 0.025 0  0.525 0.025 0  0.55 0.025 0  0.575 0.025 0  0.6 0.025 0  0.625 0.025 0  0.65 0.025 0  0.675 0.025 0  0.7 0.025 0  0.725 0.025 0  0.75 0.025 0  0.775 0.025 0  0.8 0.025 0  0.825 0.025 0  0.85 0.025 0  0.875 0.025 0  0.9 0.025 0  0.925 0.025 0  0.95 0.025 0  0.975 0.025 0  1 0.025 0  0 0.05 0  0.025 0.05 0  0.05 0.05 0  0.075 0.05 0  0.1 0.05 0  0.125 0.05 0  0.15 0.05 0  0.175 0.05 0  0.2 0.05 0  0.225 0.05 0  0.25 0.05 0  0.275 0.05 0  0.3 0.05 0  0.325 0.05 0  0.35 0.05 0  0.375 0.05 0  0.4 0.05 0  0.425 0.05 0  0.45 0.05 0  0.475 0.05 0  0.5 0.05 0  0.525 0.05 0  0.55 0.05 0  0.575 0.05 0  0.6 0.05 0  0.625 0.05 0  0.65 0.05 0  0.675 0.05 0  0.7 0.05 0  0.725 0.05 0  0.75 0.05 0  0.775 0.05 0  0.8 0.05 0  0.825 0.05 0  0.85 0.05 0  0.875 0.05 0  0.9 0.05 0  0.925 0.05 0  0.95 0.05 0  0.975 0.05 0  1 0.05 0  0 0.075 0  0.025 0.075 0  0.05 0.075 0  0.075 0.075 0  0.1 0.075 0  0.125 0.075 0  0.15 0.075 0  0.175 0.075 0  0.2 0.075 0  0.225 0.075 0  0.25 0.075 0  0.275 0.075 0  0.3 0.075 0  0.325 0.075 0  0.35 0.075 0  0.375 0.075 0  0.4 0.075 0  0.425 0.075 0  0.45 0.075 0  0.475 0.075 0  0.5 0.075 0  0.525 0.075 0  0.55 0.075 0  0.575 0.075 0  0.6 0.075 0  0.625 0.075 0  0.65 0.075 0  0.675 0.075 0  0.7 0.075 0  0.725 0.075 0  0.75 0.075 0  0.775 0.075 0  0.8 0.075 0  0.825 0.075 0  0.85 0.075 0  0.875 0.075 0  0.9 0.075 0  0.925 0.075 0  0.95 0.075 0  0.975 0.075 0  1 0.075 0  0 0.1 0  0.025 0.1 0  0.05 0.1 0  0.075 0.1 0  0.1 0.1 0  0.125 0.1 0  0.15 0.1 0  0.175 0.1 0  0.2 0.1 0  0.225 0.1 0  0.25 0.1 0  0.275 0.1 0  0.3 0.1 0  0.325 0.1 0  0.35 0.1 0  0.375 0.1 0  0.4 0.1 0  0.425 0.1 0  0.45 0.1 0  0.475 0.1 0  0.5 0.1 0  0.525 0.1 0  0.55 0.1 0  0.575 0.1 0  0.6 0.1 0  0.625 0.1 0  0.65 0.1 0  0.675 0.1 0  0.7 0.1 0  0.725 0.1 0  0.75 0.1 0  0.775 0.1 0  0.8 0.1 0  0.825 0.1 0  0.85 0.1 0  0.875 0.1 0  0.9 0.1 0  0.925 0.1 0  0.95 0.1 0  0.975 0.1 0  1 0.1 0  0 0.125 0  0.025 0.125 0  0.05 0.125 0  0.075 0.125 0  0.1 0.125 0  0.125 0.125 0  0.15 0.125 0  0.175 0.125 0  0.2 0.125 0  0.225 0.125 0  0.25 0.125 0  0.275 0.125 0  0.3 0.125 0  0.325 0.125 0  0.35 0.125 0  0.375 0.125 0  0.4 0.125 0  0.425 0.125 0  0.45 0.125 0  0.475 0.125 0  0.5 0.125 0  0.525 0.125 0  0.55 0.125 0  0.575 0.125 0  0.6 0.125 0  0.625 0.125 0  0.65 0.125 0  0.675 0.125 0  0.7 0.125 0  0.725 0.125 0  0.75 0.125 0  0.775 0.125 0  0.8 0.125 0  0.825 0.125 0  0.85 0.125 0  0.875 0.125 0  0.9 0.125 0  0.925 0.125 0  0.95 0.125 0  0.975 0.125 0  1 0.125 0  0 0.15 0  0.025 0.15 0  0.05 0.15 0  0.075 0.15 0  0.1 0.15 0  0.125 0.15 0  0.15 0.15 0  0.175 0.15 0  0.2 0.15 0  0.225 0.15 0  0.25 0.15 0  0.275 0.15 0  0.3 0.15 0  0.325 0.15 0  0.35 0.15 0  0.375 0.15 0  0.4 0.15 0  0.425 0.15 0  0.45 0.15 0  0.475 0.15 0  0.5 0.15 0  0.525 0.15 0  0.55 0.15 0  0.575 0.15 0  0.6 0.15 0  0.625 0.15 0  0.65 0.15 0  0.675 0.15 0  0.7 0.15 0  0.725 0.15 0  0.75 0.15 0  0.775 0.15 0  0.8 0.15 0  0.825 0.15 0  0.85 0.15 0  0.875 0.15 0  0.9 0.15 0  0.925 0.15 0  0.95 0.15 0  0.975 0.15 0  1 0.15 0  0 0.175 0  0.025 0.175 0  0.05 0.175 0  0.075 0.175 0  0.1 0.175 0  0.125 0.175 0  0.15 0.175 0  0.175 0.175 0  0.2 0.175 0  0.225 0.175 0  0.25 0.175 0  0.275 0.175 0  0.3 0.175 0  0.325 0.175 0  0.35 0.175 0  0.375 0.175 0  0.4 0.175 0  0.425 0.175 0  0.45 0.175 0  0.475 0.175 0  0.5 0.175 0  0.525 0.175 0  0.55 0.175 0  0.575 0.175 0  0.6 0.175 0  0.625 0.175 0  0.65 0.175 0  0.675 0.175 0  0.7 0.175 0  0.725 0.175 0  0.75 0.175 0  0.775 0.175 0  0.8 0.175 0  0.825 0.175 0  0.85 0.175 0  0.875 0.175 0  0.9 0.175 0  0.925 0.175 0  0.95 0.175 0  0.975 0.175 0  1 0.175 0  0 0.2 0  0.025 0.2 0  0.05 0.2 0  0.075 0.2 0  0.1 0.2 0  0.125 0.2 0  0.15 0.2 0  0.175 0.2 0  0.2 0.2 0  0.225 0.2 0  0.25 0.2 0  0.275 0.2 0  0.3 0.2 0  0.325 0.2 0  0.35 0.2 0  0.375 0.2 0  0.4 0.2 0  0.425 0.2 0  0.45 0.2 0  0.475 0.2 0  0.5 0.2 0  0.525 0.2 0  0.55 0.2 0  0.575 0.2 0  0.6 0.2 0  0.625 0.2 0  0.65 0.2 0  0.675 0.2 0  0.7 0.2 0  0.725 0.2 0  0.75 0.2 0  0.775 0.2 0  0.8 0.2 0  0.825 0.2 0  0.85 0.2 0  0.875 0.2 0  0.9 0.2 0  0.925 0.2 0  0.95 0.2 0  0.975 0.2 0  1 0.2 0  0 0.225 0  0.025 0.225 0  0.05 0.225 0  0.075 0.225 0  0.1 0.225 0  0.125 0.225 0  0.15 0.225 0  0.175 0.225 0  0.2 0.225 0  0.225 0.225 0  0.25 0.225 0  0.275 0.225 0  0.3 0.225 0  0.325 0.225 0  0.35 0.225 0  0.375 0.225 0  0.4 0.225 0  0.425 0.225 0  0.45 0.225 0  0.475 0.225 0  0.5 0.225 0  0.525 0.225 0  0.55 0.225 0  0.575 0.225 0  0.6 0.225 0  0.625 0.225 0  0.65 0.225 0  0.675 0.225 0  0.7 0.225 0  0.725 0.225 0  0.75 0.225 0  0.775 0.225 0  0.8 0.225 0  0.825 0.225 0  0.85 0.225 0  0.875 0.225 0  0.9 0.225 0  0.925 0.225 0  0.95 0.225 0  0.975 0.225 0  1 0.225 0  0 0.25 0  0.025 0.25 0  0.05 0.25 0  0.075 0.25 0  0.1 0.25 0  0.125 0.25 0  0.15 0.25 0  0.175 0.25 0  0.2 0.25 0  0.225 0.25 0  0.25 0.25 0  0.275 0.25 0  0.3 0.25 0  0.325 0.25 0  0.35 0.25 0  0.375 0.25 0  0.4 0.25 0  0.425 0.25 0  0.45 0.25 0  0.475 0.25 0  0.5 0.25 0  0.525 0.25 0  0.55 0.25 0  0.575 0.25 0  0.6 0.25 0  0.625 0.25 0  0.65 0.25 0  0.675 0.25 0  0.7 0.25 0  0.725 0.25 0  0.75 0.25 0  0.775 0.25 0  0.8 0.25 0  0.825 0.25 0  0.85 0.25 0  0.875 0.25 0  0.9 0.25 0  0.925 0.25 0  0.95 0.25 0  0.975 0.25 0  1 0.25 0  0 0.275 0  0.025 0.275 0  0.05 0.275 0  0.075 0.275 0  0.1 0.275 0  0.125 0.275 0  0.15 0.275 0  0.175 0.275 0  0.2 0.275 0  0.225 0.275 0  0.25 0.275 0  0.275 0.275 0  0.3 0.275 0  0.325 0.275 0  0.35 0.275 0  0.375 0.275 0  0.4 0.275 0  0.425 0.275 0  0.45 0.275 0  0.475 0.275 0  0.5 0.275 0  0.525 0.275 0  0.55 0.275 0  0.575 0.275 0  0.6 0.275 0  0.625 0.275 0  0.65 0.275 0  0.675 0.275 0  0.7 0.275 0  0.725 0.275 0  0.75 0.275 0  0.775 0.275 0  0.8 0.275 0  0.825 0.275 0  0.85 0.275 0  0.875 0.275 0  0.9 0.275 0  0.925 0.275 0  0.95 0.275 0  0.975 0.275 0  1 0.275 0  0 0.3 0  0.025 0.3 0  0.05 0.3 0  0.075 0.3 0  0.1 0.3 0  0.125 0.3 0  0.15 0.3 0  0.175 0.3 0  0.2 0.3 0  0.225 0.3 0  0.25 0.3 0  0.275 0.3 0  0.3 0.3 0  0.325 0.3 0  0.35 0.3 0  0.375 0.3 0  0.4 0.3 0  0.425 0.3 0  0.45 0.3 0  0.475 0.3 0  0.5 0.3 0  0.525 0.3 0  0.55 0.3 0  0.575 0.3 0  0.6 0.3 0  0.625 0.3 0  0.65 0.3 0  0.675 0.3 0  0.7 0.3 0  0.725 0.3 0  0.75 0.3 0  0.775 0.3 0  0.8 0.3 0  0.825 0.3 0  0.85 0.3 0  0.875 0.3 0  0.9 0.3 0  0.925 0.3 0  0.95 0.3 0  0.975 0.3 0  1 0.3 0  0 0.325 0  0.025 0.325 0  0.05 0.325 0  0.075 0.325 0  0.1 0.325 0  0.125 0.325 0  0.15 0.325 0  0.175 0.325 0  0.2 0.325 0  0.225 0.325 0  0.25 0.325 0  0.275 0.325 0  0.3 0.325 0  0.325 0.325 0  0.35 0.325 0  0.375 0.325 0  0.4 0.325 0  0.425 0.325 0  0.45 0.325 0  0.475 0.325 0  0.5 0.325 0  0.525 0.325 0  0.55 0.325 0  0.575 0.325 0  0.6 0.325 0  0.625 0.325 0  0.65 0.325 0  0.675 0.325 0  0.7 0.325 0  0.725 0.325 0  0.75 0.325 0  0.775 0.325 0  0.8 0.325 0  0.825 0.325 0  0.85 0.325 0  0.875 0.325 0  0.9 0.325 0  0.925 0.325 0  0.95 0.325 0  0.975 0.325 0  1 0.325 0  0 0.35 0  0.025 0.35 0  0.05 0.35 0  0.075 0.35 0  0.1 0.35 0  0.125 0.35 0  0.15 0.35 0  0.175 0.35 0  0.2 0.35 0  0.225 0.35 0  0.25 0.35 0  0.275 0.35 0  0.3 0.35 0  0.325 0.35 0  0.35 0.35 0  0.375 0.35 0  0.4 0.35 0  0.425 0.35 0  0.45 0.35 0  0.475 0.35 0  0.5 0.35 0  0.525 0.35 0  0.55 0.35 0  0.575 0.35 0  0.6 0.35 0  0.625 0.35 0  0.65 0.35 0  0.675 0.35 0  0.7 0.35 0  0.725 0.35 0  0.75 0.35 0  0.775 0.35 0  0.8 0.35 0  0.825 0.35 0  0.85 0.35 0  0.875 0.35 0  0.9 0.35 0  0.925 0.35 0  0.95 0.35 0  0.975 0.35 0  1 0.35 0  0 0.375 0  0.025 0.375 0  0.05 0.375 0  0.075 0.375 0  0.1 0.375 0  0.125 0.375 0  0.15 0.375 0  0.175 0.375 0  0.2 0.375 0  0.225 0.375 0  0.25 0.375 0  0.275 0.375 0  0.3 0.375 0  0.325 0.375 0  0.35 0.375 0  0.375 0.375 0  0.4 0.375 0  0.425 0.375 0  0.45 0.375 0  0.475 0.375 0  0.5 0.375 0  0.525 0.375 0  0.55 0.375 0  0.575 0.375 0  0.6 0.375 0  0.625 0.375 0  0.65 0.375 0  0.675 0.375 0  0.7 0.375 0  0.725 0.375 0  0.75 0.375 0  0.775 0.375 0  0.8 0.375 0  0.825 0.375 0  0.85 0.375 0  0.875 0.375 0  0.9 0.375 0  0.925 0.375 0  0.95 0.375 0  0.975 0.375 0  1 0.375 0  0 0.4 0  0.025 0.4 0  0.05 0.4 0  0.075 0.4 0  0.1 0.4 0  0.125 0.4 0  0.15 0.4 0  0.175 0.4 0  0.2 0.4 0  0.225 0.4 0  0.25 0.4 0  0.275 0.4 0  0.3 0.4 0  0.325 0.4 0  0.35 0.4 0  0.375 0.4 0  0.4 0.4 0  0.425 0.4 0  0.45 0.4 0  0.475 0.4 0  0.5 0.4 0  0.525 0.4 0  0.55 0.4 0  0.575 0.4 0  0.6 0.4 0  0.625 0.4 0  0.65 0.4 0  0.675 0.4 0  0.7 0.4 0  0.725 0.4 0  0.75 0.4 0  0.775 0.4 0  0.8 0.4 0  0.825 0.4 0  0.85 0.4 0  0.875 0.4 0  0.9 0.4 0  0.925 0.4 0  0.95 0.4 0  0.975 0.4 0  1 0.4 0  0 0.425 0  0.025 0.425 0  0.05 0.425 0  0.075 0.425 0  0.1 0.425 0  0.125 0.425 0  0.15 0.425 0  0.175 0.425 0  0.2 0.425 0  0.225 0.425 0  0.25 0.425 0  0.275 0.425 0  0.3 0.425 0  0.325 0.425 0  0.35 0.425 0  0.375 0.425 0  0.4 0.425 0  0.425 0.425 0  0.45 0.425 0  0.475 0.425 0  0.5 0.425 0  0.525 0.425 0  0.55 0.425 0  0.575 0.425 0  0.6 0.425 0  0.625 0.425 0  0.65 0.425 0  0.675 0.425 0  0.7 0.425 0  0.725 0.425 0  0.75 0.425 0  0.775 0.425 0  0.8 0.425 0  0.825 0.425 0  0.85 0.425 0  0.875 0.425 0  0.9 0.425 0  0.925 0.425 0  0.95 0.425 0  0.975 0.425 0  1 0.425 0  0 0.45 0  0.02
[...]
<PointData  Scalars="ControlVisualisation"> 
<DataArray  type="Float64"  Name="ControlVisualisation"  format="ascii">2.2848522483315124e-02  1.5021196669750648e-02  1.5123464837215307e-02  1.5285317103284665e-02  1.5480645795322571e-02  1.5683700515255208e-02  1.5873491668089948e-02  1.6036557894109189e-02  1.6166499421719278e-02  1.6262069284938844e-02  1.6325147186638026e-02  1.6359189252946393e-02  1.6368233187187980e-02  1.6356322970602181e-02  1.6327206028988961e-02  1.6284201690774894e-02  1.6230176473946704e-02  1.6167580362704385e-02  1.6098509213877028e-02  1.6024769249824697e-02  1.5947930757823026e-02  1.5869367288545249e-02  1.5790282270635600e-02  1.5711727161030621e-02  1.5634615149028513e-02  1.5559733266367143e-02  1.5487754413672505e-02  1.5419249751520795e-02  1.5354701253057403e-02  1.5294513929598991e-02  1.5239027209939107e-02  1.5188525062824315e-02  1.5143244638927838e-02  1.5103383257736394e-02  1.5069104150470513e-02  1.5040539947910500e-02  1.5017798920231949e-02  1.5000949965833562e-02  1.4990110687450237e-02  1.4985084536492624e-02  4.8243617948590195e-02  1.5022603545386657e-02  7.4752336851981191e-03  7.6139782757604592e-03  7.8467682157097509e-03  8.1510915954068792e-03  8.4922699300423003e-03  8.8350231580969531e-03  9.1498048402070663e-03  9.4159408572312038e-03  9.6220935178391587e-03  9.7648504541081906e-03  9.8465994483515149e-03  9.8734169170538021e-03  9.8532831586562643e-03  9.7947323839009705e-03  9.7059566666330508e-03  9.5943179256067056e-03  9.4661684495971517e-03  9.3268604743398237e-03  9.1808428239811939e-03  9.0317793079166125e-03  8.8826585458902166e-03  8.7358876351711270e-03  8.5933722933141492e-03  8.4565882195342962e-03  8.3266469768532494e-03  8.2043576075140710e-03  8.0902837200712945e-03  7.9847951681075655e-03  7.8881134698399139e-03  7.8003504910130229e-03  7.7215403795122504e-03  7.6516651537278900e-03  7.5906745787888757e-03  7.5385014857026989e-03  7.4950721874258337e-03  7.4603162780608962e-03  7.4341676448246687e-03  7.4165581575912996e-03  7.4065611428292943e-03  1.4985085047340321e-02  1.5141640485309841e-02  7.6336666476846601e-03  7.8481528821478259e-03  8.1579305533852915e-03  8.5664313125786394e-03  9.0301105714335125e-03  9.5022965483810822e-03  9.9416674740341968e-03  1.0316988653865683e-02  1.0608862773080846e-02  1.0809147503987808e-02  1.0919018732056458e-02  1.0946369557023472e-02  1.0903067664607122e-02  1.0802529112216273e-02  1.0657938130754911e-02  1.0481205961766828e-02  1.0282541720510996e-02  1.0070411391661933e-02  9.8516829399278114e-03  9.6318294743933178e-03  9.4151311520483966e-03  9.2048580904971720e-03  9.0034339130491640e-03  8.8125832577645620e-03  8.6334652611269429e-03  8.4667931724839978e-03  8.3129393580533457e-03  8.1720250403679081e-03  8.0439947563121054e-03  7.9286762881126526e-03  7.8258274592544596e-03  7.7351715994148059e-03  7.6564235914104769e-03  7.5893086686698646e-03  7.5335743653178961e-03  7.4890035126768161e-03  7.4553932826886826e-03  7.4324446589270074e-03  7.4165806032471500e-03  1.4990122739248411e-02  1.5381721957706110e-02  7.9704470297944190e-03  8.2917636959857419e-03  8.6322578602980957e-03  9.0593652460697980e-03  9.5262972992502994e-03  9.9855133264699809e-03  1.0398974201680844e-02  1.0740191218248788e-02  1.0993903684526407e-02  1.1154855607929903e-02  1.1226136528836233e-02  1.1216997713490419e-02  1.1140266069605038e-02  1.1009889022655286e-02  1.0839150102797951e-02  1.0639730972075049e-02  1.0421442488999134e-02  1.0192322432238941e-02  9.9588593694430270e-03  9.7262192615180827e-03  9.4984386767164673e-03  9.2785884344180700e-03  9.0689198320042137e-03  8.8710011985499836e-03  8.6858465051329967e-03  8.5140341421386153e-03  8.3558129942483458e-03  8.2111936231698511e-03  8.0800236973959990e-03  7.9620481211323379e-03  7.8569552886183693e-03  7.7644114624116269e-03  7.6840854100927170e-03  7.6156656703486505e-03  7.5588710406812925e-03  7.5134601496558004e-03  7.4791950584618457e-03  7.4555208944431066e-03  7.4342985130952440e-03  1.5001032226874853e-02  1.5796244082799959e-02  8.6034329665610632e-03  9.1846676831201079e-03  9.5541607695511181e-03  9.9644870330597192e-03  1.0380300712201600e-02  1.0765374944646112e-02  1.1092769674232223e-02  1.1345202420824277e-02  1.1513297209599749e-02  1.1594926748291863e-02  1.1594915355098824e-02  1.1523654886355884e-02  1.1394534412131889e-02  1.1221283267345721e-02  1.1016223563233984e-02  1.0789632406089154e-02  1.0549833732499642e-02  1.0303550814668039e-02  1.0056236077939535e-02  9.8122939308688470e-03  9.5752182538802206e-03  9.3476907499126134e-03  9.1316732353999078e-03  8.9285072431979310e-03  8.7390206044125410e-03  8.5636345894539202e-03  8.4024644098955430e-03  8.2554077300959448e-03  8.1222184173469665e-03  8.0025650459996656e-03  7.8960752694570945e-03  7.8023680742829839e-03  7.7210761887111850e-03  7.6518611705791639e-03  7.5944216515947084e-03  7.5485000022752057e-03  7.5138257582280195e-03  7.4894936038470096e-03  7.4607581120176951e-03  1.5018103837800398e-02  1.6365771898428052e-02  1.0025950040650995e-02  1.1177781586536272e-02  1.1458299489404590e-02  1.1659605786978602e-02  1.1851131611295543e-02  1.2021951109410354e-02  1.2155681240036628e-02  1.2238821050560653e-02  1.2260316037063849e-02  1.2214669934376612e-02  1.2104667994894430e-02  1.1940272746645244e-02  1.1734679780876093e-02  1.1500516673043483e-02  1.1247959291403603e-02  1.0984625348830893e-02  1.0716271880451610e-02  1.0447506892897416e-02  1.0182209947753674e-02  9.9236845059533802e-03  9.6746699770788435e-03  9.4373218822124266e-03  9.2132165146760793e-03  9.0033948040701139e-03  8.8084376848215577e-03  8.6285577603805869e-03  8.4636928932136455e-03  8.3135915680572735e-03  8.1778845533899015e-03  8.0561411657028899e-03  7.9479109318269323e-03  7.8527527780568457e-03  7.7702542686513467e-03  7.7000436604391870e-03  7.6417953214874389e-03  7.5952328998130291e-03  7.5600455420736738e-03  7.5348654705980076e-03  7.4962033288024470e-03  1.5041362906819945e-02  1.9299272311357678e-02  1.4418196793985809e-02  1.7038861829274221e-02  1.5925974512292173e-02  1.5009485905843572e-02  1.4414981956646037e-02  1.4021898470549580e-02  1.3744116273907928e-02  1.3520930077921507e-02  1.3304385016536201e-02  1.3064210439322167e-02  1.2791452271600409e-02  1.2492652191895862e-02  1.2179611575987161e-02  1.1862234034022662e-02  1.1546414059764532e-02  1.1235050984919247e-02  1.0929756631258617e-02  1.0631992988049566e-02  1.0343462727925912e-02  1.0066033777317695e-02  9.8015024851003871e-03  9.5513786582803739e-03  9.3167621371263824e-03  9.0983133902577760e-03  8.8962924136876207e-03  8.7106350571493404e-03  8.5410413627444743e-03  8.3870591255352355e-03  8.2481538923234472e-03  8.1237625296184598e-03  8.0133311273879321e-03  7.9163398028765705e-03  7.8323174298146128e-03  7.7608494755648768e-03  7.7015795998834615e-03  7.6542080374103075e-03  7.6183720638096173e-03  7.5921174112782291e-03  7.5409386816951297e-03  1.5070932422877631e-02  6.7405496512983054e-02  5.4283396090231202e-02  4.6111681235278562e-02  2.9247710195856338e-02  2.2446065184231066e-02  1.9119835254215355e-02  1.7245806148646580e-02  1.6102662365774623e-02  1.5333092324062136e-02  1.4738935989919837e-02  1.4207503854732814e-02  1.3696996576526572e-02  1.3206370772458127e-02  1.2744834638097759e-02  1.2316572320676266e-02  1.1919153583803358e-02  1.1547202789022513e-02  1.1195765288047549e-02  1.0861773923533031e-02  1.0544059757532219e-02  1.0242733656708206e-02  9.9584963626194560e-03  9.6921194180713717e-03  9.4441455610792917e-03  9.2147710258983304e-03  9.0038481777747655e-03  8.8109518036227526e-03  8.6354675395911244e-03  8.4766770367092591e-03  8.3338275029694146e-03  8.2061820797409996e-03  8.0930524905941294e-03  7.9938175687943175e-03  7.9079316015144736e-03  7.8349263055948973e-03  7.7744071953469518e-03  7.7260454684259586e-03  7.6894128120257197e-03  7.6618317527285991e-03  7.5953440852239984e-03  1.5106947217607971e-02  5.1404224254190112e-01  3.6915492452067578e-01  1.8456444366723851e-01  9.4896631961047986e-02  4.6064744900055167e-02  2.9817207153904620e-02  2.3077024348080691e-02  1.9772553398037060e-02  1.7951132714588015e-02  1.6723305901872067e-02  1.5742341485873168e-02  1.4880358216436945e-02  1.4115165240087383e-02  1.3449488369522256e-02  1.2875641553623940e-02  1.2375304413882765e-02  1.1928834618611760e-02  1.1521107393799029e-02  1.1142741341251199e-02  1.0788949079925647e-02  1.0457821122337623e-02  1.0148875618695275e-02  9.8620927820792809e-03  9.5973878339567376e-03  9.3543977857594371e-03  9.1324578794093267e-03  8.9306712848930530e-03  8.7480082214718580e-03  8.5833987139224549e-03  8.4358035188287980e-03  8.3042603279439853e-03  8.1879087143866373e-03  8.0859994925102253e-03  7.9978939515265510e-03  7.9230576782747652e-03  7.8610498141631312e-03  7.8115063282353818e-03  7.7739175208181906e-03  7.7447301742095721e-03  7.6598852627685664e-03  1.5149571663029123e-02  7.6392133961073294e-01  7.4871724208368517e-01  5.9437801942254309e-01  3.3355608265162418e-01  1.4205710381992318e-01  5.9466364217968359e-02  3.6797272099835111e-02  2.6629302304482433e-02  2.2086049486625757e-02  1.9614005124870552e-02  1.7852058547798057e-02  1.6432147154884277e-02  1.5265224267692298e-02  1.4318995020247803e-02  1.3555774557836190e-02  1.2927502285793873e-02  1.2390772381488892e-02  1.1915190304820864e-02  1.1482858458355873e-02  1.1084629014306195e-02  1.0716421187741939e-02  1.0376580931948621e-02  1.0064292077285193e-02  9.7787735412623901e-03  9.5189790996356716e-03  9.2835743187370326e-03  9.0710356365254138e-03  8.8797781086004130e-03  8.7082646619896491e-03  8.5550802513638131e-03  8.4189714327223639e-03  8.2988592522898804e-03  8.1938348077182400e-03  8.1031453105526452e-03  8.0261765488614089e-03  7.9624325601322671e-03  7.9115076618743504e-03  7.8727925898753777e-03  7.8416854572220772e-03  7.7351202936606408e-03  1.5198997861006929e-02  8.2067111503197454e-01  8.5416087143182595e-01  7.7597487049083846e-01  6.1680933442731101e-01  3.9514779357676555e-01  1.8114576689493905e-01  7.6273747111880508e-02  4.2338743510155763e-02  2.9508235083963864e-02  2.4273666336458596e-02  2.0925754428953613e-02  1.8531793121451052e-02  1.6734113781900678e-02  1.5393296048992262e-02  1.4382419735447700e-02  1.3594857200058548e-02  1.2948745501869263e-02  1.2391205801248912e-02  1.1892929731190398e-02  1.1439606885410262e-02  1.1024969360302068e-02  1.0646326029586917e-02  1.0302109622515713e-02  9.9907544677784177e-03  9.7103448847919299e-03  9.4586465367984436e-03  9.2332799952504242e-03  9.0319049682034309e-03  8.8523577191639991e-03  8.6927287433348974e-03  8.5513898593201753e-03  8.4269871054504612e-03  8.3184149438734010e-03  8.2247830519111588e-03  8.1453829590097202e-03  8.0796549277411429e-03  8.0271454657104089e-03  7.9871248398912971e-03  7.9537443541368141e-03  7.8217117745968626e-03  1.5255448573576419e-02  7.4527455076264071e-01  8.2704428750279302e-01  7.9981355314350810e-01  7.1667606123167327e-01  5.9559633551127311e-01  4.2547650250119573e-01  2.0873597757030593e-01  9.9668416189974546e-02  4.8639158980896255e-02  3.2526365136253212e-02  2.6015032652166401e-02  2.1618426092718232e-02  1.8726754641434841e-02  1.6768020164317728e-02  1.5407979369470227e-02  1.4410410410217903e-02  1.3626411538616094e-02  1.2967545925226850e-02  1.2387373460639428e-02  1.1864786742403433e-02  1.1391317991501792e-02  1.0963513496219693e-02  1.0579147539729886e-02  1.0235723518824331e-02  9.9301517490283167e-03  9.6589343791108513e-03  9.4184879111707826e-03  9.2054248861694731e-03  9.0167326265390372e-03  8.8498499232715373e-03  8.7026689124883195e-03  8.5734936613463542e-03  8.4609807047534638e-03  8.3640774811335090e-03  8.2819670776936877e-03  8.2140183333790640e-03  8.1597248699820761e-03  8.1182126729461151e-03  8.0821571673955692e-03  7.9204420717017797e-03  1.5319180380911542e-02  4.4629111681630546e-01  6.1537221048937862e-01  7.1883003586752514e-01  7.0911934506599039e-01  6.6979851995096384e-01  5.9463444350439321e-01  4.1694321890884345e-01  2.5343245024340733e-01  1.1674194123239104e-01  5.4304915413339663e-02  3.6077065896209154e-02  2.6999296195402818e-02  2.1784274842426694e-02  1.8686935411426877e-02  1.6751484539111627e-02  1.5437882082969699e-02  1.4461276679857624e-02  1.3669832936392850e-02  1.2984982240843226e-02  1.2373664166585164e-02  1.1824589175506771e-02  1.1333889073689358e-02  1.0898791223287680e-02  1.0515593194881363e-02  1.0179517026309665e-02  9.8852187730642787e-03  9.6273782651767458e-03  9.4011354800963825e-03  9.2023216944102544e-03  9.0275197320036620e-03  8.8740150109878624e-03  8.7396946227176683e-03  8.6229344882494986e-03  8.5224962684585601e-03  8.4374424351767070e-03  8.3670651321166023e-03  8.3108022998761317e-03  8.2676089559154640e-03  8.2284178356201616e-03  8.0322338633617221e-03  1.5390488346418416e-02  4.7653948935754163e-02  2.0091765193001751e-01  3.6890984586363562e-01  5.2424520817834708e-01  6.0478586485692920e-01  6.0827027214276019e-01  5.2943721321591719e-01  4.2318711280581667e-01  2.5311761397908800e-01  1.1621276239635708e-01  6.0259931442949125e-02  3.7887816088466204e-02  2.6995207406835735e-02  2.1510827245052558e-02  1.8574889663005592e-02  1.6775946886174922e-02  1.5511154834289137e-02  1.4534189069782351e-02  1.3709928256341170e-02  1.2982201401003202e-02  1.2334540583041734e-02  1.1762723438912517e-02  1.1263392332616633e-02  1.0831082194524826e-02  1.0458452342649870e-02  1.0137385160309806e-02  9.8600184112474596e-03  9.6194098332501449e-03  9.4098215502196030e-03  9.2267266008427464e-03  9.0666608075185614e-03  8.9270193787001160e-03  8.8058600100078110e-03  8.7017401188612571e-03  8.6135934076304113e-03  8.5406337110736155e-03  8.4822441513729852e-03  8.4371795468924198e-03  8.3943173670928649e-03  8.1581765520133253e-03  1.5469711678604448e-02  1.9481241609322273e-02  3.9504702072424194e-02  1.4552164032207238e-01  2.6016458337020126e-01  3.9822412480456443e-01  4.8250081088043006e-01  4.9881267307360955e-01  4.6079278174603061e-01  3.4801567267785993e-01  2.0904658596487943e-01  1.1211107973316520e-01  6.1181715743351427e-02  3.7140926834562722e-02  2.5899783773567202e-02  2.1014311263568428e-02  1.8496512786643080e-02  1.6845302811827400e-02  1.5609876906289247e-02  1.4593021546798536e-02  1.3708158707746349e-02  1.2930102865941227e-02  1.2253236182603693e-02  1.1672880584735914e-02  1.1180622657463151e-02  1.0765073956049276e-02  1.0413893932242992e-02  1.0115492125523972e-02  9.8600001074289068e-03  9.6395829403121743e-03  9.4483144843075274e-03  9.2818434102629552e-03  9.1370164709332867e-03  9.0115517430030805e-03  8.9037934312909059e-03  8.8125427555051268e-03  8.7369368087780088e-03  8.6763091425322448e-03  8.6291833446049317e-03  8.5820143499437049e-03  8.2995589911613842e-03  1.5557239732301406e-02  1.7861761836368169e-02  1.8315323885522927e-02  5.1227449621978810e-02  1.0537429427673170e-01  1.9564063933125714e-01  2.9303463729671070e-01  3.6862858363678086e-01  3.9563895366684232e-01  3.6413434712374920e-01  2.8861325758634426e-01  1.9041940390462930e-01  1.0705274236217735e-01  6.0196039210460170e-02  3.5469886514430643e-02  2.5267248551443886e-02  2.0804799122118668e-02  1.8555607144558488e-02  1.6965350655844178e-02  1.5672879130803750e-02  1.4569204401813831e-02  1.3616582568738456e-02  1.2803967157268392e-02  1.2122689264716132e-02  1.1558899627963149e-02  1.1094673643501708e-02  1.0711248943592712e-02  1.0391628792533280e-02  1.0121913777226212e-02  9.8915562693555528e-03  9.6929567524715616e-03  9.5207942815714250e-03  9.3713631062173185e-03  9.2420516458915514e-03  9.1309919003555069e-03  9.0368466222624892e-03  8.9586740756363373e-03  8.8957656548172125e-03  8.8463823936704156e-03  8.7941265716204777e-03  8.4579074752085173e-03  1.5653516366308313e-02  1.7631446703364723e-02  1.5049185877958912e-02  2.6996891627747495e-02  4.3878330495345980e-02  8.3911780556315999e-02  1.6037768038728986e-01  2.5695272939141744e-01  3.3551747415590433e-01  3.7129011678060458e-01  3.5003670089638739e-01  2.7639744782576575e-01  1.8368600960186665e-01  1.0952676514325216e-01  6.0632509485834943e-02  3.5648086531402959e-02  2.5153850006603237e-02  2.1089035115829102e-02  1.8772047675004840e-02  1.7010516690201708e-02  1.5580964918055225e-02  1.4391258228284123e-02  1.3405057537821820e-02  1.2601214636722900e-02  1.1955362196260659e-02  1.1439008914314614e-02  1.1023784906471667e-02  1.0685046759950679e-02  1.0403535472239305e-02  1.0165388649397334e-02  9.9611950706617811e-03  9.7847365706556118e-03  9.6318596783311981e-03  9.4996771594274988e-03  9.3861033876122997e-03  9.2896268758099095e-03  9.2091976311421062e-03  9.1440640255663810e-03  9.0921958031985137e-03  9.0338473516379490e-03  8.6350242322763213e-03  1.5759038214599168e-02  1.7256920528282021e-02  1.3196080424136242e-02  1.9193723744810955e-02  2.4757302077840233e-02  3.6779891295662739e-02  6.8303795300706072e-02  1.3892076764202865e-01  2.3534114159548331e-01  3.1448764842127042e-01  3.4645751048475798e-01  3.2861084343327790e-01  2.7442711802357028e-01  1.9514932335097995e-01  1.1280991693149756e-01  6.0107396899278610e-02  3.5447286741889884e-02  2.6169463267707596e-02  2.1647444100517096e-02  1.8778287838521566e-02  1.6769393167442272e-02  1.5239944781410426e-02  1.4034446353435105e-02  1.3087919036536371e-02  1.2353827651705354e-02  1.1786763837030225e-02  1.1344486774951184e-02  1.0991987520983335e-02  1.0703264828875908e-02  1.0460780299156322e-02  1.0253541575208204e-02  1.0074833695111116e-02  9.9203442345781254e-03  9.7869947286272681e-03  9.6724068958684659e-03  9.5747559884540347e-03  9.4927671552988199e-03  9.4256041974955188e-03  9.3709224447698584e-03  9.3050870720099224e-03  8.8330126507273066e-03  1.5874337506664723e-02  1.6856404740934982e-02  1.1848365389053532e-02  1.5489093484715727e-02  1.7947308666572129e-02  2.2169664450681529e-02  3.1503922582393408e-02  5.6429163319256744e-02  1.2222222973014979e-01  2.3012949723047352e-01  3.1652642332846920e-01  3.5203800493484894e-01  3.4474920662898062e-01  2.8884094108176783e-01  1.9279832789834692e-01  1.0830225883019029e-01  5.9603174335233690e-02  3.7818239227096026e-02  2.7190683649271359e-02  2.1476947157631446e-02  1.8231454386584706e-02  1.6145403685533667e-02  1.4657900246709746e-02  1.3554805282217077e-02  1.2735472285680076e-02  1.2127020335816998e-02  1.1668175126760173e-02  1.1310736594052599e-02  1.1020976239792549e-02  1.0778049856994595e-02  1.0570409655244740e-02  1.0391824077397241e-02  1.0238325695073857e-02  1.0106631382436190e-02  9.9937495728045118e-03  9.8971434905002088e-03  9.8149825378022124e-03  9.7461853464537677e-03  9.6880817640776426e-03  9.6126351414560409e-03  9.0542552210736687e-03  1.5999928661348712e-02  1.6444258492672566e-02  1.0695634929247771e-02  1.3046264252325083e-02  1.4511368497855927e-02  1.6754159483351370e-02  2.0666299757127516e-02  2.8854096565266031e-02  5.0231475037639167e-02  1.1192693234120588e-01  2.3554764866986572e-01  3.3998788977650707e-01  3.8145072319243545e-01  3.5920501529120319e-01  2.8377410546569665e-01  1.8708606443003611e-01  1.0807581947806688e-01  6.2287354490093969e-02  3.8309578073321457e-02  2.6194717516077926e-02  2.0248026359927382e-02  1.7125389623686656e-02  1.5245318640090683e-02  1.3977610501381941e-02  1.3088168582602831e-02  1.2457504970612852e-02  1.1998361571598979e-02  1.1646433665739437e-02  1.1360478221991693e-02  1.1118485735079318e-02  1.0911064281948581e-02  1.0734482333543193e-02  1.0585708462892616e-02  1.0460625413781186e-02  1.0354540627900760e-02  1.0263218005418479e-02  1.0183551270116253e-02  1.0113833694818794e-02  1.0051028510071417e-02  9.9623361151439799e-03  9.3012409928814460e-03  1.6136162919721996e-02  1.6044477455019916e-02  9.7307069484025323e-03  1.1296881500148287e-02  1.2351438717069351e-02  1.3932172474136216e-02  1.6376568478850072e-02  2.0429278575625306e-02  2.8426789732990357e-02  4.841113442