<?xml version="1.0"?>
<VTKFile type="UnstructuredGrid"  version="0.1"  >
<UnstructuredGrid>
<Piece  NumberOfPoints="1681" NumberOfCells="3200">
<Points>
<DataArray  type="Float64"  NumberOfComponents="3"  format="ascii">0 0 0  0.025 0 0  0.05 0 0  0.075 0 0  0.1 0 0  0.125 0 0  0.15 0 0  0.175 0 0  0.2 0 0  0.225 0 0  0.25 0 0  0.275 0 0  0.3 0 0  0.325 0 0  0.35 0 0  0.375 0 0  0.4 0 0  0.425 0 0  0.45 0 0  0.475 0 0  0.5 0 0  0.525 0 0  0.55 0 0  0.575 0 0  0.6 0 0  0.625 0 0  0.65 0 0  0.675 0 0  0.7 0 0  0.725 0 0  0.75 0 0  0.775 0 0  0.8 0 0  0.825 0 0  0.85 0 0  0.875 0 0  0.9 0 0  0.925 0 0  0.95 0 0  0.975 0 0  1 0 0  0 0.025 0  0.025 0.025 0  0.05 0.025 0  0.075 0.025 0  0.1 0.025 0  0.125 0.025 0  0.15 0.025 0  0.175 0.025 0  0.2 0.025 0  0.225 0.025 0  0.25 0.025 0  0.275 0.025 0  0.3 0.025 0  0.325 0.025 0  0.35 0.025 0  0.375 0.025 0  0.4 0.025 0  0.425 0.025 0  0.45 0.025 0  0.475 0.025 0  0.5 0.025 0  0.525 0.025 0  0.55 0.025 0  0.575 0.025 0  0.6 0.025 0  0.625 0.025 0  0.65 0.025 0  0.675 0.025 0  0.7 0.025 0  0.725 0.025 0  0.75 0.025 0  0.775 0.025 0  0.8 0.025 0  0.825 0.025 0  0.85 0.025 0  0.875 0.025 0  0.9 0.025 0  0.925 0.025 0  0.95 0.025 0  0.975 0.025 0  1 0.025 0  0 0.05 0  0.025 0.05 0  0.05 0.05 0  0.075 0.05 0  0.1 0.05 0  0.125 0.05 0  0.15 0.05 0  0.175 0.05 0  0.2 0.05 0  0.225 0.05 0  0.25 0.05 0  0.275 0.05 0  0.3 0.05 0  0.325 0.05 0  0.35 0.05 0  0.375 0.05 0  0.4 0.05 0  0.425 0.05 0  0.45 0.05 0  0.475 0.05 0  0.5 0.05 0  0.525 0.05 0  0.55 0.05 0  0.575 0.05 0  0.6 0.05 0  0.625 0.05 0  0.65 0.05 0  0.675 0.05 0  0.7 0.05 0  0.725 0.05 0  0.75 0.05 0  0.775 0.05 0  0.8 0.05 0  0.825 0.05 0  0.85 0.05 0  0.875 0.05 0  0.9 0.05 0  0.925 0.05 0  0.95 0.05 0  0.975 0.05 0  1 0.05 0  0 0.075 0  0.025 0.075 0  0.05 0.075 0  0.075 0.075 0  0.1 0.075 0  0.125 0.075 0  0.15 0.075 0  0.175 0.075 0  0.2 0.075 0  0.225 0.075 0  0.25 0.075 0  0.275 0.075 0  0.3 0.075 0  0.325 0.075 0  0.35 0.075 0  0.375 0.075 0  0.4 0.075 0  0.425 0.075 0  0.45 0.075 0  0.475 0.075 0  0.5 0.075 0  0.525 0.075 0  0.55 0.075 0  0.575 0.075 0  0.6 0.075 0  0.625 0.075 0  0.65 0.075 0  0.675 0.075 0  0.7 0.075 0  0.725 0.075 0  0.75 0.075 0  0.775 0.075 0  0.8 0.075 0  0.825 0.075 0  0.85 0.075 0  0.875 0.075 0  0.9 0.075 0  0.925 0.075 0  0.95 0.075 0  0.975 0.075 0  1 0.075 0  0 0.1 0  0.025 0.1 0  0.05 0.1 0  0.075 0.1 0  0.1 0.1 0  0.125 0.1 0  0.15 0.1 0  0.175 0.1 0  0.2 0.1 0  0.225 0.1 0  0.25 0.1 0  0.275 0.1 0  0.3 0.1 0  0.325 0.1 0  0.35 0.1 0  0.375 0.1 0  0.4 0.1 0  0.425 0.1 0  0.45 0.1 0  0.475 0.1 0  0.5 0.1 0  0.525 0.1 0  0.55 0.1 0  0.575 0.1 0  0.6 0.1 0  0.625 0.1 0  0.65 0.1 0  0.675 0.1 0  0.7 0.1 0  0.725 0.1 0  0.75 0.1 0  0.775 0.1 0  0.8 0.1 0  0.825 0.1 0  0.85 0.1 0  0.875 0.1 0  0.9 0.1 0  0.925 0.1 0  0.95 0.1 0  0.975 0.1 0  1 0.1 0  0 0.125 0  0.025 0.125 0  0.05 0.125 0  0.075 0.125 0  0.1 0.125 0  0.125 0.125 0  0.15 0.125 0  0.175 0.125 0  0.2 0.125 0  0.225 0.125 0  0.25 0.125 0  0.275 0.125 0  0.3 0.125 0  0.325 0.125 0  0.35 0.125 0  0.375 0.125 0  0.4 0.125 0  0.425 0.125 0  0.45 0.125 0  0.475 0.125 0  0.5 0.125 0  0.525 0.125 0  0.55 0.125 0  0.575 0.125 0  0.6 0.125 0  0.625 0.125 0  0.65 0.125 0  0.675 0.125 0  0.7 0.125 0  0.725 0.125 0  0.75 0.125 0  0.775 0.125 0  0.8 0.125 0  0.825 0.125 0  0.85 0.125 0  0.875 0.125 0  0.9 0.125 0  0.925 0.125 0  0.95 0.125 0  0.975 0.125 0  1 0.125 0  0 0.15 0  0.025 0.15 0  0.05 0.15 0  0.075 0.15 0  0.1 0.15 0  0.125 0.15 0  0.15 0.15 0  0.175 0.15 0  0.2 0.15 0  0.225 0.15 0  0.25 0.15 0  0.275 0.15 0  0.3 0.15 0  0.325 0.15 0  0.35 0.15 0  0.375 0.15 0  0.4 0.15 0  0.425 0.15 0  0.45 0.15 0  0.475 0.15 0  0.5 0.15 0  0.525 0.15 0  0.55 0.15 0  0.575 0.15 0  0.6 0.15 0  0.625 0.15 0  0.65 0.15 0  0.675 0.15 0  0.7 0.15 0  0.725 0.15 0  0.75 0.15 0  0.775 0.15 0  0.8 0.15 0  0.825 0.15 0  0.85 0.15 0  0.875 0.15 0  0.9 0.15 0  0.925 0.15 0  0.95 0.15 0  0.975 0.15 0  1 0.15 0  0 0.175 0  0.025 0.175 0  0.05 0.175 0  0.075 0.175 0  0.1 0.175 0  0.125 0.175 0  0.15 0.175 0  0.175 0.175 0  0.2 0.175 0  0.225 0.175 0  0.25 0.175 0  0.275 0.175 0  0.3 0.175 0  0.325 0.175 0  0.35 0.175 0  0.375 0.175 0  0.4 0.175 0  0.425 0.175 0  0.45 0.175 0  0.475 0.175 0  0.5 0.175 0  0.525 0.175 0  0.55 0.175 0  0.575 0.175 0  0.6 0.175 0  0.625 0.175 0  0.65 0.175 0  0.675 0.175 0  0.7 0.175 0  0.725 0.175 0  0.75 0.175 0  0.775 0.175 0  0.8 0.175 0  0.825 0.175 0  0.85 0.175 0  0.875 0.175 0  0.9 0.175 0  0.925 0.175 0  0.95 0.175 0  0.975 0.175 0  1 0.175 0  0 0.2 0  0.025 0.2 0  0.05 0.2 0  0.075 0.2 0  0.1 0.2 0  0.125 0.2 0  0.15 0.2 0  0.175 0.2 0  0.2 0.2 0  0.225 0.2 0  0.25 0.2 0  0.275 0.2 0  0.3 0.2 0  0.325 0.2 0  0.35 0.2 0  0.375 0.2 0  0.4 0.2 0  0.425 0.2 0  0.45 0.2 0  0.475 0.2 0  0.5 0.2 0  0.525 0.2 0  0.55 0.2 0  0.575 0.2 0  0.6 0.2 0  0.625 0.2 0  0.65 0.2 0  0.675 0.2 0  0.7 0.2 0  0.725 0.2 0  0.75 0.2 0  0.775 0.2 0  0.8 0.2 0  0.825 0.2 0  0.85 0.2 0  0.875 0.2 0  0.9 0.2 0  0.925 0.2 0  0.95 0.2 0  0.975 0.2 0  1 0.2 0  0 0.225 0  0.025 0.225 0  0.05 0.225 0  0.075 0.225 0  0.1 0.225 0  0.125 0.225 0  0.15 0.225 0  0.175 0.225 0  0.2 0.225 0  0.225 0.225 0  0.25 0.225 0  0.275 0.225 0  0.3 0.225 0  0.325 0.225 0  0.35 0.225 0  0.375 0.225 0  0.4 0.225 0  0.425 0.225 0  0.45 0.225 0  0.475 0.225 0  0.5 0.225 0  0.525 0.225 0  0.55 0.225 0  0.575 0.225 0  0.6 0.225 0  0.625 0.225 0  0.65 0.225 0  0.675 0.225 0  0.7 0.225 0  0.725 0.225 0  0.75 0.225 0  0.775 0.225 0  0.8 0.225 0  0.825 0.225 0  0.85 0.225 0  0.875 0.225 0  0.9 0.225 0  0.925 0.225 0  0.95 0.225 0  0.975 0.225 0  1 0.225 0  0 0.25 0  0.025 0.25 0  0.05 0.25 0  0.075 0.25 0  0.1 0.25 0  0.125 0.25 0  0.15 0.25 0  0.175 0.25 0  0.2 0.25 0  0.225 0.25 0  0.25 0.25 0  0.275 0.25 0  0.3 0.25 0  0.325 0.25 0  0.35 0.25 0  0.375 0.25 0  0.4 0.25 0  0.425 0.25 0  0.45 0.25 0  0.475 0.25 0  0.5 0.25 0  0.525 0.25 0  0.55 0.25 0  0.575 0.25 0  0.6 0.25 0  0.625 0.25 0  0.65 0.25 0  0.675 0.25 0  0.7 0.25 0  0.725 0.25 0  0.75 0.25 0  0.775 0.25 0  0.8 0.25 0  0.825 0.25 0  0.85 0.25 0  0.875 0.25 0  0.9 0.25 0  0.925 0.25 0  0.95 0.25 0  0.975 0.25 0  1 0.25 0  0 0.275 0  0.025 0.275 0  0.05 0.275 0  0.075 0.275 0  0.1 0.275 0  0.125 0.275 0  0.15 0.275 0  0.175 0.275 0  0.2 0.275 0  0.225 0.275 0  0.25 0.275 0  0.275 0.275 0  0.3 0.275 0  0.325 0.275 0  0.35 0.275 0  0.375 0.275 0  0.4 0.275 0  0.425 0.275 0  0.45 0.275 0  0.475 0.275 0  0.5 0.275 0  0.525 0.275 0  0.55 0.275 0  0.575 0.275 0  0.6 0.275 0  0.625 0.275 0  0.65 0.275 0  0.675 0.275 0  0.7 0.275 0  0.725 0.275 0  0.75 0.275 0  0.775 0.275 0  0.8 0.275 0  0.825 0.275 0  0.85 0.275 0  0.875 0.275 0  0.9 0.275 0  0.925 0.275 0  0.95 0.275 0  0.975 0.275 0  1 0.275 0  0 0.3 0  0.025 0.3 0  0.05 0.3 0  0.075 0.3 0  0.1 0.3 0  0.125 0.3 0  0.15 0.3 0  0.175 0.3 0  0.2 0.3 0  0.225 0.3 0  0.25 0.3 0  0.275 0.3 0  0.3 0.3 0  0.325 0.3 0  0.35 0.3 0  0.375 0.3 0  0.4 0.3 0  0.425 0.3 0  0.45 0.3 0  0.475 0.3 0  0.5 0.3 0  0.525 0.3 0  0.55 0.3 0  0.575 0.3 0  0.6 0.3 0  0.625 0.3 0  0.65 0.3 0  0.675 0.3 0  0.7 0.3 0  0.725 0.3 0  0.75 0.3 0  0.775 0.3 0  0.8 0.3 0  0.825 0.3 0  0.85 0.3 0  0.875 0.3 0  0.9 0.3 0  0.925 0.3 0  0.95 0.3 0  0.975 0.3 0  1 0.3 0  0 0.325 0  0.025 0.325 0  0.05 0.325 0  0.075 0.325 0  0.1 0.325 0  0.125 0.325 0  0.15 0.325 0  0.175 0.325 0  0.2 0.325 0  0.225 0.325 0  0.25 0.325 0  0.275 0.325 0  0.3 0.325 0  0.325 0.325 0  0.35 0.325 0  0.375 0.325 0  0.4 0.325 0  0.425 0.325 0  0.45 0.325 0  0.475 0.325 0  0.5 0.325 0  0.525 0.325 0  0.55 0.325 0  0.575 0.325 0  0.6 0.325 0  0.625 0.325 0  0.65 0.325 0  0.675 0.325 0  0.7 0.325 0  0.725 0.325 0  0.75 0.325 0  0.775 0.325 0  0.8 0.325 0  0.825 0.325 0  0.85 0.325 0  0.875 0.325 0  0.9 0.325 0  0.925 0.325 0  0.95 0.325 0  0.975 0.325 0  1 0.325 0  0 0.35 0  0.025 0.35 0  0.05 0.35 0  0.075 0.35 0  0.1 0.35 0  0.125 0.35 0  0.15 0.35 0  0.175 0.35 0  0.2 0.35 0  0.225 0.35 0  0.25 0.35 0  0.275 0.35 0  0.3 0.35 0  0.325 0.35 0  0.35 0.35 0  0.375 0.35 0  0.4 0.35 0  0.425 0.35 0  0.45 0.35 0  0.475 0.35 0  0.5 0.35 0  0.525 0.35 0  0.55 0.35 0  0.575 0.35 0  0.6 0.35 0  0.625 0.35 0  0.65 0.35 0  0.675 0.35 0  0.7 0.35 0  0.725 0.35 0  0.75 0.35 0  0.775 0.35 0  0.8 0.35 0  0.825 0.35 0  0.85 0.35 0  0.875 0.35 0  0.9 0.35 0  0.925 0.35 0  0.95 0.35 0  0.975 0.35 0  1 0.35 0  0 0.375 0  0.025 0.375 0  0.05 0.375 0  0.075 0.375 0  0.1 0.375 0  0.125 0.375 0  0.15 0.375 0  0.175 0.375 0  0.2 0.375 0  0.225 0.375 0  0.25 0.375 0  0.275 0.375 0  0.3 0.375 0  0.325 0.375 0  0.35 0.375 0  0.375 0.375 0  0.4 0.375 0  0.425 0.375 0  0.45 0.375 0  0.475 0.375 0  0.5 0.375 0  0.525 0.375 0  0.55 0.375 0  0.575 0.375 0  0.6 0.375 0  0.625 0.375 0  0.65 0.375 0  0.675 0.375 0  0.7 0.375 0  0.725 0.375 0  0.75 0.375 0  0.775 0.375 0  0.8 0.375 0  0.825 0.375 0  0.85 0.375 0  0.875 0.375 0  0.9 0.375 0  0.925 0.375 0  0.95 0.375 0  0.975 0.375 0  1 0.375 0  0 0.4 0  0.025 0.4 0  0.05 0.4 0  0.075 0.4 0  0.1 0.4 0  0.125 0.4 0  0.15 0.4 0  0.175 0.4 0  0.2 0.4 0  0.225 0.4 0  0.25 0.4 0  0.275 0.4 0  0.3 0.4 0  0.325 0.4 0  0.35 0.4 0  0.375 0.4 0  0.4 0.4 0  0.425 0.4 0  0.45 0.4 0  0.475 0.4 0  0.5 0.4 0  0.525 0.4 0  0.55 0.4 0  0.575 0.4 0  0.6 0.4 0  0.625 0.4 0  0.65 0.4 0  0.675 0.4 0  0.7 0.4 0  0.725 0.4 0  0.75 0.4 0  0.775 0.4 0  0.8 0.4 0  0.825 0.4 0  0.85 0.4 0  0.875 0.4 0  0.9 0.4 0  0.925 0.4 0  0.95 0.4 0  0.975 0.4 0  1 0.4 0  0 0.425 0  0.025 0.425 0  0.05 0.425 0  0.075 0.425 0  0.1 0.425 0  0.125 0.425 0  0.15 0.425 0  0.175 0.425 0  0.2 0.425 0  0.225 0.425 0  0.25 0.425 0  0.275 0.425 0  0.3 0.425 0  0.325 0.425 0  0.35 0.425 0  0.375 0.425 0  0.4 0.425 0  0.425 0.425 0  0.45 0.425 0  0.475 0.425 0  0.5 0.425 0  0.525 0.425 0  0.55 0.425 0  0.575 0.425 0  0.6 0.425 0  0.625 0.425 0  0.65 0.425 0  0.675 0.425 0  0.7 0.425 0  0.725 0.425 0  0.75 0.425 0  0.775 0.425 0  0.8 0.425 0  0.825 0.425 0  0.85 0.425 0  0.875 0.425 0  0.9 0.425 0  0.925 0.425 0  0.95 0.425 0  0.975 0.425 0  1 0.425 0  0 0.45 0  0.02
[...]
<PointData  Scalars="ControlVisualisation"> 
<DataArray  type="Float64"  Name="ControlVisualisation"  format="ascii">1.2232615380315241e-01  8.2756215962814017e-02  8.2796541906141330e-02  8.2880653495621612e-02  8.3012203413572627e-02  8.3181704077691376e-02  8.3370065874822388e-02  8.3557413536422917e-02  8.3728951972348364e-02  8.3876009277253138e-02  8.3994416429754498e-02  8.4082690564208973e-02  8.4141013858380784e-02  8.4170836385550230e-02  8.4174665656981423e-02  8.4155798339252852e-02  8.4117963979475130e-02  8.4064949680719092e-02  8.4000286080821579e-02  8.3927046361293417e-02  8.3847770577508210e-02  8.3764494361877578e-02  8.3678842675866699e-02  8.3592146767245482e-02  8.3505551433581432e-02  8.3420093569177733e-02  8.3336746353311106e-02  8.3256433087607662e-02  8.3180019778453129e-02  8.3108296740531329e-02  8.3041958047334524e-02  8.2981585024132609e-02  8.2927637239610733e-02  8.2880451757272641e-02  8.2840250877021182e-02  8.2807153500685904e-02  8.2781199914881420e-02  8.2762346715444468e-02  8.2750572429320018e-02  8.2745590944224859e-02  2.2995223384706132e-01  8.2754615938741505e-02  4.2127662006411104e-02  4.2194934557656660e-02  4.2335811728619055e-02  4.2561942613972226e-02  4.2860980724490988e-02  4.3203575423700076e-02  4.3556638263651304e-02  4.3893028122984463e-02  4.4194198288459469e-02  4.4448359089244348e-02  4.4648227228604467e-02  4.4790054571786017e-02  4.4873516179526389e-02  4.4901582715637073e-02  4.4879959108939355e-02  4.4816140510527805e-02  4.4718337588497914e-02  4.4594527096624030e-02  4.4451793919297530e-02  4.4296015809318807e-02  4.4131845680583454e-02  4.3962891676284366e-02  4.3791984556898783e-02  4.3621442822710618e-02  4.3453280849080567e-02  4.3289339670559659e-02  4.3131345426383069e-02  4.2980914369726619e-02  4.2839527335202049e-02  4.2708493917485935e-02  4.2588920815724796e-02  4.2481692540773767e-02  4.2387467197340142e-02  4.2306687555040232e-02  4.2239602199342634e-02  4.2186301375167309e-02  4.2146734753357458e-02  4.2120690487336541e-02  4.2106235287971527e-02  8.2745590738811811e-02  8.2775002245215237e-02  4.2176178412611683e-02  4.2296875593046596e-02  4.2516833557384115e-02  4.2858475153837845e-02  4.3294218101484691e-02  4.3777575236461627e-02  4.4264231161661574e-02  4.4723195229225424e-02  4.5135216615497672e-02  4.5486820938949984e-02  4.5767201786881796e-02  4.5968727284536826e-02  4.6088480377948188e-02  4.6128939337607894e-02  4.6097402720420455e-02  4.6004510122621467e-02  4.5862410895942743e-02  4.5683088992978252e-02  4.5477179757455341e-02  4.5253392509697385e-02  4.5018463583603271e-02  4.4777459471175174e-02  4.4534231487165121e-02  4.4291863872412143e-02  4.4053021515153765e-02  4.3820164450786070e-02  4.3595639918370468e-02  4.3381685575480868e-02  4.3180383028939631e-02  4.2993595400157139e-02  4.2822912272081591e-02  4.2669614701223060e-02  4.2534664194510310e-02  4.2418715061536993e-02  4.2322141541314348e-02  4.2245085911398278e-02  4.2187426263490653e-02  4.2148424814413013e-02  4.2120624320594893e-02  8.2750556451089904e-02  8.2783655517653154e-02  4.2242736798794880e-02  4.2455853326179356e-02  4.2798640952508571e-02  4.3264610105035309e-02  4.3798351996085935e-02  4.4337600443780351e-02  4.4843294233662470e-02  4.5302114409029162e-02  4.5709341882207905e-02  4.6055860148405584e-02  4.6328732757412880e-02  4.6517213429197971e-02  4.6616683051182023e-02  4.6629577261267999e-02  4.6564440057437137e-02  4.6433954289996880e-02  4.6252574114906880e-02  4.6034365297620949e-02  4.5791509126033803e-02  4.5533626812384209e-02  4.5267807225846855e-02  4.4999075629357108e-02  4.4731027883940004e-02  4.4466423080624130e-02  4.4207622262064449e-02  4.3956843803882706e-02  4.3716260467173633e-02  4.3487988022804958e-02  4.3274017832527573e-02  4.3076135432691037e-02  4.2895852274130099e-02  4.2734363913905740e-02  4.2592537454004389e-02  4.2470925562316984e-02  4.2369795981456689e-02  4.2289169147285588e-02  4.2228712166771834e-02  4.2186779814137654e-02  4.2146268482304843e-02  8.2762199407410475e-02  8.2712970798499305e-02  4.2279441303310704e-02  4.2892240929545897e-02  4.3674042055675572e-02  4.4438970467463632e-02  4.5073789969913257e-02  4.5563416699289608e-02  4.5955488721818268e-02  4.6303182168445041e-02  4.6625877092265407e-02  4.6907311202987585e-02  4.7121419165949530e-02  4.7250163819246863e-02  4.7286869225573708e-02  4.7234485142378824e-02  4.7103329115710330e-02  4.6908477699903466e-02  4.6666771261244536e-02  4.6394102204127166e-02  4.6103620886503979e-02  4.5805057913664980e-02  4.5504960861853835e-02  4.5207454140840438e-02  4.4915139693750009e-02  4.4629874217908989e-02  4.4353299393195864e-02  4.4087113599090400e-02  4.3833139017070102e-02  4.3593261193997132e-02  4.3369312666917396e-02  4.3162952918684938e-02  4.2975574915317352e-02  4.2808250256073245e-02  4.2661712553103900e-02  4.2536372405753517e-02  4.2432347383365696e-02  4.2349484091932912e-02  4.2287156153165716e-02  4.2242470210896263e-02  4.2184569525365534e-02  8.2780560694789437e-02  8.4362351432932262e-02  4.3787487096404593e-02  4.7697327123974800e-02  5.1265898016635794e-02  5.3047797426102369e-02  5.2341386530763048e-02  5.0571799016906047e-02  4.9196226152055558e-02  4.8544794756247137e-02  4.8355332798816833e-02  4.8346428765042429e-02  4.8358108515368606e-02  4.8321237178174659e-02  4.8211897260433706e-02  4.8027370228245263e-02  4.7776914337718357e-02  4.7476450116580630e-02  4.7143905861283128e-02  4.6795524641866558e-02  4.6443725413240503e-02  4.6096562322818668e-02  4.5758351290060409e-02  4.5430863277750748e-02  4.5114566852276300e-02  4.4809601454967693e-02  4.4516364668343376e-02  4.4235741074980857e-02  4.3969073771995812e-02  4.3717995243755810e-02  4.3484214784434615e-02  4.3269326451821077e-02  4.3074669345760597e-02  4.2901248092377581e-02  4.2749706899406083e-02  4.2620343552993580e-02  4.2513137854896285e-02  4.2427749438671766e-02  4.2363194485834976e-02  4.2315036367865072e-02  4.2234922678728727e-02  8.2805267368048219e-02  9.3029107657224913e-02  6.5616124059405395e-02  1.4838964613994660e-01  2.0121748139088580e-01  1.8923120266988094e-01  1.4922314404004666e-01  1.0570799557379906e-01  7.5718365567608026e-02  5.9899137362881549e-02  5.3399208630789785e-02  5.1258193411986397e-02  5.0464069587475201e-02  4.9994347385454101e-02  4.9578574427984884e-02  4.9146053953140492e-02  4.8687146526967179e-02  4.8213037866148611e-02  4.7739742391514461e-02  4.7280853725466587e-02  4.6844802073737583e-02  4.6434788951085701e-02  4.6050126714434036e-02  4.5688031353977560e-02  4.5345231142031941e-02  4.5019073159220477e-02  4.4708062586481294e-02  4.4411933067969422e-02  4.4131416521869186e-02  4.3867879614644334e-02  4.3622953138219386e-02  4.3398228223269261e-02  4.3195048121701177e-02  4.3014393954544129e-02  4.2856846676905300e-02  4.2722600329186657e-02  4.2611486855840271e-02  4.2522936354877694e-02  4.2455509966192718e-02  4.2402984287902887e-02  4.2296277588136935e-02  8.2835819831879348e-02  8.6731909750917924e-01  8.5928712969321819e-01  8.9041660917930965e-01  8.8706899796297334e-01  8.2902758509714536e-01  7.4071336372027752e-01  6.7094006835914599e-01  4.2435226546122551e-01  1.9240381057180442e-01  9.8553350443567250e-02  6.6234748268241050e-02  5.6085752464215870e-02  5.3008969302007193e-02  5.1682035676006474e-02  5.0762349462423029e-02  4.9951912238342028e-02  4.9198814921521908e-02  4.8506521082201534e-02  4.7882521316386248e-02  4.7326853861023623e-02  4.6832651096961816e-02  4.6389433728406343e-02  4.5986133271169002e-02  4.5613155108620296e-02  4.5263442554545327e-02  4.4932717486592444e-02  4.4619153730474037e-02  4.4322751898577269e-02  4.4044641319934075e-02  4.3786460188474818e-02  4.3549887933326578e-02  4.3336343936152155e-02  4.3146830928271478e-02  4.2981885932519788e-02  4.2841596035141413e-02  4.2725617834944149e-02  4.2633083151967135e-02  4.2561973223442025e-02  4.2504114877118068e-02  4.2367151448213583e-02  8.2871487208220240e-02  9.8232283726406078e-01  9.8797966900427936e-01  9.8496073006324425e-01  9.8057372825010936e-01  9.7425506335753576e-01  9.6292702614718872e-01  9.3832463531826482e-01  8.8501605461697319e-01  8.0590001194973016e-01  5.6397032614027731e-01  2.3153698252876578e-01  1.0278278068841745e-01  6.6297936430572774e-02  5.6422563655181682e-02  5.3312197682732175e-02  5.1716193015529016e-02  5.0512086477696901e-02  4.9491393533027325e-02  4.8624673290935769e-02  4.7898560512884096e-02  4.7290572858429664e-02  4.6773554428723552e-02  4.6322120652552881e-02  4.5916088887502982e-02  4.5541422875374063e-02  4.5189741793841005e-02  4.4857143253316134e-02  4.4542825400978092e-02  4.4247810819467312e-02  4.3973931813863623e-02  4.3723124917458070e-02  4.3497008389839595e-02  4.3296680247422517e-02  4.3122665801196280e-02  4.2974944403898409e-02  4.2852963674858670e-02  4.2755471493561154e-02  4.2679725947485814e-02  4.2615544762443884e-02  4.2445613172827412e-02  8.2911318317078958e-02  9.9070797452088133e-01  9.9436491920309489e-01  9.9269966174782098e-01  9.9032748730410236e-01  9.8737328673562674e-01  9.8352618752577659e-01  9.7747706683194324e-01  9.6610265230632630e-01  9.4490174701304419e-01  9.1877440209884964e-01  8.5752096471377159e-01  5.2146927945759325e-01  1.9311812526544880e-01  8.7087856605353189e-02  6.1226749091041616e-02  5.4729081288833997e-02  5.2272894436561052e-02  5.0721591442081070e-02  4.9517751938340529e-02  4.8560039257517756e-02  4.7801539322392797e-02  4.7192757303525984e-02  4.6686829936462185e-02  4.6246912032357756e-02  4.5848086609689434e-02  4.5475902409509578e-02  4.5123701851105841e-02  4.4789897806306586e-02  4.4475708778688061e-02  4.4183513643794074e-02  4.3915799678113016e-02  4.3674587188100661e-02  4.3461188719491034e-02  4.3276172628564508e-02  4.3119418215775092e-02  4.2990129245524387e-02  4.2886572779445270e-02  4.2805128937220438e-02  4.2733666083411857e-02  4.2529263512559645e-02  8.2954129270785451e-02  9.9189964306986189e-01  9.9551120983802976e-01  9.9433539864814746e-01  9.9266422441149171e-01  9.9067797318834505e-01  9.8843951167164257e-01  9.8567315679337753e-01  9.8149293581758634e-01  9.7450703481513468e-01  9.6408158549660239e-01  9.4938427665689629e-01  9.2659608406767457e-01  7.9129726868699424e-01  3.7191054614684999e-01  1.2224566529016014e-01  6.7201753805257405e-02  5.5647713068302823e-02  5.2294077225835359e-02  5.0535985203439118e-02  4.9289912755420787e-02  4.8351128519490416e-02  4.7634929699386847e-02  4.7069857587625760e-02  4.6597480941370423e-02  4.6177610844682693e-02  4.5787184503693200e-02  4.5415901662461136e-02  4.5061489356092388e-02  4.4725865528235820e-02  4.4412506468880647e-02  4.4124887926740367e-02  4.3865720581733415e-02  4.3636692844472968e-02  4.3438487886931089e-02  4.3270897287082444e-02  4.3132845186523230e-02  4.3022016362731112e-02  4.2933757254247362e-02  4.2854172749178812e-02  4.2615257896307393e-02  8.2998516615423124e-02  9.8943877493246724e-01  9.9473794533310422e-01  9.9375780724136853e-01  9.9243703851305753e-01  9.9099996106163246e-01  9.8953685590030593e-01  9.8793301579499448e-01  9.8581819791704051e-01  9.8263664090029967e-01  9.7801826483649856e-01  9.7223447160588528e-01  9.6237184789525532e-01  9.4155363989723106e-01  9.0910239307646501e-01  6.0138010453000024e-01  1.6813730419325840e-01  7.2680849018515403e-02  5.5755314063204262e-02  5.1769556159883594e-02  5.0031353896224831e-02  4.8906767540761550e-02  4.8089194551499563e-02  4.7468333312724167e-02  4.6966916529335948e-02  4.6529376629516783e-02  4.6122753231094438e-02  4.5732440723093945e-02  4.5355658061564566e-02  4.4995637398973484e-02  4.4657609805648688e-02  4.4346538628736179e-02  4.4066128279843117e-02  4.3818591273195137e-02  4.3604774855798112e-02  4.3424376210268990e-02  4.3275995926454300e-02  4.3156640198393229e-02  4.3060483798849858e-02  4.2972174131879981e-02  4.2700380331207349e-02  8.3042890810766434e-02  9.7533380339450571e-01  9.9008858964415136e-01  9.8991023135743728e-01  9.8948342498444097e-01  9.8897709733064265e-01  9.8844334843518511e-01  9.8778256213190185e-01  9.8678799184526722e-01  9.8521145944791322e-01  9.8286799694845550e-01  9.7986102011484499e-01  9.7597254914782061e-01  9.6758687370519181e-01  9.4738091856933271e-01  9.3220149756160209e-01  7.5617389293040704e-01  2.0702997010561591e-01  7.5328458379505303e-02  5.5004488368287738e-02  5.0906905673890342e-02  4.9423199477804651e-02  4.8542942066929551e-02  4.7896892732177163e-02  4.7376246598459362e-02  4.6920861814328779e-02  4.6494118115761408e-02  4.6079387338991508e-02  4.5674284893840129e-02  4.5283936781447695e-02  4.4915762279044813e-02  4.4576465785693811e-02  4.4270817797456709e-02  4.4001507182887520e-02  4.3769452129563971e-02  4.3574162000555146e-02  4.3413834093243675e-02  4.3284714121865853e-02  4.3179714771730632e-02  4.3082433646043528e-02  4.2781182323361769e-02  8.3085537295273307e-02  6.0863864313605254e-01  9.4894746159954935e-01  9.7025639554882803e-01  9.7848457175470582e-01  9.8231712204918753e-01  9.8435632479615665e-01  9.8540200191045324e-01  9.8574941381883741e-01  9.8548154140926669e-01  9.8461243190003800e-01  9.8321136674484200e-01  9.8127745222846696e-01  9.7768957130593814e-01  9.6871461623884536e-01  9.4791415385902045e-01  9.3099720305443823e-01  7.8773651982107229e-01  2.1780471798629580e-01  7.4500872780981608e-02  5.3821884832043920e-02  5.0100235840172112e-02  4.9002798675108948e-02  4.8388598952541197e-02  4.7881350084191268e-02  4.7405986616976134e-02  4.6941503396338909e-02  4.6481921917362633e-02  4.6030417707190525e-02  4.5595400056667443e-02  4.5186397505866574e-02  4.4811217663082992e-02  4.4474900089165319e-02  4.4179921662509752e-02  4.3926780774040927e-02  4.3714461877797997e-02  4.3540552816665135e-02  4.3400462300570514e-02  4.3285844618356134e-02  4.3179744308502008e-02  4.2854175646562125e-02  8.3124697330433511e-02  9.1474777993580780e-02  1.8460135101447378e-01  7.8964284183722389e-01  9.0691040435080783e-01  9.6086596538885694e-01  9.7445159298614970e-01  9.8004463539635478e-01  9.8302218487542159e-01  9.8457577432349075e-01  9.8520444498834459e-01  9.8512534510128469e-01  9.8440369274595285e-01  9.8266958621958811e-01  9.7815005603068450e-01  9.6691323600263002e-01  9.4319113715492642e-01  9.1601940324284792e-01  7.2398872318208318e-01  2.0365397961026560e-01  7.2224723151219278e-02  5.2967800025836675e-02  4.9772439738479404e-02  4.9010896703918450e-02  4.8558993679205388e-02  4.8076296138568814e-02  4.7545737275897670e-02  4.6997660605420294e-02  4.6458729985308644e-02  4.5947503581398472e-02  4.5476027594794494e-02  4.5051074099413432e-02  4.4675496238426947e-02  4.4349630072882423e-02  4.4072180787281562e-02  4.3840652774126986e-02  4.3651469954477745e-02  4.3499064645350298e-02  4.3373994630210633e-02  4.3259400304344442e-02  4.2916020603490396e-02  8.3158638026560205e-02  8.3878252950519955e-02  5.2919922886305336e-02  1.7228014666312860e-01  5.2458930423818784e-01  9.1035373924058949e-01  9.5927601830338971e-01  9.7349728781091238e-01  9.8007829796525947e-01  9.8361079035990162e-01  9.8565935434882646e-01  9.8665880572546227e-01  9.8674171952963996e-01  9.8592994930927202e-01  9.8355857262504032e-01  9.7706771775680346e-01  9.6209354342891340e-01  9.3283682221035513e-01  8.8151581249562161e-01  6.2387437938141876e-01  1.8818229725069421e-01  7.1755306157796850e-02  5.3227944104145164e-02  5.0178353410312460e-02  4.9487739941968020e-02  4.8991000849493732e-02  4.8381064961447423e-02  4.7696417274378511e-02  4.7010518141905974e-02  4.6370863287529318e-02  4.5799206357673414e-02  4.5301088778773785e-02  4.4873318105685817e-02  4.4509653542413465e-02  4.4204149690884612e-02  4.3951273009260564e-02  4.3745059361057451e-02  4.3578355047080783e-02  4.3441065230529180e-02  4.3317624602500576e-02  4.2963567172451880e-02  8.3185636773201066e-02  8.4556743713580171e-02  4.7341110453942382e-02  6.0288773114261895e-02  1.2488829722283769e-01  4.0835388522478855e-01  7.9065113874374748e-01  9.4464689216264086e-01  9.7130604157931510e-01  9.7978201333912929e-01  9.8427480272810575e-01  9.8687312547902328e-01  9.8790256445554869e-01  9.8780893563954664e-01  9.8665139864846063e-01  9.8312858465309694e-01  9.7372211455006319e-01  9.5492254022764778e-01  9.2023778485886587e-01  8.3999730324049204e-01  5.6084811278430380e-01  1.9287754674215471e-01  7.6896901987467917e-02  5.5389256413587655e-02  5.1305622073414200e-02  5.0170010496444109e-02  4.9368099537955498e-02  4.8515775860437635e-02  4.7647161312693906e-02  4.6839915630730325e-02  4.6139299060849626e-02  4.5552660963427763e-02  4.5064454515527097e-02  4.4657490829770108e-02  4.4322021451854987e-02  4.4048774468674667e-02  4.3825454438972650e-02  4.3641250235895004e-02  4.3487049359473229e-02  4.3351676865040378e-02  4.2993482611276085e-02  8.3203740373860385e-02  8.4752697599988311e-02  4.6782382217888246e-02  5.1310527352458196e-02  6.0204785965194185e-02  1.0299987741875000e-01  3.1238718203756477e-01  6.8543625253003482e-01  9.3068926003506425e-01  9.6557331267650426e-01  9.7489925068556005e-01  9.8254818057737814e-01  9.8669481375307933e-01  9.8807569802542727e-01  9.8788339427756333e-01  9.8606722749325026e-01  9.8061446265610486e-01  9.6861093934811648e-01  9.4956544458044012e-01  9.1599525136153437e-01  8.2964613979409330e-01  5.7755570923000932e-01  2.4012888130749524e-01  9.5746764226808334e-02  6.1682233028358943e-02  5.3468976785797248e-02  5.0816883453822376e-02  4.9339275396305081e-02  4.8165610414076965e-02  4.7167990810454148e-02  4.6346007710814804e-02  4.5689968624958714e-02  4.5166241926481714e-02  4.4741734443200405e-02  4.4400817068392051e-02  4.4128629206049347e-02  4.3900405392976169e-02  4.3697811887027628e-02  4.3516443555304603e-02  4.3359194438395754e-02  4.3001121173440661e-02  8.3210112002233716e-02  8.4621815944657230e-02  4.6331320161706331e-02  4.9389752865551383e-02  5.2090373722532071e-02  5.9158415927016358e-02  9.2210197358637364e-02  2.7130762407758680e-01  7.0888246165567870e-01  9.4578305321898937e-01  9.6859767012954923e-01  9.6804141382475251e-01  9.7699099361707087e-01  9.8451380717620807e-01  9.8686393273197226e-01  9.8650886173186270e-01  9.8345589585252957e-01  9.7641946847521655e-01  9.6553567468011681e-01  9.5178702999042730e-01  9.2823114832118281e-01  8.6706014407949095e-01  6.8607244179697235e-01  3.7445707256478922e-01  1.5776789593117324e-01  8.3351310546127211e-02  6.0991717233427160e-02  5.3281173963619269e-02  4.9848619426399829e-02  4.7838872599082108e-02  4.6504340049495399e-02  4.5635755737911753e-02  4.5067352821081957e-02  4.4641446296123578e-02  4.4321032132527027e-02  4.4118059845226661e-02  4.3957541915061925e-02  4.3761926406468518e-02  4.3537192791391024e-02  4.3336101826892126e-02  4.2978301921796108e-02  8.3199687251130250e-02  8.4241300851791989e-02  4.5408545325162253e-02  4.7581031437019666e-02  4.9162269894942989e-02  5.1775598920882848e-02  5.7907994223782025e-02  8.4347375690588200e-02  2.3528198864083835e-01  7.7055965205235433e-01  9.4621403797396675e-01  9.6886842603654666e-01  9.5751175204221617e-01  9.6604328410420759e-01  9.7843910447387339e-01  9.8301269438713668e-01  9.8279406554700011e-01  9.7954025670620382e-01  9.7425212688856555e-01  9.6813225022385208e-01  9.6110517664151940e-01  9.4922066100554248e-01  9.2071002651978839e-01  8.4181991765391606e-01  6.3661237496723377e-01  3.6175783322568483e-01  1.7654392643447267e-01  9.7937956042793081e-02  6.8365564289686542e-02  5.6640824664003851e-02  5.1505193748655712e-02  4.8676877586064121e-02  4.6546698728456390e-02  4.4929809213540728e-02  4.4073295560442427e-02  4.3900743048715440e-02  4.3926625993399762e-02  4.3805649888529474e-02  4.3547415784996199e-02  4.3274051326685652e-02  4.2909544001145224e-02  8.3163037342248267e-02  8.3738951645015602e-02  4.4253498989600314e-02  4.5622650976113927e-02  4.6679260431658223e-02  4.8273577525206633e-02  5.0737810539786272e-02  5.5736072614877383e-02  7.6512526469356579e-02  2.017051651