<?xml version="1.0"?>
<VTKFile type="UnstructuredGrid"  version="0.1"  >
<UnstructuredGrid>
<Piece  NumberOfPoints="1681" NumberOfCells="3200">
<Points>
<DataArray  type="Float64"  NumberOfComponents="3"  format="ascii">0 0 0  0.025 0 0  0.05 0 0  0.075 0 0  0.1 0 0  0.125 0 0  0.15 0 0  0.175 0 0  0.2 0 0  0.225 0 0  0.25 0 0  0.275 0 0  0.3 0 0  0.325 0 0  0.35 0 0  0.375 0 0  0.4 0 0  0.425 0 0  0.45 0 0  0.475 0 0  0.5 0 0  0.525 0 0  0.55 0 0  0.575 0 0  0.6 0 0  0.625 0 0  0.65 0 0  0.675 0 0  0.7 0 0  0.725 0 0  0.75 0 0  0.775 0 0  0.8 0 0  0.825 0 0  0.85 0 0  0.875 0 0  0.9 0 0  0.925 0 0  0.95 0 0  0.975 0 0  1 0 0  0 0.025 0  0.025 0.025 0  0.05 0.025 0  0.075 0.025 0  0.1 0.025 0  0.125 0.025 0  0.15 0.025 0  0.175 0.025 0  0.2 0.025 0  0.225 0.025 0  0.25 0.025 0  0.275 0.025 0  0.3 0.025 0  0.325 0.025 0  0.35 0.025 0  0.375 0.025 0  0.4 0.025 0  0.425 0.025 0  0.45 0.025 0  0.475 0.025 0  0.5 0.025 0  0.525 0.025 0  0.55 0.025 0  0.575 0.025 0  0.6 0.025 0  0.625 0.025 0  0.65 0.025 0  0.675 0.025 0  0.7 0.025 0  0.725 0.025 0  0.75 0.025 0  0.775 0.025 0  0.8 0.025 0  0.825 0.025 0  0.85 0.025 0  0.875 0.025 0  0.9 0.025 0  0.925 0.025 0  0.95 0.025 0  0.975 0.025 0  1 0.025 0  0 0.05 0  0.025 0.05 0  0.05 0.05 0  0.075 0.05 0  0.1 0.05 0  0.125 0.05 0  0.15 0.05 0  0.175 0.05 0  0.2 0.05 0  0.225 0.05 0  0.25 0.05 0  0.275 0.05 0  0.3 0.05 0  0.325 0.05 0  0.35 0.05 0  0.375 0.05 0  0.4 0.05 0  0.425 0.05 0  0.45 0.05 0  0.475 0.05 0  0.5 0.05 0  0.525 0.05 0  0.55 0.05 0  0.575 0.05 0  0.6 0.05 0  0.625 0.05 0  0.65 0.05 0  0.675 0.05 0  0.7 0.05 0  0.725 0.05 0  0.75 0.05 0  0.775 0.05 0  0.8 0.05 0  0.825 0.05 0  0.85 0.05 0  0.875 0.05 0  0.9 0.05 0  0.925 0.05 0  0.95 0.05 0  0.975 0.05 0  1 0.05 0  0 0.075 0  0.025 0.075 0  0.05 0.075 0  0.075 0.075 0  0.1 0.075 0  0.125 0.075 0  0.15 0.075 0  0.175 0.075 0  0.2 0.075 0  0.225 0.075 0  0.25 0.075 0  0.275 0.075 0  0.3 0.075 0  0.325 0.075 0  0.35 0.075 0  0.375 0.075 0  0.4 0.075 0  0.425 0.075 0  0.45 0.075 0  0.475 0.075 0  0.5 0.075 0  0.525 0.075 0  0.55 0.075 0  0.575 0.075 0  0.6 0.075 0  0.625 0.075 0  0.65 0.075 0  0.675 0.075 0  0.7 0.075 0  0.725 0.075 0  0.75 0.075 0  0.775 0.075 0  0.8 0.075 0  0.825 0.075 0  0.85 0.075 0  0.875 0.075 0  0.9 0.075 0  0.925 0.075 0  0.95 0.075 0  0.975 0.075 0  1 0.075 0  0 0.1 0  0.025 0.1 0  0.05 0.1 0  0.075 0.1 0  0.1 0.1 0  0.125 0.1 0  0.15 0.1 0  0.175 0.1 0  0.2 0.1 0  0.225 0.1 0  0.25 0.1 0  0.275 0.1 0  0.3 0.1 0  0.325 0.1 0  0.35 0.1 0  0.375 0.1 0  0.4 0.1 0  0.425 0.1 0  0.45 0.1 0  0.475 0.1 0  0.5 0.1 0  0.525 0.1 0  0.55 0.1 0  0.575 0.1 0  0.6 0.1 0  0.625 0.1 0  0.65 0.1 0  0.675 0.1 0  0.7 0.1 0  0.725 0.1 0  0.75 0.1 0  0.775 0.1 0  0.8 0.1 0  0.825 0.1 0  0.85 0.1 0  0.875 0.1 0  0.9 0.1 0  0.925 0.1 0  0.95 0.1 0  0.975 0.1 0  1 0.1 0  0 0.125 0  0.025 0.125 0  0.05 0.125 0  0.075 0.125 0  0.1 0.125 0  0.125 0.125 0  0.15 0.125 0  0.175 0.125 0  0.2 0.125 0  0.225 0.125 0  0.25 0.125 0  0.275 0.125 0  0.3 0.125 0  0.325 0.125 0  0.35 0.125 0  0.375 0.125 0  0.4 0.125 0  0.425 0.125 0  0.45 0.125 0  0.475 0.125 0  0.5 0.125 0  0.525 0.125 0  0.55 0.125 0  0.575 0.125 0  0.6 0.125 0  0.625 0.125 0  0.65 0.125 0  0.675 0.125 0  0.7 0.125 0  0.725 0.125 0  0.75 0.125 0  0.775 0.125 0  0.8 0.125 0  0.825 0.125 0  0.85 0.125 0  0.875 0.125 0  0.9 0.125 0  0.925 0.125 0  0.95 0.125 0  0.975 0.125 0  1 0.125 0  0 0.15 0  0.025 0.15 0  0.05 0.15 0  0.075 0.15 0  0.1 0.15 0  0.125 0.15 0  0.15 0.15 0  0.175 0.15 0  0.2 0.15 0  0.225 0.15 0  0.25 0.15 0  0.275 0.15 0  0.3 0.15 0  0.325 0.15 0  0.35 0.15 0  0.375 0.15 0  0.4 0.15 0  0.425 0.15 0  0.45 0.15 0  0.475 0.15 0  0.5 0.15 0  0.525 0.15 0  0.55 0.15 0  0.575 0.15 0  0.6 0.15 0  0.625 0.15 0  0.65 0.15 0  0.675 0.15 0  0.7 0.15 0  0.725 0.15 0  0.75 0.15 0  0.775 0.15 0  0.8 0.15 0  0.825 0.15 0  0.85 0.15 0  0.875 0.15 0  0.9 0.15 0  0.925 0.15 0  0.95 0.15 0  0.975 0.15 0  1 0.15 0  0 0.175 0  0.025 0.175 0  0.05 0.175 0  0.075 0.175 0  0.1 0.175 0  0.125 0.175 0  0.15 0.175 0  0.175 0.175 0  0.2 0.175 0  0.225 0.175 0  0.25 0.175 0  0.275 0.175 0  0.3 0.175 0  0.325 0.175 0  0.35 0.175 0  0.375 0.175 0  0.4 0.175 0  0.425 0.175 0  0.45 0.175 0  0.475 0.175 0  0.5 0.175 0  0.525 0.175 0  0.55 0.175 0  0.575 0.175 0  0.6 0.175 0  0.625 0.175 0  0.65 0.175 0  0.675 0.175 0  0.7 0.175 0  0.725 0.175 0  0.75 0.175 0  0.775 0.175 0  0.8 0.175 0  0.825 0.175 0  0.85 0.175 0  0.875 0.175 0  0.9 0.175 0  0.925 0.175 0  0.95 0.175 0  0.975 0.175 0  1 0.175 0  0 0.2 0  0.025 0.2 0  0.05 0.2 0  0.075 0.2 0  0.1 0.2 0  0.125 0.2 0  0.15 0.2 0  0.175 0.2 0  0.2 0.2 0  0.225 0.2 0  0.25 0.2 0  0.275 0.2 0  0.3 0.2 0  0.325 0.2 0  0.35 0.2 0  0.375 0.2 0  0.4 0.2 0  0.425 0.2 0  0.45 0.2 0  0.475 0.2 0  0.5 0.2 0  0.525 0.2 0  0.55 0.2 0  0.575 0.2 0  0.6 0.2 0  0.625 0.2 0  0.65 0.2 0  0.675 0.2 0  0.7 0.2 0  0.725 0.2 0  0.75 0.2 0  0.775 0.2 0  0.8 0.2 0  0.825 0.2 0  0.85 0.2 0  0.875 0.2 0  0.9 0.2 0  0.925 0.2 0  0.95 0.2 0  0.975 0.2 0  1 0.2 0  0 0.225 0  0.025 0.225 0  0.05 0.225 0  0.075 0.225 0  0.1 0.225 0  0.125 0.225 0  0.15 0.225 0  0.175 0.225 0  0.2 0.225 0  0.225 0.225 0  0.25 0.225 0  0.275 0.225 0  0.3 0.225 0  0.325 0.225 0  0.35 0.225 0  0.375 0.225 0  0.4 0.225 0  0.425 0.225 0  0.45 0.225 0  0.475 0.225 0  0.5 0.225 0  0.525 0.225 0  0.55 0.225 0  0.575 0.225 0  0.6 0.225 0  0.625 0.225 0  0.65 0.225 0  0.675 0.225 0  0.7 0.225 0  0.725 0.225 0  0.75 0.225 0  0.775 0.225 0  0.8 0.225 0  0.825 0.225 0  0.85 0.225 0  0.875 0.225 0  0.9 0.225 0  0.925 0.225 0  0.95 0.225 0  0.975 0.225 0  1 0.225 0  0 0.25 0  0.025 0.25 0  0.05 0.25 0  0.075 0.25 0  0.1 0.25 0  0.125 0.25 0  0.15 0.25 0  0.175 0.25 0  0.2 0.25 0  0.225 0.25 0  0.25 0.25 0  0.275 0.25 0  0.3 0.25 0  0.325 0.25 0  0.35 0.25 0  0.375 0.25 0  0.4 0.25 0  0.425 0.25 0  0.45 0.25 0  0.475 0.25 0  0.5 0.25 0  0.525 0.25 0  0.55 0.25 0  0.575 0.25 0  0.6 0.25 0  0.625 0.25 0  0.65 0.25 0  0.675 0.25 0  0.7 0.25 0  0.725 0.25 0  0.75 0.25 0  0.775 0.25 0  0.8 0.25 0  0.825 0.25 0  0.85 0.25 0  0.875 0.25 0  0.9 0.25 0  0.925 0.25 0  0.95 0.25 0  0.975 0.25 0  1 0.25 0  0 0.275 0  0.025 0.275 0  0.05 0.275 0  0.075 0.275 0  0.1 0.275 0  0.125 0.275 0  0.15 0.275 0  0.175 0.275 0  0.2 0.275 0  0.225 0.275 0  0.25 0.275 0  0.275 0.275 0  0.3 0.275 0  0.325 0.275 0  0.35 0.275 0  0.375 0.275 0  0.4 0.275 0  0.425 0.275 0  0.45 0.275 0  0.475 0.275 0  0.5 0.275 0  0.525 0.275 0  0.55 0.275 0  0.575 0.275 0  0.6 0.275 0  0.625 0.275 0  0.65 0.275 0  0.675 0.275 0  0.7 0.275 0  0.725 0.275 0  0.75 0.275 0  0.775 0.275 0  0.8 0.275 0  0.825 0.275 0  0.85 0.275 0  0.875 0.275 0  0.9 0.275 0  0.925 0.275 0  0.95 0.275 0  0.975 0.275 0  1 0.275 0  0 0.3 0  0.025 0.3 0  0.05 0.3 0  0.075 0.3 0  0.1 0.3 0  0.125 0.3 0  0.15 0.3 0  0.175 0.3 0  0.2 0.3 0  0.225 0.3 0  0.25 0.3 0  0.275 0.3 0  0.3 0.3 0  0.325 0.3 0  0.35 0.3 0  0.375 0.3 0  0.4 0.3 0  0.425 0.3 0  0.45 0.3 0  0.475 0.3 0  0.5 0.3 0  0.525 0.3 0  0.55 0.3 0  0.575 0.3 0  0.6 0.3 0  0.625 0.3 0  0.65 0.3 0  0.675 0.3 0  0.7 0.3 0  0.725 0.3 0  0.75 0.3 0  0.775 0.3 0  0.8 0.3 0  0.825 0.3 0  0.85 0.3 0  0.875 0.3 0  0.9 0.3 0  0.925 0.3 0  0.95 0.3 0  0.975 0.3 0  1 0.3 0  0 0.325 0  0.025 0.325 0  0.05 0.325 0  0.075 0.325 0  0.1 0.325 0  0.125 0.325 0  0.15 0.325 0  0.175 0.325 0  0.2 0.325 0  0.225 0.325 0  0.25 0.325 0  0.275 0.325 0  0.3 0.325 0  0.325 0.325 0  0.35 0.325 0  0.375 0.325 0  0.4 0.325 0  0.425 0.325 0  0.45 0.325 0  0.475 0.325 0  0.5 0.325 0  0.525 0.325 0  0.55 0.325 0  0.575 0.325 0  0.6 0.325 0  0.625 0.325 0  0.65 0.325 0  0.675 0.325 0  0.7 0.325 0  0.725 0.325 0  0.75 0.325 0  0.775 0.325 0  0.8 0.325 0  0.825 0.325 0  0.85 0.325 0  0.875 0.325 0  0.9 0.325 0  0.925 0.325 0  0.95 0.325 0  0.975 0.325 0  1 0.325 0  0 0.35 0  0.025 0.35 0  0.05 0.35 0  0.075 0.35 0  0.1 0.35 0  0.125 0.35 0  0.15 0.35 0  0.175 0.35 0  0.2 0.35 0  0.225 0.35 0  0.25 0.35 0  0.275 0.35 0  0.3 0.35 0  0.325 0.35 0  0.35 0.35 0  0.375 0.35 0  0.4 0.35 0  0.425 0.35 0  0.45 0.35 0  0.475 0.35 0  0.5 0.35 0  0.525 0.35 0  0.55 0.35 0  0.575 0.35 0  0.6 0.35 0  0.625 0.35 0  0.65 0.35 0  0.675 0.35 0  0.7 0.35 0  0.725 0.35 0  0.75 0.35 0  0.775 0.35 0  0.8 0.35 0  0.825 0.35 0  0.85 0.35 0  0.875 0.35 0  0.9 0.35 0  0.925 0.35 0  0.95 0.35 0  0.975 0.35 0  1 0.35 0  0 0.375 0  0.025 0.375 0  0.05 0.375 0  0.075 0.375 0  0.1 0.375 0  0.125 0.375 0  0.15 0.375 0  0.175 0.375 0  0.2 0.375 0  0.225 0.375 0  0.25 0.375 0  0.275 0.375 0  0.3 0.375 0  0.325 0.375 0  0.35 0.375 0  0.375 0.375 0  0.4 0.375 0  0.425 0.375 0  0.45 0.375 0  0.475 0.375 0  0.5 0.375 0  0.525 0.375 0  0.55 0.375 0  0.575 0.375 0  0.6 0.375 0  0.625 0.375 0  0.65 0.375 0  0.675 0.375 0  0.7 0.375 0  0.725 0.375 0  0.75 0.375 0  0.775 0.375 0  0.8 0.375 0  0.825 0.375 0  0.85 0.375 0  0.875 0.375 0  0.9 0.375 0  0.925 0.375 0  0.95 0.375 0  0.975 0.375 0  1 0.375 0  0 0.4 0  0.025 0.4 0  0.05 0.4 0  0.075 0.4 0  0.1 0.4 0  0.125 0.4 0  0.15 0.4 0  0.175 0.4 0  0.2 0.4 0  0.225 0.4 0  0.25 0.4 0  0.275 0.4 0  0.3 0.4 0  0.325 0.4 0  0.35 0.4 0  0.375 0.4 0  0.4 0.4 0  0.425 0.4 0  0.45 0.4 0  0.475 0.4 0  0.5 0.4 0  0.525 0.4 0  0.55 0.4 0  0.575 0.4 0  0.6 0.4 0  0.625 0.4 0  0.65 0.4 0  0.675 0.4 0  0.7 0.4 0  0.725 0.4 0  0.75 0.4 0  0.775 0.4 0  0.8 0.4 0  0.825 0.4 0  0.85 0.4 0  0.875 0.4 0  0.9 0.4 0  0.925 0.4 0  0.95 0.4 0  0.975 0.4 0  1 0.4 0  0 0.425 0  0.025 0.425 0  0.05 0.425 0  0.075 0.425 0  0.1 0.425 0  0.125 0.425 0  0.15 0.425 0  0.175 0.425 0  0.2 0.425 0  0.225 0.425 0  0.25 0.425 0  0.275 0.425 0  0.3 0.425 0  0.325 0.425 0  0.35 0.425 0  0.375 0.425 0  0.4 0.425 0  0.425 0.425 0  0.45 0.425 0  0.475 0.425 0  0.5 0.425 0  0.525 0.425 0  0.55 0.425 0  0.575 0.425 0  0.6 0.425 0  0.625 0.425 0  0.65 0.425 0  0.675 0.425 0  0.7 0.425 0  0.725 0.425 0  0.75 0.425 0  0.775 0.425 0  0.8 0.425 0  0.825 0.425 0  0.85 0.425 0  0.875 0.425 0  0.9 0.425 0  0.925 0.425 0  0.95 0.425 0  0.975 0.425 0  1 0.425 0  0 0.45 0  0.02
[...]
<PointData  Scalars="ControlVisualisation"> 
<DataArray  type="Float64"  Name="ControlVisualisation"  format="ascii">2.1419496190078029e-02  1.4347731584605877e-02  1.4440378728411161e-02  1.4586496214907825e-02  1.4762103143986060e-02  1.4943776999074371e-02  1.5112668555681634e-02  1.5256905404705531e-02  1.5371058803853300e-02  1.5454337870722819e-02  1.5508706466492453e-02  1.5537451553424439e-02  1.5544278183764968e-02  1.5532809780546062e-02  1.5506350542615455e-02  1.5467802094476199e-02  1.5419664195633304e-02  1.5364075626825929e-02  1.5302868381174844e-02  1.5237619994496932e-02  1.5169697153648330e-02  1.5100289160261626e-02  1.5030432754959282e-02  1.4961030828730369e-02  1.4892867400583022e-02  1.4826620574987693e-02  1.4762874451288082e-02  1.4702130365306782e-02  1.4644817470431164e-02  1.4591302489564207e-02  1.4541898435685751e-02  1.4496872145282736e-02  1.4456450571753841e-02  1.4420825768557997e-02  1.4390158971167435e-02  1.4364582873359717e-02  1.4344206547496352e-02  1.4329101857827851e-02  1.4319380827219000e-02  1.4314874061910010e-02  4.2062421321192964e-02  1.4349049742338676e-02  7.2442397602681518e-03  7.3733910117389622e-03  7.5892701365642013e-03  7.8698858300257756e-03  8.1822563888734167e-03  8.4934886088175020e-03  8.7767026428031032e-03  9.0137553186209734e-03  9.1953715748700621e-03  9.3195250669465286e-03  9.3892211569397178e-03  9.4104261031458022e-03  9.3904544633966937e-03  9.3368649886796627e-03  9.2567966347109256e-03  9.1566362652740641e-03  9.0419067909012080e-03  8.9172816283143025e-03  8.7866580794331833e-03  8.6532491717313930e-03  8.5196743464654914e-03  8.3880421972598734e-03  8.2600245687930972e-03  8.1369232316523543e-03  8.0197302839270530e-03  7.9091828148678284e-03  7.8058118663579959e-03  7.7099855299467106e-03  7.6219460718915328e-03  7.5418411707763710e-03  7.4697495766547582e-03  7.4057016950519368e-03  7.3496956751153029e-03  7.3017099790857309e-03  7.2617119864662382e-03  7.2296664546255031e-03  7.2055361687984806e-03  7.1892756838157906e-03  7.1800433580921363e-03  1.4314874525956429e-02  1.4457362670275574e-02  7.3921457530367884e-03  7.5908989805464986e-03  7.8765986790149123e-03  8.2506092864457897e-03  8.6712789928578195e-03  9.0951234856700720e-03  9.4848341613140725e-03  9.8134446727352470e-03  1.0065469919263147e-02  1.0235722131260807e-02  1.0326912996468308e-02  1.0346939286672050e-02  1.0306438287233341e-02  1.0216904511597782e-02  1.0089439154337621e-02  9.9340561310742870e-03  9.7593951721781872e-03  9.5726858644596159e-03  9.3798407343748703e-03  9.1856005211814265e-03  8.9936915910327209e-03  8.8069782636078543e-03  8.6276040358686749e-03  8.4571199701517011e-03  8.2965996783210400e-03  8.1467405635709551e-03  8.0079511786214953e-03  7.8804249208198583e-03  7.7642007362781424e-03  7.6592119221630482e-03  7.5653244143687711e-03  7.4823661138538940e-03  7.4101487806289461e-03  7.3484842174004490e-03  7.2971948320154105e-03  7.2561256143188861e-03  7.2251250775412067e-03  7.2039427194589140e-03  7.1892980824376724e-03  1.4319392084432361e-02  1.4676475519432273e-02  7.7067416341135252e-03  8.0026458209484248e-03  8.3139073019969228e-03  8.7011578302991742e-03  9.1204013681584206e-03  9.5280274999247575e-03  9.8901906478415565e-03  1.0184567647035743e-02  1.0399757683133826e-02  1.0533462326239482e-02  1.0590146684004979e-02  1.0578628871321301e-02  1.0509912925475916e-02  1.0395498246075201e-02  1.0246269596975607e-02  1.0071916110983098e-02  9.8807293018111069e-03  9.6796182504679702e-03  9.4742227308362275e-03  9.2690576755534732e-03  9.0676604034009810e-03  8.8727316091843055e-03  8.6862681145630539e-03  8.5096865139049800e-03  8.3439363904368544e-03  8.1896015363264584e-03  8.0469879578120487e-03  7.9161981744774873e-03  7.7971921315354957e-03  7.6898357230073353e-03  7.5939383755177624e-03  7.5092813770861171e-03  7.4356386102039807e-03  7.3727915293589534e-03  7.3205385919856668e-03  7.2787042807661954e-03  7.2471058469367146e-03  7.2252564612527333e-03  7.2056680999150555e-03  1.4329179575228061e-02  1.5057370249282104e-02  8.2989427514950434e-03  8.8290209688763107e-03  9.1587646625238273e-03  9.5217850253111105e-03  9.8865087880856753e-03  1.0220389601714759e-02  1.0499536345685860e-02  1.0709830212706113e-02  1.0845536448734580e-02  1.0907613239328326e-02  1.0902007352005885e-02  1.0837847925579359e-02  1.0725673500228718e-02  1.0576010546176668e-02  1.0398504291812109e-02  1.0201556765681056e-02  9.9922851822527234e-03  9.7766192051460549e-03  9.5594292557589083e-03  9.3446459647773279e-03  9.1353672503273822e-03  8.9339600475892150e-03  8.7421618152308481e-03  8.5611822346342206e-03  8.3918022448712746e-03  8.2344665187128359e-03  8.0893660540284334e-03  7.9565088612951057e-03  7.8357781206491606e-03  7.7269783102150045e-03  7.6298705506879540e-03  7.5441988046308136e-03  7.4697086079656980e-03  7.4061602130612962e-03  7.3533361636198072e-03  7.3110478342898640e-03  7.2790835503641991e-03  7.2566324014269037e-03  7.2301144573242576e-03  1.4344496663555277e-02  1.5590412044152466e-02  9.6357504318076159e-03  1.0662233049148763e-02  1.0881968734588894e-02  1.1035187762908112e-02  1.1185641942337289e-02  1.1320257677644899e-02  1.1420687045970431e-02  1.1474915986680875e-02  1.1476914963342414e-02  1.1426124988661791e-02  1.1326631035318592e-02  1.1185658635344120e-02  1.1011701734178467e-02  1.0813032112508041e-02  1.0596960219918503e-02  1.0369696958805312e-02  1.0136485401621223e-02  9.9017643321599024e-03  9.6692747619688078e-03  9.4421129826895971e-03  9.2227622549442088e-03  9.0131295044859755e-03  8.8145985148919866e-03  8.6280991349448905e-03  8.4541859034016360e-03  8.2931181363598352e-03  8.1449348689806352e-03  8.0095203912459254e-03  7.8866584254747799e-03  7.7760747807447874e-03  7.6774694689337184e-03  7.5905398731702369e-03  7.5149966801708852e-03  7.4505745120499638e-03  7.3970372201036258e-03  7.3541814855302163e-03  7.3217597925195575e-03  7.2985335566085902e-03  7.2628628169868880e-03  1.4365369249790009e-02  1.8320416801921698e-02  1.3742354532491173e-02  1.5996042029239699e-02  1.4843855884267728e-02  1.3944644890646353e-02  1.3393163121112175e-02  1.3034023158635324e-02  1.2771863616980362e-02  1.2551181018574949e-02  1.2339754042000254e-02  1.2120329405853041e-02  1.1886617011821442e-02  1.1639262023369980e-02  1.1381821753901986e-02  1.1118190889564533e-02  1.0851694561096244e-02  1.0585122227103292e-02  1.0320985742821139e-02  1.0061666724726134e-02  9.8094111103946748e-03  9.5662414338832501e-03  9.3338613966790461e-03  9.1135956404418562e-03  8.9063769035387635e-03  8.7127738753226824e-03  8.5330454546030388e-03  8.3672068182951836e-03  8.2150959214007564e-03  8.0764331960389776e-03  7.9508709054495752e-03  7.8380313026812781e-03  7.7375344012408382e-03  7.6490170026611614e-03  7.5721448095803136e-03  7.5066196841818570e-03  7.4521819396988192e-03  7.4086099464260816e-03  7.3756100117091938e-03  7.3514011267293324e-03  7.3041943788940021e-03  1.4391910645549927e-02  6.0630628977646005e-02  5.3330316296149538e-02  4.2224788175425298e-02  2.6154260206755386e-02  2.0182492312058493e-02  1.7292187304540657e-02  1.5716626083720202e-02  1.4728176222305005e-02  1.4031617505340370e-02  1.3487604562268404e-02  1.3023161678719685e-02  1.2602986681410046e-02  1.2212592859996620e-02  1.1845889611072703e-02  1.1499029044243873e-02  1.1168851115451111e-02  1.0853005737112769e-02  1.0550182439211582e-02  1.0260047236072455e-02  9.9829594399984661e-03  9.7196273234422155e-03  9.4708138619359634e-03  9.2371396226877990e-03  9.0189843134223253e-03  8.8164654482515200e-03  8.6294662217214404e-03  8.4576877408009763e-03  8.3007075573493135e-03  8.1580335125228561e-03  8.0291476149048358e-03  7.9135385704566814e-03  7.8107238310070699e-03  7.7202630696796282e-03  7.6417651705089056e-03  7.5748909884852493e-03  7.5193516394526771e-03  7.4749027203889892e-03  7.4411918488763180e-03  7.4157690281731808e-03  7.3544599042325767e-03  1.4424245934308756e-02  4.9001187544114189e-01  3.2716756888029530e-01  1.6933230395114884e-01  8.8605193510609012e-02  3.9680468366711491e-02  2.5787618796494279e-02  2.0312015313539562e-02  1.7670853256545722e-02  1.6087987804094588e-02  1.5003221751495557e-02  1.4178661421614331e-02  1.3501775532023726e-02  1.2922414027488411e-02  1.2415743535466928e-02  1.1964675719656813e-02  1.1555878994598603e-02  1.1179572765046806e-02  1.0829295394783290e-02  1.0501252039199334e-02  1.0193500228417220e-02  9.9051930982070845e-03  9.6359949149467487e-03  9.3856983783390333e-03  9.1540191604983986e-03  8.9405193724053020e-03  8.7446099757215786e-03  8.5655919378183863e-03  8.4027089258037879e-03  8.2551960110304624e-03  8.1223174748924244e-03  8.0033922461412513e-03  7.8978083666325465e-03  7.8050290149529900e-03  7.7245926439684139e-03  7.6561097717869472e-03  7.5992559905598677e-03  7.5537591035150630e-03  7.5191934046155975e-03  7.4922985639328714e-03  7.4140891845098419e-03  1.4462527431941642e-02  7.9838098204797037e-01  7.6046880848511211e-01  6.2292338589118401e-01  3.2895308920320054e-01  1.1510797688993389e-01  4.9976582642842160e-02  3.0458099793935711e-02  2.2699615545666747e-02  1.9180641346071673e-02  1.7083304349803621e-02  1.5671102410117592e-02  1.4621586070432856e-02  1.3791083261125912e-02  1.3107269373223349e-02  1.2527542972616084e-02  1.2022838904950220e-02  1.1573083194987718e-02  1.1165109537443946e-02  1.0790810302320377e-02  1.0445483551271170e-02  1.0126478763815767e-02  9.8322042772077452e-03  9.5614947807331624e-03  9.3132739351337590e-03  9.0864199010954154e-03  8.8797482068663745e-03  8.6920486161711202e-03  8.5221364000796461e-03  8.3688973635943926e-03  8.2313187177506172e-03  8.1085051990645654e-03  7.9996832067948907e-03  7.9041966764057635e-03  7.8214980047449905e-03  7.7511369388464594e-03  7.6927466842879816e-03  7.6460218626572263e-03  7.6104462619209232e-03  7.5817887746933250e-03  7.4835968557029984e-03  1.4506932998391169e-02  8.5240913029387977e-01  8.6280034329539668e-01  8.1410873255084382e-01  6.7095413278943661e-01  4.0972004035811499e-01  1.3337819967227932e-01  5.6293530099990712e-02  3.3459646408705204e-02  2.4241532340645532e-02  2.0224471009305373e-02  1.7723942917554358e-02  1.6048327451840073e-02  1.4855241631312101e-02  1.3943806850812430e-02  1.3205155027867926e-02  1.2583342574791035e-02  1.2044343125940824e-02  1.1566311013308584e-02  1.1135671625250448e-02  1.0744378516010060e-02  1.0387710942767442e-02  1.0062672605133544e-02  9.7670039347129613e-03  9.4986815831516660e-03  9.2557314952861798e-03  9.0362080758343132e-03  8.8382404403275997e-03  8.6600899541864913e-03  8.5001936344146749e-03  8.3571862898111655e-03  8.2299035567113734e-03  8.1173714079329634e-03  8.0187879021844290e-03  7.9335016161852772e-03  7.8609900863328142e-03  7.8008369739493702e-03  7.7526982058020409e-03  7.7159467784717588e-03  7.6851966653765169e-03  7.5635932281722567e-03  1.4557668511580813e-02  7.7891618848084776e-01  8.3358054842425566e-01  8.2711420355967236e-01  7.7881940727598453e-01  6.6752913724583218e-01  4.3831868001417867e-01  1.7541610026848709e-01  8.0104664054165622e-02  3.7721462282462953e-02  2.5529521820619270e-02  2.0911804197540587e-02  1.8023822141456182e-02  1.6202347651818758e-02  1.4969120999390906e-02  1.4025298845282063e-02  1.3256141771240761e-02  1.2607050117773296e-02  1.2043612319703155e-02  1.1544317435913902e-02  1.1096737425599596e-02  1.0693792137129850e-02  1.0330986544959304e-02  1.0004841246455046e-02  9.7121926203298688e-03  9.4499830988021422e-03  9.2152737428958468e-03  9.0053256420821078e-03  8.8176759742446629e-03  8.6501817949330810e-03  8.5010293899532869e-03  8.3687175692452025e-03  8.2520256181923043e-03  8.1499749684219476e-03  8.0617905646663424e-03  7.9868655606361461e-03  7.9247270297540234e-03  7.8749869889339023e-03  7.8368837603848586e-03  7.8036631280554878e-03  7.6547977875785853e-03  1.4614970514762566e-02  4.3230467162297059e-01  6.1202827404537152e-01  7.2667049183564170e-01  7.3075481808434795e-01  7.3277667532638324e-01  6.5878973496818860e-01  4.4610655920341158e-01  2.6477177807852487e-01  9.7228212860615393e-02  4.0698029622098425e-02  2.6411654176279199e-02  2.1070189247767653e-02  1.8029422507009840e-02  1.6276726790837935e-02  1.5041511935143066e-02  1.4071364357728900e-02  1.3279648288357624e-02  1.2610277780611929e-02  1.2026952766026749e-02  1.1510221745597099e-02  1.1050195820599299e-02  1.0640900569366953e-02  1.0277542060664275e-02  9.9555606168409989e-03  9.6704811247570899e-03  9.4180355629276975e-03  9.1943239710628021e-03  8.9959263179087319e-03  8.8199467536508487e-03  8.6640013934677559e-03  8.5261700741460656e-03  8.4049315189418401e-03  8.2990959970943631e-03  8.2077433482475471e-03  8.1301698515061586e-03  8.0658396187701150e-03  8.0143165205427067e-03  7.9746763573757349e-03  7.9385479211200767e-03  7.7580574195956712e-03  1.4679110252038042e-02  4.3876112169697189e-02  1.7983379213994188e-01  2.8180573262238673e-01  4.7632492229067347e-01  6.1068766801689400e-01  6.3993086863847348e-01  5.7416821382704741e-01  4.7483855982382239e-01  2.4825825613378982e-01  8.5610802134588507e-02  3.8797035269223699e-02  2.5698042844292987e-02  2.0615700891993667e-02  1.8020978542912625e-02  1.6345157911028627e-02  1.5082343438562804e-02  1.4092319370380316e-02  1.3285280819725749e-02  1.2596644580159657e-02  1.1993805275303977e-02  1.1462755794981737e-02  1.0995971930399792e-02  1.0587175100272938e-02  1.0229996751399737e-02  9.9180281233414470e-03  9.6451751913576387e-03  9.4059610796884113e-03  9.1956916040028293e-03  9.0104933710637367e-03  8.8472622324973736e-03  8.7035630658278771e-03  8.5775141314496650e-03  8.4676774661397326e-03  8.3729652477159081e-03  8.2925642958405314e-03  8.2258704789186024e-03  8.1723971510698004e-03  8.1310257004870174e-03  8.0914762276999928e-03  7.8743700269748931e-03  1.4750398783530809e-02  1.8269591990820760e-02  3.3891975684332332e-02  1.0857110548052067e-01  2.0409186431977622e-01  3.5626415743682727e-01  4.5857273960039779e-01  4.9206223255565978e-01  4.6185960406632037e-01  3.2070222370702539e-01  1.5697675059691138e-01  6.5290849832368311e-02  3.2938800417834792e-02  2.4941553245691288e-02  2.0846290706979208e-02  1.8138669152355534e-02  1.6379205582750394e-02  1.5100225641902516e-02  1.4101820208604976e-02  1.3272820434507483e-02  1.2558547925869773e-02  1.1937348549712666e-02  1.1398935124483162e-02  1.0934724709690988e-02  1.0535661229146344e-02  1.0192537902661114e-02  9.8966891652785029e-03  9.6404781207736160e-03  9.4175154319330687e-03  9.2226681546935946e-03  9.0519357165354999e-03  8.9022635636262625e-03  8.7713482787494419e-03  8.6574664195620613e-03  8.5593389191035985e-03  8.4760293910989010e-03  8.4068605830025667e-03  8.3512955294871797e-03  8.3079857791070622e-03  8.2644002980046781e-03  8.0049142999605166e-03  1.4829192877625979e-02  1.6825510960789960e-02  1.6406173883567771e-02  3.6921327307574296e-02  6.6975330991493984e-02  1.3851106952328707e-01  2.3308106557484570e-01  3.1250252190462452e-01  3.3840731395534696e-01  3.0173054478583761e-01  2.2304718251891884e-01  1.2163082636810985e-01  5.1997773437315042e-02  3.4591972796824105e-02  2.7423613351667441e-02  2.1290491163670516e-02  1.8219135373536078e-02  1.6419951975325267e-02  1.5123930211387551e-02  1.4087909794648579e-02  1.3219104079660387e-02  1.2479395494003964e-02  1.1850731606026906e-02  1.1319214608564715e-02  1.0871009895707542e-02  1.0492585565282920e-02  1.0171592131174873e-02  9.8974414578615368e-03  9.6615141679561468e-03  9.4570843124790038e-03  9.2790665056934115e-03  9.1236883057280796e-03  8.9881717494765152e-03  8.8704733310647921e-03  8.7690953863203882e-03  8.6829580533983267e-03  8.6113019764079007e-03  8.5535417874591131e-03  8.5080618919685328e-03  8.4596803582711166e-03  8.1510854119862947e-03  1.4915900399211004e-02  1.6633959293578547e-02  1.3765329094405036e-02  2.2470939849281654e-02  3.3276646802330605e-02  5.8699048085235454e-02  1.1756187682932821e-01  2.0680502692625291e-01  2.8247459733702324e-01  3.1755241755982200e-01  2.9187272252729518e-01  2.0847515028204747e-01  1.1846306825336070e-01  6.7831489666736008e-02  4.3158479432816546e-02  2.7894046245550735e-02  2.1439075318999391e-02  1.8380412499279429e-02  1.6495129845265463e-02  1.5101678497526532e-02  1.3996332134389401e-02  1.3093102314391118e-02  1.2349257521746471e-02  1.1736741032439296e-02  1.1232181081206861e-02  1.0815051020910358e-02  1.0467721033259688e-02  1.0175637977655560e-02  9.9273152104776535e-03  9.7140746631617821e-03  9.5295797926609783e-03  9.3692784857028477e-03  9.2298904238509380e-03  9.1090206330733982e-03  9.0049102278437453e-03  8.9162922661238861e-03  8.8422975246701448e-03  8.7822898339960202e-03  8.7343506664006639e-03  8.6801894870755791e-03  8.3145336885596579e-03  1.5010982002010202e-02  1.6313670897159672e-02  1.2251997351652727e-02  1.6970730886195291e-02  2.1014929839272872e-02  2.9595111208503444e-02  5.3349600399829368e-02  1.1165739748774399e-01  1.9966875678051668e-01  2.7974291004018237e-01  3.1590923793556902e-01  3.0167252741842332e-01  2.4957539780868623e-01  1.6906300615768710e-01  8.6780281759032199e-02  4.2922201287189078e-02  2.7851139941129695e-02  2.1756461619534526e-02  1.8561384944826786e-02  1.6444996050706338e-02  1.4926085526875292e-02  1.3781514088938331e-02  1.2888627668860312e-02  1.2180183011819308e-02  1.1613021881755116e-02  1.1155266834118495e-02  1.0781903570435899e-02  1.0473212397364512e-02  1.0214129094886540e-02  9.9936864307393503e-03  9.8042185885748017e-03  9.6404241830985084e-03  9.4985394271138238e-03  9.3757772121089867e-03  9.2700263830199844e-03  9.1797258630414765e-03  9.1038129877399291e-03  9.0415712459971601e-03  8.9907477547306446e-03  8.9294462809752298e-03  8.4971961584265950e-03  1.5114941854482771e-02  1.5967216465900231e-02  1.1121920354835694e-02  1.4135699338772467e-02  1.6072741122581433e-02  1.9299002056549955e-02  2.6540747583277402e-02  4.8015314375856044e-02  1.1535823384362198e-01  2.4047050339159837e-01  3.4644481882883355e-01  3.9167208197738257e-01  3.8366928415557355e-01  3.0764489224374131e-01  1.7614422642545358e-01  7.8572023481025793e-02  4.0389185165203061e-02  2.7508742137552090e-02  2.1898871212740197e-02  1.8381057953205243e-02  1.6081976872117761e-02  1.4552651812879777e-02  1.3462165549906575e-02  1.2641608174141995e-02  1.2006993586275156e-02  1.1508480398834143e-02  1.1111045290021500e-02  1.0788369615747579e-02  1.0521049920097456e-02  1.0295636215817928e-02  1.0103292884921952e-02  9.9381751173848246e-03  9.7960865495841168e-03  9.6737249343895049e-03  9.5684061902851815e-03  9.4780266301372224e-03  9.4011066687749133e-03  9.3367274638409669e-03  9.2822752967435234e-03  9.2117783641017682e-03  8.7012940612445789e-03  1.5228290096084113e-02  1.5607584768519346e-02  1.0128446620516018e-02  1.2144546353461551e-02  1.3374807958345978e-02  1.5215873498346197e-02  1.8378968012704611e-02  2.5247342645378597e-02  4.5807841113777809e-02  1.1879278507555188e-01  2.8674987303376326e-01  4.2516052840459284e-01  4.6750819452526060e-01  4.1486893747198361e-01  2.9004814214250602e-01  1.5495452639273483e-01  6.8608238222766058e-02  3.6434422255679055e-02  2.6738202587590867e-02  2.1195240121611461e-02  1.7591021821330925e-02  1.5443893850883891e-02  1.4078213534363129e-02  1.3121436313085729e-02  1.2412630871299754e-02  1.1873649846286395e-02  1.1455001312824894e-02  1.1121268240618511e-02  1.0847804335360907e-02  1.0619011750714627e-02  1.0425748703283846e-02  1.0262211875777714e-02  1.0123704375785192e-02  1.0005889832997907e-02  9.9049060841356739e-03  9.8175602370639999e-03  9.7414735023731349e-03  9.6752024141122696e-03  9.6156833452412747e-03  9.5325256554234569e-03  8.9292084915498816e-03  1.5351428092844833e-02  1.5255952224005772e-02  9.2787107101239361e-03  1.0656398749635936e-02  1.1580139828356133e-02  1.2947288259788213e-02  1.5028759664410862e-02  1.8465691977386817e-02  2.5585290963754944e-02  4.607715422