<?xml version="1.0"?>
<VTKFile type="UnstructuredGrid"  version="0.1"  >
<UnstructuredGrid>
<Piece  NumberOfPoints="1681" NumberOfCells="3200">
<Points>
<DataArray  type="Float64"  NumberOfComponents="3"  format="ascii">0 0 0  0.025 0 0  0.05 0 0  0.075 0 0  0.1 0 0  0.125 0 0  0.15 0 0  0.175 0 0  0.2 0 0  0.225 0 0  0.25 0 0  0.275 0 0  0.3 0 0  0.325 0 0  0.35 0 0  0.375 0 0  0.4 0 0  0.425 0 0  0.45 0 0  0.475 0 0  0.5 0 0  0.525 0 0  0.55 0 0  0.575 0 0  0.6 0 0  0.625 0 0  0.65 0 0  0.675 0 0  0.7 0 0  0.725 0 0  0.75 0 0  0.775 0 0  0.8 0 0  0.825 0 0  0.85 0 0  0.875 0 0  0.9 0 0  0.925 0 0  0.95 0 0  0.975 0 0  1 0 0  0 0.025 0  0.025 0.025 0  0.05 0.025 0  0.075 0.025 0  0.1 0.025 0  0.125 0.025 0  0.15 0.025 0  0.175 0.025 0  0.2 0.025 0  0.225 0.025 0  0.25 0.025 0  0.275 0.025 0  0.3 0.025 0  0.325 0.025 0  0.35 0.025 0  0.375 0.025 0  0.4 0.025 0  0.425 0.025 0  0.45 0.025 0  0.475 0.025 0  0.5 0.025 0  0.525 0.025 0  0.55 0.025 0  0.575 0.025 0  0.6 0.025 0  0.625 0.025 0  0.65 0.025 0  0.675 0.025 0  0.7 0.025 0  0.725 0.025 0  0.75 0.025 0  0.775 0.025 0  0.8 0.025 0  0.825 0.025 0  0.85 0.025 0  0.875 0.025 0  0.9 0.025 0  0.925 0.025 0  0.95 0.025 0  0.975 0.025 0  1 0.025 0  0 0.05 0  0.025 0.05 0  0.05 0.05 0  0.075 0.05 0  0.1 0.05 0  0.125 0.05 0  0.15 0.05 0  0.175 0.05 0  0.2 0.05 0  0.225 0.05 0  0.25 0.05 0  0.275 0.05 0  0.3 0.05 0  0.325 0.05 0  0.35 0.05 0  0.375 0.05 0  0.4 0.05 0  0.425 0.05 0  0.45 0.05 0  0.475 0.05 0  0.5 0.05 0  0.525 0.05 0  0.55 0.05 0  0.575 0.05 0  0.6 0.05 0  0.625 0.05 0  0.65 0.05 0  0.675 0.05 0  0.7 0.05 0  0.725 0.05 0  0.75 0.05 0  0.775 0.05 0  0.8 0.05 0  0.825 0.05 0  0.85 0.05 0  0.875 0.05 0  0.9 0.05 0  0.925 0.05 0  0.95 0.05 0  0.975 0.05 0  1 0.05 0  0 0.075 0  0.025 0.075 0  0.05 0.075 0  0.075 0.075 0  0.1 0.075 0  0.125 0.075 0  0.15 0.075 0  0.175 0.075 0  0.2 0.075 0  0.225 0.075 0  0.25 0.075 0  0.275 0.075 0  0.3 0.075 0  0.325 0.075 0  0.35 0.075 0  0.375 0.075 0  0.4 0.075 0  0.425 0.075 0  0.45 0.075 0  0.475 0.075 0  0.5 0.075 0  0.525 0.075 0  0.55 0.075 0  0.575 0.075 0  0.6 0.075 0  0.625 0.075 0  0.65 0.075 0  0.675 0.075 0  0.7 0.075 0  0.725 0.075 0  0.75 0.075 0  0.775 0.075 0  0.8 0.075 0  0.825 0.075 0  0.85 0.075 0  0.875 0.075 0  0.9 0.075 0  0.925 0.075 0  0.95 0.075 0  0.975 0.075 0  1 0.075 0  0 0.1 0  0.025 0.1 0  0.05 0.1 0  0.075 0.1 0  0.1 0.1 0  0.125 0.1 0  0.15 0.1 0  0.175 0.1 0  0.2 0.1 0  0.225 0.1 0  0.25 0.1 0  0.275 0.1 0  0.3 0.1 0  0.325 0.1 0  0.35 0.1 0  0.375 0.1 0  0.4 0.1 0  0.425 0.1 0  0.45 0.1 0  0.475 0.1 0  0.5 0.1 0  0.525 0.1 0  0.55 0.1 0  0.575 0.1 0  0.6 0.1 0  0.625 0.1 0  0.65 0.1 0  0.675 0.1 0  0.7 0.1 0  0.725 0.1 0  0.75 0.1 0  0.775 0.1 0  0.8 0.1 0  0.825 0.1 0  0.85 0.1 0  0.875 0.1 0  0.9 0.1 0  0.925 0.1 0  0.95 0.1 0  0.975 0.1 0  1 0.1 0  0 0.125 0  0.025 0.125 0  0.05 0.125 0  0.075 0.125 0  0.1 0.125 0  0.125 0.125 0  0.15 0.125 0  0.175 0.125 0  0.2 0.125 0  0.225 0.125 0  0.25 0.125 0  0.275 0.125 0  0.3 0.125 0  0.325 0.125 0  0.35 0.125 0  0.375 0.125 0  0.4 0.125 0  0.425 0.125 0  0.45 0.125 0  0.475 0.125 0  0.5 0.125 0  0.525 0.125 0  0.55 0.125 0  0.575 0.125 0  0.6 0.125 0  0.625 0.125 0  0.65 0.125 0  0.675 0.125 0  0.7 0.125 0  0.725 0.125 0  0.75 0.125 0  0.775 0.125 0  0.8 0.125 0  0.825 0.125 0  0.85 0.125 0  0.875 0.125 0  0.9 0.125 0  0.925 0.125 0  0.95 0.125 0  0.975 0.125 0  1 0.125 0  0 0.15 0  0.025 0.15 0  0.05 0.15 0  0.075 0.15 0  0.1 0.15 0  0.125 0.15 0  0.15 0.15 0  0.175 0.15 0  0.2 0.15 0  0.225 0.15 0  0.25 0.15 0  0.275 0.15 0  0.3 0.15 0  0.325 0.15 0  0.35 0.15 0  0.375 0.15 0  0.4 0.15 0  0.425 0.15 0  0.45 0.15 0  0.475 0.15 0  0.5 0.15 0  0.525 0.15 0  0.55 0.15 0  0.575 0.15 0  0.6 0.15 0  0.625 0.15 0  0.65 0.15 0  0.675 0.15 0  0.7 0.15 0  0.725 0.15 0  0.75 0.15 0  0.775 0.15 0  0.8 0.15 0  0.825 0.15 0  0.85 0.15 0  0.875 0.15 0  0.9 0.15 0  0.925 0.15 0  0.95 0.15 0  0.975 0.15 0  1 0.15 0  0 0.175 0  0.025 0.175 0  0.05 0.175 0  0.075 0.175 0  0.1 0.175 0  0.125 0.175 0  0.15 0.175 0  0.175 0.175 0  0.2 0.175 0  0.225 0.175 0  0.25 0.175 0  0.275 0.175 0  0.3 0.175 0  0.325 0.175 0  0.35 0.175 0  0.375 0.175 0  0.4 0.175 0  0.425 0.175 0  0.45 0.175 0  0.475 0.175 0  0.5 0.175 0  0.525 0.175 0  0.55 0.175 0  0.575 0.175 0  0.6 0.175 0  0.625 0.175 0  0.65 0.175 0  0.675 0.175 0  0.7 0.175 0  0.725 0.175 0  0.75 0.175 0  0.775 0.175 0  0.8 0.175 0  0.825 0.175 0  0.85 0.175 0  0.875 0.175 0  0.9 0.175 0  0.925 0.175 0  0.95 0.175 0  0.975 0.175 0  1 0.175 0  0 0.2 0  0.025 0.2 0  0.05 0.2 0  0.075 0.2 0  0.1 0.2 0  0.125 0.2 0  0.15 0.2 0  0.175 0.2 0  0.2 0.2 0  0.225 0.2 0  0.25 0.2 0  0.275 0.2 0  0.3 0.2 0  0.325 0.2 0  0.35 0.2 0  0.375 0.2 0  0.4 0.2 0  0.425 0.2 0  0.45 0.2 0  0.475 0.2 0  0.5 0.2 0  0.525 0.2 0  0.55 0.2 0  0.575 0.2 0  0.6 0.2 0  0.625 0.2 0  0.65 0.2 0  0.675 0.2 0  0.7 0.2 0  0.725 0.2 0  0.75 0.2 0  0.775 0.2 0  0.8 0.2 0  0.825 0.2 0  0.85 0.2 0  0.875 0.2 0  0.9 0.2 0  0.925 0.2 0  0.95 0.2 0  0.975 0.2 0  1 0.2 0  0 0.225 0  0.025 0.225 0  0.05 0.225 0  0.075 0.225 0  0.1 0.225 0  0.125 0.225 0  0.15 0.225 0  0.175 0.225 0  0.2 0.225 0  0.225 0.225 0  0.25 0.225 0  0.275 0.225 0  0.3 0.225 0  0.325 0.225 0  0.35 0.225 0  0.375 0.225 0  0.4 0.225 0  0.425 0.225 0  0.45 0.225 0  0.475 0.225 0  0.5 0.225 0  0.525 0.225 0  0.55 0.225 0  0.575 0.225 0  0.6 0.225 0  0.625 0.225 0  0.65 0.225 0  0.675 0.225 0  0.7 0.225 0  0.725 0.225 0  0.75 0.225 0  0.775 0.225 0  0.8 0.225 0  0.825 0.225 0  0.85 0.225 0  0.875 0.225 0  0.9 0.225 0  0.925 0.225 0  0.95 0.225 0  0.975 0.225 0  1 0.225 0  0 0.25 0  0.025 0.25 0  0.05 0.25 0  0.075 0.25 0  0.1 0.25 0  0.125 0.25 0  0.15 0.25 0  0.175 0.25 0  0.2 0.25 0  0.225 0.25 0  0.25 0.25 0  0.275 0.25 0  0.3 0.25 0  0.325 0.25 0  0.35 0.25 0  0.375 0.25 0  0.4 0.25 0  0.425 0.25 0  0.45 0.25 0  0.475 0.25 0  0.5 0.25 0  0.525 0.25 0  0.55 0.25 0  0.575 0.25 0  0.6 0.25 0  0.625 0.25 0  0.65 0.25 0  0.675 0.25 0  0.7 0.25 0  0.725 0.25 0  0.75 0.25 0  0.775 0.25 0  0.8 0.25 0  0.825 0.25 0  0.85 0.25 0  0.875 0.25 0  0.9 0.25 0  0.925 0.25 0  0.95 0.25 0  0.975 0.25 0  1 0.25 0  0 0.275 0  0.025 0.275 0  0.05 0.275 0  0.075 0.275 0  0.1 0.275 0  0.125 0.275 0  0.15 0.275 0  0.175 0.275 0  0.2 0.275 0  0.225 0.275 0  0.25 0.275 0  0.275 0.275 0  0.3 0.275 0  0.325 0.275 0  0.35 0.275 0  0.375 0.275 0  0.4 0.275 0  0.425 0.275 0  0.45 0.275 0  0.475 0.275 0  0.5 0.275 0  0.525 0.275 0  0.55 0.275 0  0.575 0.275 0  0.6 0.275 0  0.625 0.275 0  0.65 0.275 0  0.675 0.275 0  0.7 0.275 0  0.725 0.275 0  0.75 0.275 0  0.775 0.275 0  0.8 0.275 0  0.825 0.275 0  0.85 0.275 0  0.875 0.275 0  0.9 0.275 0  0.925 0.275 0  0.95 0.275 0  0.975 0.275 0  1 0.275 0  0 0.3 0  0.025 0.3 0  0.05 0.3 0  0.075 0.3 0  0.1 0.3 0  0.125 0.3 0  0.15 0.3 0  0.175 0.3 0  0.2 0.3 0  0.225 0.3 0  0.25 0.3 0  0.275 0.3 0  0.3 0.3 0  0.325 0.3 0  0.35 0.3 0  0.375 0.3 0  0.4 0.3 0  0.425 0.3 0  0.45 0.3 0  0.475 0.3 0  0.5 0.3 0  0.525 0.3 0  0.55 0.3 0  0.575 0.3 0  0.6 0.3 0  0.625 0.3 0  0.65 0.3 0  0.675 0.3 0  0.7 0.3 0  0.725 0.3 0  0.75 0.3 0  0.775 0.3 0  0.8 0.3 0  0.825 0.3 0  0.85 0.3 0  0.875 0.3 0  0.9 0.3 0  0.925 0.3 0  0.95 0.3 0  0.975 0.3 0  1 0.3 0  0 0.325 0  0.025 0.325 0  0.05 0.325 0  0.075 0.325 0  0.1 0.325 0  0.125 0.325 0  0.15 0.325 0  0.175 0.325 0  0.2 0.325 0  0.225 0.325 0  0.25 0.325 0  0.275 0.325 0  0.3 0.325 0  0.325 0.325 0  0.35 0.325 0  0.375 0.325 0  0.4 0.325 0  0.425 0.325 0  0.45 0.325 0  0.475 0.325 0  0.5 0.325 0  0.525 0.325 0  0.55 0.325 0  0.575 0.325 0  0.6 0.325 0  0.625 0.325 0  0.65 0.325 0  0.675 0.325 0  0.7 0.325 0  0.725 0.325 0  0.75 0.325 0  0.775 0.325 0  0.8 0.325 0  0.825 0.325 0  0.85 0.325 0  0.875 0.325 0  0.9 0.325 0  0.925 0.325 0  0.95 0.325 0  0.975 0.325 0  1 0.325 0  0 0.35 0  0.025 0.35 0  0.05 0.35 0  0.075 0.35 0  0.1 0.35 0  0.125 0.35 0  0.15 0.35 0  0.175 0.35 0  0.2 0.35 0  0.225 0.35 0  0.25 0.35 0  0.275 0.35 0  0.3 0.35 0  0.325 0.35 0  0.35 0.35 0  0.375 0.35 0  0.4 0.35 0  0.425 0.35 0  0.45 0.35 0  0.475 0.35 0  0.5 0.35 0  0.525 0.35 0  0.55 0.35 0  0.575 0.35 0  0.6 0.35 0  0.625 0.35 0  0.65 0.35 0  0.675 0.35 0  0.7 0.35 0  0.725 0.35 0  0.75 0.35 0  0.775 0.35 0  0.8 0.35 0  0.825 0.35 0  0.85 0.35 0  0.875 0.35 0  0.9 0.35 0  0.925 0.35 0  0.95 0.35 0  0.975 0.35 0  1 0.35 0  0 0.375 0  0.025 0.375 0  0.05 0.375 0  0.075 0.375 0  0.1 0.375 0  0.125 0.375 0  0.15 0.375 0  0.175 0.375 0  0.2 0.375 0  0.225 0.375 0  0.25 0.375 0  0.275 0.375 0  0.3 0.375 0  0.325 0.375 0  0.35 0.375 0  0.375 0.375 0  0.4 0.375 0  0.425 0.375 0  0.45 0.375 0  0.475 0.375 0  0.5 0.375 0  0.525 0.375 0  0.55 0.375 0  0.575 0.375 0  0.6 0.375 0  0.625 0.375 0  0.65 0.375 0  0.675 0.375 0  0.7 0.375 0  0.725 0.375 0  0.75 0.375 0  0.775 0.375 0  0.8 0.375 0  0.825 0.375 0  0.85 0.375 0  0.875 0.375 0  0.9 0.375 0  0.925 0.375 0  0.95 0.375 0  0.975 0.375 0  1 0.375 0  0 0.4 0  0.025 0.4 0  0.05 0.4 0  0.075 0.4 0  0.1 0.4 0  0.125 0.4 0  0.15 0.4 0  0.175 0.4 0  0.2 0.4 0  0.225 0.4 0  0.25 0.4 0  0.275 0.4 0  0.3 0.4 0  0.325 0.4 0  0.35 0.4 0  0.375 0.4 0  0.4 0.4 0  0.425 0.4 0  0.45 0.4 0  0.475 0.4 0  0.5 0.4 0  0.525 0.4 0  0.55 0.4 0  0.575 0.4 0  0.6 0.4 0  0.625 0.4 0  0.65 0.4 0  0.675 0.4 0  0.7 0.4 0  0.725 0.4 0  0.75 0.4 0  0.775 0.4 0  0.8 0.4 0  0.825 0.4 0  0.85 0.4 0  0.875 0.4 0  0.9 0.4 0  0.925 0.4 0  0.95 0.4 0  0.975 0.4 0  1 0.4 0  0 0.425 0  0.025 0.425 0  0.05 0.425 0  0.075 0.425 0  0.1 0.425 0  0.125 0.425 0  0.15 0.425 0  0.175 0.425 0  0.2 0.425 0  0.225 0.425 0  0.25 0.425 0  0.275 0.425 0  0.3 0.425 0  0.325 0.425 0  0.35 0.425 0  0.375 0.425 0  0.4 0.425 0  0.425 0.425 0  0.45 0.425 0  0.475 0.425 0  0.5 0.425 0  0.525 0.425 0  0.55 0.425 0  0.575 0.425 0  0.6 0.425 0  0.625 0.425 0  0.65 0.425 0  0.675 0.425 0  0.7 0.425 0  0.725 0.425 0  0.75 0.425 0  0.775 0.425 0  0.8 0.425 0  0.825 0.425 0  0.85 0.425 0  0.875 0.425 0  0.9 0.425 0  0.925 0.425 0  0.95 0.425 0  0.975 0.425 0  1 0.425 0  0 0.45 0  0.02
[...]
<PointData  Scalars="ControlVisualisation"> 
<DataArray  type="Float64"  Name="ControlVisualisation"  format="ascii">7.4648427098840009e-02  5.2119532284666675e-02  5.2152954411291641e-02  5.2212163048572721e-02  5.2292740721060590e-02  5.2384920840021387e-02  5.2476716896062703e-02  5.2558150075124654e-02  5.2623324487057310e-02  5.2670261315984901e-02  5.2699673970657890e-02  5.2713689928495802e-02  5.2714936948910204e-02  5.2706016758371277e-02  5.2689255230645951e-02  5.2666616678665221e-02  5.2639704082919417e-02  5.2609798153745897e-02  5.2577909236235093e-02  5.2544829089485323e-02  5.2511177053667549e-02  5.2477439041646382e-02  5.2443999518767631e-02  5.2411167249376424e-02  5.2379195624965874e-02  5.2348298346766742e-02  5.2318661118659612e-02  5.2290449967260247e-02  5.2263816776915675e-02  5.2238902590377945e-02  5.2215839201439004e-02  5.2194749514289589e-02  5.2175747105143860e-02  5.2158935302959786e-02  5.2144406218782371e-02  5.2132239460001728e-02  5.2122502505764834e-02  5.2115244381298886e-02  5.2110529808920517e-02  5.2108277750836762e-02  1.2548335938412530e-01  5.2119070335720261e-02  2.7054367988664778e-02  2.7100091879025685e-02  2.7183585944378426e-02  2.7301067551550477e-02  2.7438708137382639e-02  2.7578592114786686e-02  2.7705078887158958e-02  2.7808257458792399e-02  2.7884166986131984e-02  2.7933198267138644e-02  2.7958197359490129e-02  2.7963011993809288e-02  2.7951603193802056e-02  2.7927592282881879e-02  2.7894081906929071e-02  2.7853628668097666e-02  2.7808288862451885e-02  2.7759691898639381e-02  2.7709117741263965e-02  2.7657567808955945e-02  2.7605825817890388e-02  2.7554508323126198e-02  2.7504105892112871e-02  2.7455016038749530e-02  2.7407568964556102e-02  2.7362047066780026e-02  2.7318699091080360e-02  2.7277749819336849e-02  2.7239406141598362e-02  2.7203860322777662e-02  2.7171291217597204e-02  2.7141864105691926e-02  2.7115729690454567e-02  2.7093022861958090e-02  2.7073861062216632e-02  2.7058343963740697e-02  2.7046550505906881e-02  2.7038533655169374e-02  2.7033956102053627e-02  5.2108277915760323e-02  5.2146223021388903e-02  2.7095850729079142e-02  2.7165295167697584e-02  2.7276856651596675e-02  2.7430668245647896e-02  2.7605641836341642e-02  2.7778229567453371e-02  2.7930053577308649e-02  2.8050828791007926e-02  2.8137400582300003e-02  2.8191287321590500e-02  2.8216412785893798e-02  2.8217571714138412e-02  2.8199541948845129e-02  2.8166638689695669e-02  2.8122543820303665e-02  2.8070290497063853e-02  2.8012323080833991e-02  2.7950584585865267e-02  2.7886606591162814e-02  2.7821590820340199e-02  2.7756479309385983e-02  2.7692013331989174e-02  2.7628782143042891e-02  2.7567262573338185e-02  2.7507850329234199e-02  2.7450883861843522e-02  2.7396661709932581e-02  2.7345454320940481e-02  2.7297511382282029e-02  2.7253065668990762e-02  2.7212334352718474e-02  2.7175518621071818e-02  2.7142802303191313e-02  2.7114350213343644e-02  2.7090306050955970e-02  2.7070792730367457e-02  2.7055899201789468e-02  2.7045622315900408e-02  2.7038548074953071e-02  5.2110534985051075e-02  5.2182679681517109e-02  2.7165033998435853e-02  2.7274012779424643e-02  2.7420912339560156e-02  2.7596837490588139e-02  2.7777754081047153e-02  2.7942041372842761e-02  2.8076384621296892e-02  2.8176131993444552e-02  2.8242221772474388e-02  2.8278159856155602e-02  2.8288425158263381e-02  2.8277669046451771e-02  2.8250256127455173e-02  2.8210025255624580e-02  2.8160213982647123e-02  2.8103480581013911e-02  2.8041971640657519e-02  2.7977402588504660e-02  2.7911134515746470e-02  2.7844241684101559e-02  2.7777569711750306e-02  2.7711785807065119e-02  2.7647421849118628e-02  2.7584910441922343e-02  2.7524613879182785e-02  2.7466846237337448e-02  2.7411889183242631e-02  2.7360002379033483e-02  2.7311429494140213e-02  2.7266400849255058e-02  2.7225133652981487e-02  2.7187830696369847e-02  2.7154678213823509e-02  2.7125843623623934e-02  2.7101472992822506e-02  2.7081690063562987e-02  2.7066575029950087e-02  2.7056003001450869e-02  2.7046641531659071e-02  5.2115283279709018e-02  5.2180142522924459e-02  2.7217770582964811e-02  2.7501592437798664e-02  2.7740717372753472e-02  2.7934560189974644e-02  2.8092118714392166e-02  2.8212155054271673e-02  2.8296580668759348e-02  2.8350988206855766e-02  2.8379551855509680e-02  2.8385613554208492e-02  2.8372596717495053e-02  2.8344010710617352e-02  2.8303133833604700e-02  2.8252841768254260e-02  2.8195567190161509e-02  2.8133325692316649e-02  2.8067769045267928e-02  2.8000242206546302e-02  2.7931832252985615e-02  2.7863409265760086e-02  2.7795663546612143e-02  2.7729141725310713e-02  2.7664281244215726e-02  2.7601441233523205e-02  2.7540927978166943e-02  2.7483014181722137e-02  2.7427952228015817e-02  2.7375982221443329e-02  2.7327335846315116e-02  2.7282237091328869e-02  2.7240900818154799e-02  2.7203530036230987e-02  2.7170312594706029e-02  2.7141418003334469e-02  2.7116994121235409e-02  2.7097165047467509e-02  2.7081999493465809e-02  2.7071201060960684e-02  2.7058664030758225e-02  5.2122654723832609e-02  5.2936074352249070e-02  2.7811634425083456e-02  2.9026322235073815e-02  2.9368672388128104e-02  2.9159712014552877e-02  2.8902432322271368e-02  2.8730208385257867e-02  2.8641585411853791e-02  2.8595722542119409e-02  2.8561430912765473e-02  2.8523988319256482e-02  2.8479341112839583e-02  2.8427423373367171e-02  2.8369312264442146e-02  2.8306319467278934e-02  2.8239712337730510e-02  2.8170625940661664e-02  2.8100059614791527e-02  2.8028887139179968e-02  2.7957856546611769e-02  2.7887587458208598e-02  2.7818577440953396e-02  2.7751220219666042e-02  2.7685831084014449e-02  2.7622672971759722e-02  2.7561978537170767e-02  2.7503966192604291e-02  2.7448850107578138e-02  2.7396845099941849e-02  2.7348167604621262e-02  2.7303033846147247e-02  2.7261656196110418e-02  2.7224238569162316e-02  2.7190971555240952e-02  2.7162028009741053e-02  2.7137558801827152e-02  2.7117689417460740e-02  2.7102474741777238e-02  2.7091394450555320e-02  2.7074698158172254e-02  5.2132663510741348e-02  5.6866087453445263e-02  3.5092856166278864e-02  4.8717238413300085e-02  5.3065078942828928e-02  4.4943944186205884e-02  3.6390032815423239e-02  3.1420384983380137e-02  2.9573440127934301e-02  2.9018612218587994e-02  2.8810240309834988e-02  2.8695519220136426e-02  2.8607040081760494e-02  2.8526205728056926e-02  2.8447633083889114e-02  2.8369841707619716e-02  2.8292460769436260e-02  2.8215487234193651e-02  2.8139126352265332e-02  2.8063713899447482e-02  2.7989628371834101e-02  2.7917217082970854e-02  2.7846760305773280e-02  2.7778471509539417e-02  2.7712517412051194e-02  2.7649042353284622e-02  2.7588188156009906e-02  2.7530106721047116e-02  2.7474965913685444e-02  2.7422950367762176e-02  2.7374258773505765e-02  2.7329098871734774e-02  2.7287681094813047e-02  2.7250211650847674e-02  2.7216885717413906e-02  2.7187881485369346e-02  2.7163354722253411e-02  2.7143433694985227e-02  2.7128156777720604e-02  2.7116725088070726e-02  2.7094844105506825e-02  5.2145366658986780e-02  7.5347192051638601e-01  6.1773283146711544e-01  6.3293458631930233e-01  5.2174201742782778e-01  3.3228922632973229e-01  1.5137700833976744e-01  7.0723347436278325e-02  3.9258258697041103e-02  3.1230490387710801e-02  2.9426891635373612e-02  2.8954972709190147e-02  2.8762835382566389e-02  2.8639011643083058e-02  2.8535820759951327e-02  2.8441593228630595e-02  2.8352576829538061e-02  2.8267101659003528e-02  2.8184419570416647e-02  2.8104320178897437e-02  2.8026842124990285e-02  2.7952073078974522e-02  2.7880063123194618e-02  2.7810818094930856e-02  2.7744326736814387e-02  2.7680590377993551e-02  2.7619642465781066e-02  2.7561556871967124e-02  2.7506448123135390e-02  2.7454466794384284e-02  2.7405792219980553e-02  2.7360623726499493e-02  2.7319171138264160e-02  2.7281645180073415e-02  2.7248248376749953e-02  2.7219167201898868e-02  2.7194565114434750e-02  2.7174575275108075e-02  2.7159217208933630e-02  2.7147357152344863e-02  2.7119224416801466e-02  5.2160829197339914e-02  9.8020260657513469e-01  9.8545306363011564e-01  9.7945876066413562e-01  9.6709543205965154e-01  9.3819315627309607e-01  8.1784520737730371e-01  4.4296046212451012e-01  1.4728863370609224e-01  5.6294925249524355e-02  3.4220016995627989e-02  2.9947064603012642e-02  2.9057289035975712e-02  2.8782940286552136e-02  2.8634378738959632e-02  2.8519922727618323e-02  2.8418739294071793e-02  2.8324597787386729e-02  2.8235296371863436e-02  2.8150162972594470e-02  2.8069028081801735e-02  2.7991773822047386e-02  2.7918207150168125e-02  2.7848085581625548e-02  2.7781179496435084e-02  2.7717317980474838e-02  2.7656408231916847e-02  2.7598436171096023e-02  2.7543457800201086e-02  2.7491587234863925e-02  2.7442983910212066e-02  2.7397839660943179e-02  2.7356365870372854e-02  2.7318780970104914e-02  2.7285298752677434e-02  2.7256118259370840e-02  2.7231414862646179e-02  2.7211330125262764e-02  2.7195863479483967e-02  2.7183488313772087e-02  2.7147984593512205e-02  5.2179128488451146e-02  9.9008515244238970e-01  9.9382336580104536e-01  9.9160274530890302e-01  9.8808456621446084e-01  9.8234090132656782e-01  9.7026099955243850e-01  9.3264350755782377e-01  7.0389835956789171e-01  2.7050947136088543e-01  7.4869964557043131e-02  3.7927714657466589e-02  3.0596424750108014e-02  2.9136702946158114e-02  2.8770985630791113e-02  2.8607713703349913e-02  2.8490689676981432e-02  2.8387490053827930e-02  2.8291189188748983e-02  2.8200587140724730e-02  2.8115531553821436e-02  2.8035760205418002e-02  2.7960778929479201e-02  2.7890012248027556e-02  2.7822947945770244e-02  2.7759207208754272e-02  2.7698555265249773e-02  2.7640884350474910e-02  2.7586190136565630e-02  2.7534549930152395e-02  2.7486103830995492e-02  2.7441037794305248e-02  2.7399567617378384e-02  2.7361923584155387e-02  2.7328336049119772e-02  2.7299022734919229e-02  2.7274177356791822e-02  2.7253955778869264e-02  2.7238338183056699e-02  2.7225345685821058e-02  2.7181289051285452e-02  5.2200350461750700e-02  9.9145004884691579e-01  9.9526932632082987e-01  9.9402901538834665e-01  9.9218225973651564e-01  9.8965595287024943e-01  9.8572715743686268e-01  9.7795958455221033e-01  9.5577422399933731e-01  8.3755553139441252e-01  3.6364608094507750e-01  8.5826030381548624e-02  4.1320991828992820e-02  3.1231878234827128e-02  2.9190559435406702e-02  2.8744517313067975e-02  2.8575562295550735e-02  2.8457143393598880e-02  2.8351863869335522e-02  2.8254739690545323e-02  2.8165374516526169e-02  2.8083197936833310e-02  2.8007183707945412e-02  2.7936235353348285e-02  2.7869457297862520e-02  2.7806227376347498e-02  2.7746164322507694e-02  2.7689070822430266e-02  2.7634886093693800e-02  2.7583652690556931e-02  2.7535492605186614e-02  2.7490587579999157e-02  2.7449160810095082e-02  2.7411459196541761e-02  2.7377736351949421e-02  2.7348237150810285e-02  2.7323183371954322e-02  2.7302755014811837e-02  2.7286917660541279e-02  2.7273180500671373e-02  2.7219314645825492e-02  5.2224584938961885e-02  9.8876648277920187e-01  9.9452854460035955e-01  9.9376162535746371e-01  9.9266500978760064e-01  9.9129507788026938e-01  9.8941434402677175e-01  9.8633545458805560e-01  9.8015080965963763e-01  9.6307923460377787e-01  8.8223483548952297e-01  3.9692273158124203e-01  8.8756582577902005e-02  4.3216790754680642e-02  3.1679219931727343e-02  2.9235347573769790e-02  2.8725271456036570e-02  2.8543469631349093e-02  2.8418310449196588e-02  2.8311373741113435e-02  2.8216978357897320e-02  2.8132831861648208e-02  2.8056608180096879e-02  2.7986301647228241e-02  2.7920505840365727e-02  2.7858351850746806e-02  2.7799340322198357e-02  2.7743207444648747e-02  2.7689847369485480e-02  2.7639271413885516e-02  2.7591583787172927e-02  2.7546962278292775e-02  2.7505639349802689e-02  2.7467882928341014e-02  2.7433977495725577e-02  2.7404206252830229e-02  2.7378833488583526e-02  2.7358079582837560e-02  2.7341907109916633e-02  2.7327256338114992e-02  2.7262237577709368e-02  5.2251916521958056e-02  9.7240377815344969e-01  9.8956534587698608e-01  9.9041736330935359e-01  9.9071340149542031e-01  9.9056848765051098e-01  9.8996589689658543e-01  9.8867910741849085e-01  9.8612264700104890e-01  9.8062326729787297e-01  9.6538316206541064e-01  8.9554439221024318e-01  3.8055831565744147e-01  9.0992964782524444e-02  4.3716384309133875e-02  3.2009442651244106e-02  2.9276253254584762e-02  2.8701307753715245e-02  2.8498316423122699e-02  2.8369035740489938e-02  2.8267825100188569e-02  2.8182879396244566e-02  2.8108076674498113e-02  2.8039751853408328e-02  2.7975924230580308e-02  2.7915590907580470e-02  2.7858231569494116e-02  2.7803564869506386e-02  2.7751455798116102e-02  2.7701884980459349e-02  2.7654934735049770e-02  2.7610775200304416e-02  2.7569646725519363e-02  2.7531840210429866e-02  2.7497677797708571e-02  2.7467494442080603e-02  2.7441617786593382e-02  2.7420335221595211e-02  2.7403630543710821e-02  2.7387826840200982e-02  2.7310209361103479e-02  5.2282408488571748e-02  4.2973692295211469e-01  9.3708549402713814e-01  9.7372645518998791e-01  9.8357294958757358e-01  9.8713178890581843e-01  9.8852505688823811e-01  9.8874448533933279e-01  9.8793051893576844e-01  9.8566625338951286e-01  9.8038129207234515e-01  9.6542440175277267e-01  8.9624738834527906e-01  3.4760101714685698e-01  8.9118086118300258e-02  4.4589397546616012e-02  3.2293148795921704e-02  2.9280372558745049e-02  2.8643912300134383e-02  2.8431470115574755e-02  2.8315201376689407e-02  2.8231458831712661e-02  2.8160834555045505e-02  2.8096358907788489e-02  2.8035685132501029e-02  2.7978032387981779e-02  2.7923046689953490e-02  2.7870487983374055e-02  2.7820195813836057e-02  2.7772107166752144e-02  2.7726268012766751e-02  2.7682829973150753e-02  2.7642033959031035e-02  2.7604189398711294e-02  2.7569657389821846e-02  2.7538837397667448e-02  2.7512148950681669e-02  2.7489989785311288e-02  2.7472412184800614e-02  2.7455094880020382e-02  2.7363313303536148e-02  5.2316074331113710e-02  5.8278128727472747e-02  1.3415315548077539e-01  7.6418876628960575e-01  9.5145899847845505e-01  9.7691598533406476e-01  9.8427373215354130e-01  9.8702892867347225e-01  9.8784416108285977e-01  9.8730067404193578e-01  9.8511938096396889e-01  9.7972517723098240e-01  9.6410853808775954e-01  8.9027188882177721e-01  3.3190648925549099e-01  8.9058523117835159e-02  4.6049983538950567e-02  3.2590346810018170e-02  2.9252650666970664e-02  2.8556243074738454e-02  2.8366457842079595e-02  2.8279968358954015e-02  2.8215735568997136e-02  2.8156641985098155e-02  2.8100034856778804e-02  2.8045852967447660e-02  2.7994049917157891e-02  2.7944403712818498e-02  2.7896679098403980e-02  2.7850727151466685e-02  2.7806525640758105e-02  2.7764188044401006e-02  2.7723941624309252e-02  2.7686096830675980e-02  2.7651037678483856e-02  2.7619230423544819e-02  2.7591221734139922e-02  2.7567589753884625e-02  2.7548544739386636e-02  2.7529139656052852e-02  2.7421486634715168e-02  5.2352827775610095e-02  5.2492121161496381e-02  3.4948356708317072e-02  2.2493018588805430e-01  7.0311188147762516e-01  9.3498835837396499e-01  9.7268045413984194e-01  9.8253260367658823e-01  9.8610286794585100e-01  9.8721194373963683e-01  9.8673835099784624e-01  9.8446687270457334e-01  9.7873894881994161e-01  9.6192641630698206e-01  8.8161675058901556e-01  3.5285468391013158e-01  9.4212637794497137e-02  4.7579969539484263e-02  3.3017745936598397e-02  2.9308355358530550e-02  2.8521976557229531e-02  2.8353728068915313e-02  2.8280952808393170e-02  2.8223105683144439e-02  2.8169621955537332e-02  2.8119279663717696e-02  2.8071541576057506e-02  2.8025831555111416e-02  2.7981677609775869e-02  2.7938763485131947e-02  2.7896939301909916e-02  2.7856254348103425e-02  2.7816910898168231e-02  2.7779180800406887e-02  2.7743407173575117e-02  2.7710086229005920e-02  2.7679926034060141e-02  2.7653798395270691e-02  2.7632239108095098e-02  2.7609788644311045e-02  2.7484381735401457e-02  5.2392394873803760e-02  5.2623210839891521e-02  2.8646228528241995e-02  4.1486642051728792e-02  2.5771392847169811e-01  6.9779949250687068e-01  9.2812373962351591e-01  9.7078161909984717e-01  9.8166447096285625e-01  9.8552805363767504e-01  9.8668049947608261e-01  9.8612630808923951e-01  9.8365954367777864e-01  9.7752889072878568e-01  9.5966930713265164e-01  8.7769119991666800e-01  3.7923428626219741e-01  1.0691216339234719e-01  4.9395309862717195e-02  3.4240318187074528e-02  2.9803310510432862e-02  2.8660090320685214e-02  2.8408242027156819e-02  2.8309179471419737e-02  2.8248396099022688e-02  2.8199533480182434e-02  2.8156146422447223e-02  2.8115508633927887e-02  2.8076209773637083e-02  2.8037565351689369e-02  2.7999137987610632e-02  2.7960875023374535e-02  2.7923016334034552e-02  2.7885728742579226e-02  2.7849109903147522e-02  2.7813529107128584e-02  2.7779870439310812e-02  2.7749487473502608e-02  2.7723552624671400e-02  2.7696395977300226e-02  2.7551118594052341e-02  5.2434158399220332e-02  5.2658382532713488e-02  2.8003838873127011e-02  2.9655968797390013e-02  4.4383297633807037e-02  2.9106563123658646e-01  7.2148466512410314e-01  9.2992231978304163e-01  9.7083608662889298e-01  9.8124577745043973e-01  9.8502482282827242e-01  9.8606906431046060e-01  9.8537930606507484e-01  9.8275484282887593e-01  9.7649350431381754e-01  9.5918112255709254e-01  8.8911697289586866e-01  4.3065097964284749e-01  1.7804146337933516e-01  6.2869595408847664e-02  3.9943545655003326e-02  3.1591550705263295e-02  2.9128150852285123e-02  2.8571606893019574e-02  2.8387159611353963e-02  2.8301633843234440e-02  2.8253685166569717e-02  2.8217010428546661e-02  2.8182694076209623e-02  2.8149378333730518e-02  2.8115461168915893e-02  2.8080430979449261e-02  2.8044981792941369e-02  2.8009040872163850e-02  2.7971779454427637e-02  2.7932961470224990e-02  2.7893634129088206e-02  2.7855960320799907e-02  2.7822307406073776e-02  2.7787464356787105e-02  2.7619842525334504e-02  5.2476881134339376e-02  5.2600756403933940e-02  2.7858863343818339e-02  2.8367705756021086e-02  3.0025394553862363e-02  4.7430706586944690e-02  3.1971079063866298e-01  7.8769414475229671e-01  9.4094375921863693e-01  9.7140082464010880e-01  9.8076934182484521e-01  9.8434872440790133e-01  9.8529833959212509e-01  9.8459831885970084e-01  9.8213217454815871e-01  9.7659398667411745e-01  9.6301668441408994e-01  9.1905418303988129e-01  7.0081079139297298e-01  3.8545804918931253e-01  1.5573707175523405e-01  6.5810362504021974e-02  3.9209334783651378e-02  3.1681608215341814e-02  2.9367023137839711e-02  2.8689000679831184e-02  2.8475434638721660e-02  2.8377334597854454e-02  2.8318032075489562e-02  2.8282844499813234e-02  2.8252180882385434e-02  2.8218948488550347e-02  2.8186488222602002e-02  2.8154140524669011e-02  2.8117478991465591e-02  2.8074228283708619e-02  2.8025694672112605e-02  2.7975477000314761e-02  2.7928060028940806e-02  2.7880034736153941e-02  2.7686943357621924e-02  5.2518209979575910e-02  5.2479726230465915e-02  2.7661558373806468e-02  2.7976823531276628e-02  2.8395082197266018e-02  3.0452067199169416e-02  5.3502640114925559e-02  3.5156800851973247e-01  8.6031544795531811e-01  9.4495083313795447e-01  9.7061467548915015e-01  9.7991012326196847e-01  9.8349742168168852e-01  9.8461175353849306e-01  9.8427881429189346e-01  9.8257393982245689e-01  9.7885403645656255e-01  9.7102695378956816e-01  9.5210748404351930e-01  8.9881986034094075e-01  7.0490131017730207e-01  4.6212471646102476e-01  2.0928839608794328e-01  9.0210603878032231e-02  4.7661914100061931e-02  3.5731918880027323e-02  3.1211025215313003e-02  2.9388247757271294e-02  2.8769503682704731e-02  2.8575007889522743e-02  2.8475934889892494e-02  2.8399957425571387e-02  2.8356902746108838e-02  2.8332077648042631e-02  2.8298791190815208e-02  2.8248245925510757e-02  2.8184159839219187e-02  2.8112509244062178e-02  2.8040514564643515e-02  2.7968846777390220e-02  2.7745647386181092e-02  5.2553749682213713e-02  5.2343347565275936e-02  2.7448006232517294e-02  2.7681096161864219e-02  2.7972005356634033e-02  2.8558043855736577e-02  3.1630140440198365e-02  7.0796801762981754e-02  3.1825576871760175e-01  8.532337958