<?xml version="1.0"?>
<VTKFile type="UnstructuredGrid"  version="0.1"  >
<UnstructuredGrid>
<Piece  NumberOfPoints="1681" NumberOfCells="3200">
<Points>
<DataArray  type="Float64"  NumberOfComponents="3"  format="ascii">0 0 0  0.025 0 0  0.05 0 0  0.075 0 0  0.1 0 0  0.125 0 0  0.15 0 0  0.175 0 0  0.2 0 0  0.225 0 0  0.25 0 0  0.275 0 0  0.3 0 0  0.325 0 0  0.35 0 0  0.375 0 0  0.4 0 0  0.425 0 0  0.45 0 0  0.475 0 0  0.5 0 0  0.525 0 0  0.55 0 0  0.575 0 0  0.6 0 0  0.625 0 0  0.65 0 0  0.675 0 0  0.7 0 0  0.725 0 0  0.75 0 0  0.775 0 0  0.8 0 0  0.825 0 0  0.85 0 0  0.875 0 0  0.9 0 0  0.925 0 0  0.95 0 0  0.975 0 0  1 0 0  0 0.025 0  0.025 0.025 0  0.05 0.025 0  0.075 0.025 0  0.1 0.025 0  0.125 0.025 0  0.15 0.025 0  0.175 0.025 0  0.2 0.025 0  0.225 0.025 0  0.25 0.025 0  0.275 0.025 0  0.3 0.025 0  0.325 0.025 0  0.35 0.025 0  0.375 0.025 0  0.4 0.025 0  0.425 0.025 0  0.45 0.025 0  0.475 0.025 0  0.5 0.025 0  0.525 0.025 0  0.55 0.025 0  0.575 0.025 0  0.6 0.025 0  0.625 0.025 0  0.65 0.025 0  0.675 0.025 0  0.7 0.025 0  0.725 0.025 0  0.75 0.025 0  0.775 0.025 0  0.8 0.025 0  0.825 0.025 0  0.85 0.025 0  0.875 0.025 0  0.9 0.025 0  0.925 0.025 0  0.95 0.025 0  0.975 0.025 0  1 0.025 0  0 0.05 0  0.025 0.05 0  0.05 0.05 0  0.075 0.05 0  0.1 0.05 0  0.125 0.05 0  0.15 0.05 0  0.175 0.05 0  0.2 0.05 0  0.225 0.05 0  0.25 0.05 0  0.275 0.05 0  0.3 0.05 0  0.325 0.05 0  0.35 0.05 0  0.375 0.05 0  0.4 0.05 0  0.425 0.05 0  0.45 0.05 0  0.475 0.05 0  0.5 0.05 0  0.525 0.05 0  0.55 0.05 0  0.575 0.05 0  0.6 0.05 0  0.625 0.05 0  0.65 0.05 0  0.675 0.05 0  0.7 0.05 0  0.725 0.05 0  0.75 0.05 0  0.775 0.05 0  0.8 0.05 0  0.825 0.05 0  0.85 0.05 0  0.875 0.05 0  0.9 0.05 0  0.925 0.05 0  0.95 0.05 0  0.975 0.05 0  1 0.05 0  0 0.075 0  0.025 0.075 0  0.05 0.075 0  0.075 0.075 0  0.1 0.075 0  0.125 0.075 0  0.15 0.075 0  0.175 0.075 0  0.2 0.075 0  0.225 0.075 0  0.25 0.075 0  0.275 0.075 0  0.3 0.075 0  0.325 0.075 0  0.35 0.075 0  0.375 0.075 0  0.4 0.075 0  0.425 0.075 0  0.45 0.075 0  0.475 0.075 0  0.5 0.075 0  0.525 0.075 0  0.55 0.075 0  0.575 0.075 0  0.6 0.075 0  0.625 0.075 0  0.65 0.075 0  0.675 0.075 0  0.7 0.075 0  0.725 0.075 0  0.75 0.075 0  0.775 0.075 0  0.8 0.075 0  0.825 0.075 0  0.85 0.075 0  0.875 0.075 0  0.9 0.075 0  0.925 0.075 0  0.95 0.075 0  0.975 0.075 0  1 0.075 0  0 0.1 0  0.025 0.1 0  0.05 0.1 0  0.075 0.1 0  0.1 0.1 0  0.125 0.1 0  0.15 0.1 0  0.175 0.1 0  0.2 0.1 0  0.225 0.1 0  0.25 0.1 0  0.275 0.1 0  0.3 0.1 0  0.325 0.1 0  0.35 0.1 0  0.375 0.1 0  0.4 0.1 0  0.425 0.1 0  0.45 0.1 0  0.475 0.1 0  0.5 0.1 0  0.525 0.1 0  0.55 0.1 0  0.575 0.1 0  0.6 0.1 0  0.625 0.1 0  0.65 0.1 0  0.675 0.1 0  0.7 0.1 0  0.725 0.1 0  0.75 0.1 0  0.775 0.1 0  0.8 0.1 0  0.825 0.1 0  0.85 0.1 0  0.875 0.1 0  0.9 0.1 0  0.925 0.1 0  0.95 0.1 0  0.975 0.1 0  1 0.1 0  0 0.125 0  0.025 0.125 0  0.05 0.125 0  0.075 0.125 0  0.1 0.125 0  0.125 0.125 0  0.15 0.125 0  0.175 0.125 0  0.2 0.125 0  0.225 0.125 0  0.25 0.125 0  0.275 0.125 0  0.3 0.125 0  0.325 0.125 0  0.35 0.125 0  0.375 0.125 0  0.4 0.125 0  0.425 0.125 0  0.45 0.125 0  0.475 0.125 0  0.5 0.125 0  0.525 0.125 0  0.55 0.125 0  0.575 0.125 0  0.6 0.125 0  0.625 0.125 0  0.65 0.125 0  0.675 0.125 0  0.7 0.125 0  0.725 0.125 0  0.75 0.125 0  0.775 0.125 0  0.8 0.125 0  0.825 0.125 0  0.85 0.125 0  0.875 0.125 0  0.9 0.125 0  0.925 0.125 0  0.95 0.125 0  0.975 0.125 0  1 0.125 0  0 0.15 0  0.025 0.15 0  0.05 0.15 0  0.075 0.15 0  0.1 0.15 0  0.125 0.15 0  0.15 0.15 0  0.175 0.15 0  0.2 0.15 0  0.225 0.15 0  0.25 0.15 0  0.275 0.15 0  0.3 0.15 0  0.325 0.15 0  0.35 0.15 0  0.375 0.15 0  0.4 0.15 0  0.425 0.15 0  0.45 0.15 0  0.475 0.15 0  0.5 0.15 0  0.525 0.15 0  0.55 0.15 0  0.575 0.15 0  0.6 0.15 0  0.625 0.15 0  0.65 0.15 0  0.675 0.15 0  0.7 0.15 0  0.725 0.15 0  0.75 0.15 0  0.775 0.15 0  0.8 0.15 0  0.825 0.15 0  0.85 0.15 0  0.875 0.15 0  0.9 0.15 0  0.925 0.15 0  0.95 0.15 0  0.975 0.15 0  1 0.15 0  0 0.175 0  0.025 0.175 0  0.05 0.175 0  0.075 0.175 0  0.1 0.175 0  0.125 0.175 0  0.15 0.175 0  0.175 0.175 0  0.2 0.175 0  0.225 0.175 0  0.25 0.175 0  0.275 0.175 0  0.3 0.175 0  0.325 0.175 0  0.35 0.175 0  0.375 0.175 0  0.4 0.175 0  0.425 0.175 0  0.45 0.175 0  0.475 0.175 0  0.5 0.175 0  0.525 0.175 0  0.55 0.175 0  0.575 0.175 0  0.6 0.175 0  0.625 0.175 0  0.65 0.175 0  0.675 0.175 0  0.7 0.175 0  0.725 0.175 0  0.75 0.175 0  0.775 0.175 0  0.8 0.175 0  0.825 0.175 0  0.85 0.175 0  0.875 0.175 0  0.9 0.175 0  0.925 0.175 0  0.95 0.175 0  0.975 0.175 0  1 0.175 0  0 0.2 0  0.025 0.2 0  0.05 0.2 0  0.075 0.2 0  0.1 0.2 0  0.125 0.2 0  0.15 0.2 0  0.175 0.2 0  0.2 0.2 0  0.225 0.2 0  0.25 0.2 0  0.275 0.2 0  0.3 0.2 0  0.325 0.2 0  0.35 0.2 0  0.375 0.2 0  0.4 0.2 0  0.425 0.2 0  0.45 0.2 0  0.475 0.2 0  0.5 0.2 0  0.525 0.2 0  0.55 0.2 0  0.575 0.2 0  0.6 0.2 0  0.625 0.2 0  0.65 0.2 0  0.675 0.2 0  0.7 0.2 0  0.725 0.2 0  0.75 0.2 0  0.775 0.2 0  0.8 0.2 0  0.825 0.2 0  0.85 0.2 0  0.875 0.2 0  0.9 0.2 0  0.925 0.2 0  0.95 0.2 0  0.975 0.2 0  1 0.2 0  0 0.225 0  0.025 0.225 0  0.05 0.225 0  0.075 0.225 0  0.1 0.225 0  0.125 0.225 0  0.15 0.225 0  0.175 0.225 0  0.2 0.225 0  0.225 0.225 0  0.25 0.225 0  0.275 0.225 0  0.3 0.225 0  0.325 0.225 0  0.35 0.225 0  0.375 0.225 0  0.4 0.225 0  0.425 0.225 0  0.45 0.225 0  0.475 0.225 0  0.5 0.225 0  0.525 0.225 0  0.55 0.225 0  0.575 0.225 0  0.6 0.225 0  0.625 0.225 0  0.65 0.225 0  0.675 0.225 0  0.7 0.225 0  0.725 0.225 0  0.75 0.225 0  0.775 0.225 0  0.8 0.225 0  0.825 0.225 0  0.85 0.225 0  0.875 0.225 0  0.9 0.225 0  0.925 0.225 0  0.95 0.225 0  0.975 0.225 0  1 0.225 0  0 0.25 0  0.025 0.25 0  0.05 0.25 0  0.075 0.25 0  0.1 0.25 0  0.125 0.25 0  0.15 0.25 0  0.175 0.25 0  0.2 0.25 0  0.225 0.25 0  0.25 0.25 0  0.275 0.25 0  0.3 0.25 0  0.325 0.25 0  0.35 0.25 0  0.375 0.25 0  0.4 0.25 0  0.425 0.25 0  0.45 0.25 0  0.475 0.25 0  0.5 0.25 0  0.525 0.25 0  0.55 0.25 0  0.575 0.25 0  0.6 0.25 0  0.625 0.25 0  0.65 0.25 0  0.675 0.25 0  0.7 0.25 0  0.725 0.25 0  0.75 0.25 0  0.775 0.25 0  0.8 0.25 0  0.825 0.25 0  0.85 0.25 0  0.875 0.25 0  0.9 0.25 0  0.925 0.25 0  0.95 0.25 0  0.975 0.25 0  1 0.25 0  0 0.275 0  0.025 0.275 0  0.05 0.275 0  0.075 0.275 0  0.1 0.275 0  0.125 0.275 0  0.15 0.275 0  0.175 0.275 0  0.2 0.275 0  0.225 0.275 0  0.25 0.275 0  0.275 0.275 0  0.3 0.275 0  0.325 0.275 0  0.35 0.275 0  0.375 0.275 0  0.4 0.275 0  0.425 0.275 0  0.45 0.275 0  0.475 0.275 0  0.5 0.275 0  0.525 0.275 0  0.55 0.275 0  0.575 0.275 0  0.6 0.275 0  0.625 0.275 0  0.65 0.275 0  0.675 0.275 0  0.7 0.275 0  0.725 0.275 0  0.75 0.275 0  0.775 0.275 0  0.8 0.275 0  0.825 0.275 0  0.85 0.275 0  0.875 0.275 0  0.9 0.275 0  0.925 0.275 0  0.95 0.275 0  0.975 0.275 0  1 0.275 0  0 0.3 0  0.025 0.3 0  0.05 0.3 0  0.075 0.3 0  0.1 0.3 0  0.125 0.3 0  0.15 0.3 0  0.175 0.3 0  0.2 0.3 0  0.225 0.3 0  0.25 0.3 0  0.275 0.3 0  0.3 0.3 0  0.325 0.3 0  0.35 0.3 0  0.375 0.3 0  0.4 0.3 0  0.425 0.3 0  0.45 0.3 0  0.475 0.3 0  0.5 0.3 0  0.525 0.3 0  0.55 0.3 0  0.575 0.3 0  0.6 0.3 0  0.625 0.3 0  0.65 0.3 0  0.675 0.3 0  0.7 0.3 0  0.725 0.3 0  0.75 0.3 0  0.775 0.3 0  0.8 0.3 0  0.825 0.3 0  0.85 0.3 0  0.875 0.3 0  0.9 0.3 0  0.925 0.3 0  0.95 0.3 0  0.975 0.3 0  1 0.3 0  0 0.325 0  0.025 0.325 0  0.05 0.325 0  0.075 0.325 0  0.1 0.325 0  0.125 0.325 0  0.15 0.325 0  0.175 0.325 0  0.2 0.325 0  0.225 0.325 0  0.25 0.325 0  0.275 0.325 0  0.3 0.325 0  0.325 0.325 0  0.35 0.325 0  0.375 0.325 0  0.4 0.325 0  0.425 0.325 0  0.45 0.325 0  0.475 0.325 0  0.5 0.325 0  0.525 0.325 0  0.55 0.325 0  0.575 0.325 0  0.6 0.325 0  0.625 0.325 0  0.65 0.325 0  0.675 0.325 0  0.7 0.325 0  0.725 0.325 0  0.75 0.325 0  0.775 0.325 0  0.8 0.325 0  0.825 0.325 0  0.85 0.325 0  0.875 0.325 0  0.9 0.325 0  0.925 0.325 0  0.95 0.325 0  0.975 0.325 0  1 0.325 0  0 0.35 0  0.025 0.35 0  0.05 0.35 0  0.075 0.35 0  0.1 0.35 0  0.125 0.35 0  0.15 0.35 0  0.175 0.35 0  0.2 0.35 0  0.225 0.35 0  0.25 0.35 0  0.275 0.35 0  0.3 0.35 0  0.325 0.35 0  0.35 0.35 0  0.375 0.35 0  0.4 0.35 0  0.425 0.35 0  0.45 0.35 0  0.475 0.35 0  0.5 0.35 0  0.525 0.35 0  0.55 0.35 0  0.575 0.35 0  0.6 0.35 0  0.625 0.35 0  0.65 0.35 0  0.675 0.35 0  0.7 0.35 0  0.725 0.35 0  0.75 0.35 0  0.775 0.35 0  0.8 0.35 0  0.825 0.35 0  0.85 0.35 0  0.875 0.35 0  0.9 0.35 0  0.925 0.35 0  0.95 0.35 0  0.975 0.35 0  1 0.35 0  0 0.375 0  0.025 0.375 0  0.05 0.375 0  0.075 0.375 0  0.1 0.375 0  0.125 0.375 0  0.15 0.375 0  0.175 0.375 0  0.2 0.375 0  0.225 0.375 0  0.25 0.375 0  0.275 0.375 0  0.3 0.375 0  0.325 0.375 0  0.35 0.375 0  0.375 0.375 0  0.4 0.375 0  0.425 0.375 0  0.45 0.375 0  0.475 0.375 0  0.5 0.375 0  0.525 0.375 0  0.55 0.375 0  0.575 0.375 0  0.6 0.375 0  0.625 0.375 0  0.65 0.375 0  0.675 0.375 0  0.7 0.375 0  0.725 0.375 0  0.75 0.375 0  0.775 0.375 0  0.8 0.375 0  0.825 0.375 0  0.85 0.375 0  0.875 0.375 0  0.9 0.375 0  0.925 0.375 0  0.95 0.375 0  0.975 0.375 0  1 0.375 0  0 0.4 0  0.025 0.4 0  0.05 0.4 0  0.075 0.4 0  0.1 0.4 0  0.125 0.4 0  0.15 0.4 0  0.175 0.4 0  0.2 0.4 0  0.225 0.4 0  0.25 0.4 0  0.275 0.4 0  0.3 0.4 0  0.325 0.4 0  0.35 0.4 0  0.375 0.4 0  0.4 0.4 0  0.425 0.4 0  0.45 0.4 0  0.475 0.4 0  0.5 0.4 0  0.525 0.4 0  0.55 0.4 0  0.575 0.4 0  0.6 0.4 0  0.625 0.4 0  0.65 0.4 0  0.675 0.4 0  0.7 0.4 0  0.725 0.4 0  0.75 0.4 0  0.775 0.4 0  0.8 0.4 0  0.825 0.4 0  0.85 0.4 0  0.875 0.4 0  0.9 0.4 0  0.925 0.4 0  0.95 0.4 0  0.975 0.4 0  1 0.4 0  0 0.425 0  0.025 0.425 0  0.05 0.425 0  0.075 0.425 0  0.1 0.425 0  0.125 0.425 0  0.15 0.425 0  0.175 0.425 0  0.2 0.425 0  0.225 0.425 0  0.25 0.425 0  0.275 0.425 0  0.3 0.425 0  0.325 0.425 0  0.35 0.425 0  0.375 0.425 0  0.4 0.425 0  0.425 0.425 0  0.45 0.425 0  0.475 0.425 0  0.5 0.425 0  0.525 0.425 0  0.55 0.425 0  0.575 0.425 0  0.6 0.425 0  0.625 0.425 0  0.65 0.425 0  0.675 0.425 0  0.7 0.425 0  0.725 0.425 0  0.75 0.425 0  0.775 0.425 0  0.8 0.425 0  0.825 0.425 0  0.85 0.425 0  0.875 0.425 0  0.9 0.425 0  0.925 0.425 0  0.95 0.425 0  0.975 0.425 0  1 0.425 0  0 0.45 0  0.02
[...]
<PointData  Scalars="ControlVisualisation"> 
<DataArray  type="Float64"  Name="ControlVisualisation"  format="ascii">3.0607011274973357e-02  2.0415401483694341e-02  2.0416879685058432e-02  2.0414898214000273e-02  2.0413790277943551e-02  2.0420235396611620e-02  2.0435825780357977e-02  2.0457525467215985e-02  2.0481060556622608e-02  2.0502772585422338e-02  2.0520219817395151e-02  2.0532668991993755e-02  2.0541338894315926e-02  2.0548615987260863e-02  2.0556168455924631e-02  2.0563876793742816e-02  2.0570756270088468e-02  2.0576400397598924e-02  2.0581278782503432e-02  2.0585964547786835e-02  2.0590608337669136e-02  2.0595135212397989e-02  2.0599541741030084e-02  2.0603851267238085e-02  2.0607889054466446e-02  2.0611173735950943e-02  2.0612989765434159e-02  2.0612520061027595e-02  2.0608948930220937e-02  2.0601519119961602e-02  2.0589540788194777e-02  2.0572449708281742e-02  2.0550029223867918e-02  2.0522917301774322e-02  2.0493243269558870e-02  2.0464624303880415e-02  2.0441069327108267e-02  2.0425163253429413e-02  2.0416857912274981e-02  2.0413781857180215e-02  6.0643210761413227e-02  2.0416965246024772e-02  1.0247998229651056e-02  1.0250247888444870e-02  1.0249063112745363e-02  1.0247929638516822e-02  1.0254584493538874e-02  1.0272025019052385e-02  1.0297427294930581e-02  1.0325658914052245e-02  1.0352364776097203e-02  1.0374299432170199e-02  1.0389771809868930e-02  1.0400088519857700e-02  1.0408577047164887e-02  1.0417795399573354e-02  1.0427708044113904e-02  1.0436597260899070e-02  1.0443621551479574e-02  1.0449578302284407e-02  1.0455435319409614e-02  1.0461364700400134e-02  1.0467149823002269e-02  1.0472779643782109e-02  1.0478400374721917e-02  1.0483910957643769e-02  1.0488763581739401e-02  1.0492075184154136e-02  1.0492822759468267e-02  1.0489975286114870e-02  1.0482537522173374e-02  1.0469614818625843e-02  1.0450479829628597e-02  1.0424665708319993e-02  1.0392534280711858e-02  1.0356144349916302e-02  1.0319456727163794e-02  1.0287497331392519e-02  1.0264470555042263e-02  1.0251358847694663e-02  1.0245694549468658e-02  2.0413740922006450e-02  2.0437148655766887e-02  1.0264301935961340e-02  1.0267544905589357e-02  1.0266598742992402e-02  1.0272069658954559e-02  1.0294333634358409e-02  1.0332924353094417e-02  1.0373914069257008e-02  1.0406270234704022e-02  1.0428426865662987e-02  1.0440581335237335e-02  1.0443578038118628e-02  1.0442429053757264e-02  1.0443148207942753e-02  1.0450834434000553e-02  1.0463587518506418e-02  1.0474183813610649e-02  1.0480406617520656e-02  1.0485550964308428e-02  1.0492128276769732e-02  1.0499479003655242e-02  1.0506274010516823e-02  1.0512633953229081e-02  1.0519409011755234e-02  1.0526746812848445e-02  1.0533794941776371e-02  1.0539243305405632e-02  1.0541805558086981e-02  1.0540316247749454e-02  1.0533638487620253e-02  1.0520937861842120e-02  1.0501504289683571e-02  1.0474449695386910e-02  1.0439300785679860e-02  1.0397230629088716e-02  1.0352242122389315e-02  1.0310534246377769e-02  1.0278552059446631e-02  1.0258462745608311e-02  1.0248801504495249e-02  2.0415523311393780e-02  2.0538420810339783e-02  1.0331193666673833e-02  1.0335822314252856e-02  1.0499583980141777e-02  1.0975230355685435e-02  1.1485886592674476e-02  1.1958715323939589e-02  1.2305459094661859e-02  1.2358362661040932e-02  1.2138330449110273e-02  1.1723649274331695e-02  1.1255938138080950e-02  1.0891677490140257e-02  1.0669236216789786e-02  1.0566870052016899e-02  1.0531510732987181e-02  1.0513215073661809e-02  1.0497801735916960e-02  1.0491210602744452e-02  1.0496121202244480e-02  1.0504476372811180e-02  1.0510191221441995e-02  1.0514720347273895e-02  1.0521300403955916e-02  1.0530394046142481e-02  1.0540105405907859e-02  1.0548299336267389e-02  1.0553618141906074e-02  1.0555050573776623e-02  1.0551613247894928e-02  1.0542836769146743e-02  1.0528739539554908e-02  1.0509280745845728e-02  1.0481766943366496e-02  1.0443642008883466e-02  1.0398375607420041e-02  1.0349299720789764e-02  1.0303661667143742e-02  1.0268786883970656e-02  1.0249560471629997e-02  2.0416501727860456e-02  2.0907827114219658e-02  1.0644583866159608e-02  1.1218264753388042e-02  1.3620199316660673e-02  2.5791001475356221e-02  8.0445951200187826e-02  1.5965123196275205e-01  1.9516632763776906e-01  1.8444926982900572e-01  1.3894806135808455e-01  8.2431061255187454e-02  4.3190260719295284e-02  2.5427893260501062e-02  1.7828101845119841e-02  1.4417230588530536e-02  1.2598604370007878e-02  1.1468041894915354e-02  1.0883885645911834e-02  1.0650406547759885e-02  1.0575871249038696e-02  1.0549251006404784e-02  1.0531316653345960e-02  1.0521412077122785e-02  1.0523781523492703e-02  1.0535215947979907e-02  1.0548968222974568e-02  1.0560684229189874e-02  1.0569563675926021e-02  1.0575762581556854e-02  1.0579067957599626e-02  1.0577567865416880e-02  1.0577019756861872e-02  1.0583472059925018e-02  1.0589195111934147e-02  1.0583480003173534e-02  1.0560102616016720e-02  1.0489717470113017e-02  1.0394897342208314e-02  1.0318172447712291e-02  1.0267759636953935e-02  2.0413097277741120e-02  2.1948705298719111e-02  1.2324994992156821e-02  6.7501875213581822e-02  5.8092843406954875e-01  9.0315812869887990e-01  9.6901279914222704e-01  9.7801447123399254e-01  9.7902612344979323e-01  9.7652535975268928e-01  9.6896709138881465e-01  9.4721494363670911e-01  8.7434642213819913e-01  7.1852418118821992e-01  5.2103868690301114e-01  3.1050361751011274e-01  1.4692692001194380e-01  4.9847137692348234e-02  2.3246452565351794e-02  1.5985674261178417e-02  1.3258078569942079e-02  1.1838272052655797e-02  1.1094076993654785e-02  1.0776996067171201e-02  1.0658993441908200e-02  1.0622928391055624e-02  1.0616126245158834e-02  1.0619450600488833e-02  1.0630655332635901e-02  1.0653029805070307e-02  1.0692374622831111e-02  1.0753406918216281e-02  1.0906689662233106e-02  1.1252925711010282e-02  1.1798017834661261e-02  1.2394727918424164e-02  1.2934088916938927e-02  1.2996691954349450e-02  1.2545117526612262e-02  1.1240988262034957e-02  1.0511889885731051e-02  2.0691738607444519e-02  4.0391290482267694e-02  6.5822433798655167e-01  9.8902521089444939e-01  9.9439931498193634e-01  9.9539773336991799e-01  9.9572849598739477e-01  9.9578606029302574e-01  9.9560976122172551e-01  9.9522025697963645e-01  9.9458678195424799e-01  9.9361606975128980e-01  9.9215012912229916e-01  9.8993501587211319e-01  9.8625501921635805e-01  9.7878188930288812e-01  9.5728900711095655e-01  8.6237109861541683e-01  6.4566845240224424e-01  4.1188046761088826e-01  2.0491081315289866e-01  7.2211850284143564e-02  2.9395524091384684e-02  1.8609200808060285e-02  1.4880270934127689e-02  1.3213128501373336e-02  1.2359031658504108e-02  1.1961327610851747e-02  1.1889200823494202e-02  1.2120306227568576e-02  1.2737913925376040e-02  1.3770327178447953e-02  1.5957763647610940e-02  2.1692678119111942e-02  4.0998551899524491e-02  1.0501924683957992e-01  2.0394902488839217e-01  2.6722042528230389e-01  2.5073339675474260e-01  1.0643344434130815e-01  1.6176324602079142e-02  2.1441280049429461e-02  9.9629745486571664e-01  9.9797486857705209e-01  9.9836026860226235e-01  9.9842929283051374e-01  9.9840196085373500e-01  9.9831195474971612e-01  9.9818274801753337e-01  9.9802037812143185e-01  9.9782239800737871e-01  9.9758036831300712e-01  9.9727896973958929e-01  9.9689522368458960e-01  9.9639490368753714e-01  9.9572180229443974e-01  9.9477718594288400e-01  9.9337624294006810e-01  9.9120504388254072e-01  9.8778609972993692e-01  9.8158467475963651e-01  9.6572038353180112e-01  8.9906884262211717e-01  7.1212187442804264e-01  5.0381548416609245e-01  3.2394525704749244e-01  1.8754986990847364e-01  1.0572761167390332e-01  6.9339351079994963e-02  5.9635699566604652e-02  6.8241254708308954e-02  1.0765397816454091e-01  2.0401465425798651e-01  3.5966955320053323e-01  5.6717727335280332e-01  7.6870762526616798e-01  9.2829503604582153e-01  9.6920669664172510e-01  9.8049065328552787e-01  9.8455210924243175e-01  9.8528414681187326e-01  9.8157704492765196e-01  6.5693384590835358e-01  9.9921406087182207e-01  9.9949868785892071e-01  9.9941840380163527e-01  9.9930605472664280e-01  9.9917803934366756e-01  9.9904281425313146e-01  9.9890553551384864e-01  9.9876733086746383e-01  9.9862610547014763e-01  9.9847782080751180e-01  9.9831699546916786e-01  9.9813697698506565e-01  9.9792959935892656e-01  9.9768382714074400e-01  9.9738332153053555e-01  9.9700279973611283e-01  9.9650626162907374e-01  9.9583886298115354e-01  9.9491141831538121e-01  9.9357094042408767e-01  9.9156613745988653e-01  9.8858701170444818e-01  9.8401263415801199e-01  9.7579707152898809e-01  9.5832449840671674e-01  9.2063939924409821e-01  8.6690770644909632e-01  8.3173930064894186e-01  8.3945005603967915e-01  8.9477025295479462e-01  9.4880996305548460e-01  9.7342181557366159e-01  9.8389984196856950e-01  9.8894949848444635e-01  9.9187914097895835e-01  9.9390589632705384e-01  9.9533833347189826e-01  9.9637331875181645e-01  9.9715231165131113e-01  9.9771182211110254e-01  9.9482302528364919e-01  9.9956138700683461e-01  9.9973782064140804e-01  9.9966489315116880e-01  9.9956210166619286e-01  9.9944243166316349e-01  9.9931665105008216e-01  9.9919273849062651e-01  9.9907439113298913e-01  9.9896191059474149e-01  9.9885342654844567e-01  9.9874590552188658e-01  9.9863577473061926e-01  9.9851907424021236e-01  9.9839123067256241e-01  9.9824664646735972e-01  9.9807835085688212e-01  9.9787784585862371e-01  9.9763459042219149e-01  9.9733434139761001e-01  9.9695674379687438e-01  9.9647543821448092e-01  9.9585664826150400e-01  9.9506069225310756e-01  9.9404786545486867e-01  9.9280387437223339e-01  9.9140262824408998e-01  9.9007832728575440e-01  9.8918058928895558e-01  9.8898803748490871e-01  9.8958303580259077e-01  9.9085146423277715e-01  9.9243120973746546e-01  9.9392714077290867e-01  9.9516849671732821e-01  9.9615263687514821e-01  9.9693621205742933e-01  9.9757950598495992e-01  9.9812321835555984e-01  9.9857049361146910e-01  9.9888534458879275e-01  9.9785431427474280e-01  9.9961295984581966e-01  9.9978395897343009e-01  9.9972179952761886e-01  9.9963128278229108e-01  9.9952360184182365e-01  9.9941024120001554e-01  9.9930002964832787e-01  9.9919775707199165e-01  9.9910477064208980e-01  9.9902006088968909e-01  9.9894139480270916e-01  9.9886605162100850e-01  9.9879115840085875e-01  9.9871374777212218e-01  9.9863069357400069e-01  9.9853865309797596e-01  9.9843402252532254e-01  9.9831280176709836e-01  9.9817032387465376e-01  9.9800103966718245e-01  9.9779873616355208e-01  9.9755707451949382e-01  9.9726986426719944e-01  9.9693280558320851e-01  9.9654697473859533e-01  9.9612500458322373e-01  9.9570141688127511e-01  9.9534016692454086e-01  9.9512625969303392e-01  9.9513093268727215e-01  9.9536706915817885e-01  9.9577940977326629e-01  9.9628120317115398e-01  9.9679805931580523e-01  9.9728787275305575e-01  9.9773891686996385e-01  9.9815449983834703e-01  9.9853417933918209e-01  9.9885944448709685e-01  9.9909338263604797e-01  9.9836565758059359e-01  9.9950339902388152e-01  9.9974629010046068e-01  9.9968458558652074e-01  9.9959700345475955e-01  9.9949662658347860e-01  9.9939437786262841e-01  9.9929800247419498e-01  9.9921164001211482e-01  9.9913632679840403e-01  9.9907101786519492e-01  9.9901361796665678e-01  9.9896165542076043e-01  9.9891263351321791e-01  9.9886414889205355e-01  9.9881389435722956e-01  9.9875962475128810e-01  9.9869910553674801e-01  9.9863003021121799e-01  9.9854991774069612e-01  9.9845605378262059e-01  9.9834552805329024e-01  9.9821533299283538e-01  9.9806247361567701e-01  9.9788430827708874e-01  9.9767955424241850e-01  9.9745018473257763e-01  9.9720512244575898e-01  9.9696475765837289e-01  9.9676271678212447e-01  9.9664151645953347e-01  9.9663725463034136e-01  9.9675959657942825e-01  9.9698439232239877e-01  9.9726808887820018e-01  9.9757154624178923e-01  9.9787348393190034e-01  9.9816843966136781e-01  9.9845372041661939e-01  9.9871653468680766e-01  9.9892048945275680e-01  9.9814517657708091e-01  9.9889266440243685e-01  9.9954380905124107e-01  9.9949570379554398e-01  9.9942449074729267e-01  9.9934387553561688e-01  9.9926392869352865e-01  9.9919097192232853e-01  9.9912805709438168e-01  9.9907564458110609e-01  9.9903257799795031e-01  9.9899690393442475e-01  9.9896641736556635e-01  9.9893895591237236e-01  9.9891250921421104e-01  9.9888522928767143e-01  9.9885539526994516e-01  9.9882135586686727e-01  9.9878145554414344e-01  9.9873395404142684e-01  9.9867695572347448e-01  9.9860835305318851e-01  9.9852576899859480e-01  9.9842650206476868e-01  9.9830755454612441e-01  9.9816591961567891e-01  9.9799935784059390e-01  9.9780797177876657e-01  9.9759678825978526e-01  9.9738036895082982e-01  9.9718637077480465e-01  9.9705306524746595e-01  9.9701486914873094e-01  9.9707958462288926e-01  9.9721984931217911e-01  9.9739125064491507e-01  9.9755789243376358e-01  9.9770228326101174e-01  9.9781825646049160e-01  9.9790115193892581e-01  9.9791871385402697e-01  9.9654771625432403e-01  9.8990568674910262e-01  9.9823266080738082e-01  9.9872354841356514e-01  9.9888617338153118e-01  9.9893257575446437e-01  9.9893706541474381e-01  9.9892703904598512e-01  9.9891408430941486e-01  9.9890286613031509e-01  9.9889472423911563e-01  9.9888938472347932e-01  9.9888586016016634e-01  9.9888291021271403e-01  9.9887925671499112e-01  9.9887366195400074e-01  9.9886493414006816e-01  9.9885189484669168e-01  9.9883332287840587e-01  9.9880788383410546e-01  9.9877405072515846e-01  9.9873001111877124e-01  9.9867354946439502e-01  9.9860190224925138e-01  9.9851160968240804e-01  9.9839842270373558e-01  9.9825737250356339e-01  9.9808319862065109e-01  9.9787151244724359e-01  9.9762201459735289e-01  9.9734585028650569e-01  9.9707316340037944e-01  9.9685369865463214e-01  9.9673019675262386e-01  9.9669375303194185e-01  9.9667519438489705e-01  9.9657817689290451e-01  9.9628999305141652e-01  9.9563620262721664e-01  9.9460529610985704e-01  9.8992649695629631e-01  9.7340010977441493e-01  2.3459310460631239e-02  7.0266408146975756e-01  9.9346102497593169e-01  9.9676709539977604e-01  9.9773580107232296e-01  9.9813003743028872e-01  9.9833365004514063e-01  9.9845657608356353e-01  9.9854020986566205e-01  9.9860263849255326e-01  9.9865231416999889e-01  9.9869326437655936e-01  9.9872735816519387e-01  9.9875537215935128e-01  9.9877749665947169e-01  9.9879357440364047e-01  9.9880320541696932e-01  9.9880576951552824e-01  9.9880039990904190e-01  9.9878592629879903e-01  9.9876078381462707e-01  9.9872287371982982e-01  9.9866936166709175e-01  9.9859639782373133e-01  9.9849873742994255e-01  9.9836923718225845e-01  9.9819816336707601e-01  9.9797221024481020e-01  9.9767488396435855e-01  9.9729001531252837e-01  9.9681274767541206e-01  9.9627733334232182e-01  9.9577077093490030e-01  9.9533454634901330e-01  9.9481508029245780e-01  9.9377055488630095e-01  9.9179979934540241e-01  9.8683566264245071e-01  9.1068462443782938e-01  9.4826072829613250e-02  2.6456319486303687e-02  2.1495806305465201e-02  1.3681416324045308e-02  4.8320268745724648e-01  9.7742274453427058e-01  9.9223478463894055e-01  9.9551495193025841e-01  9.9675253936160035e-01  9.9737434023248261e-01  9.9774440827518596e-01  9.9799091531502360e-01  9.9816853678014283e-01  9.9830351054501498e-01  9.9840963977271346e-01  9.9849472153718200e-01  9.9856330766702583e-01  9.9861808770763183e-01  9.9866061850507115e-01  9.9869166061237513e-01  9.9871132863958634e-01  9.9871915390398258e-01  9.9871406262275475e-01  9.9869425810817769e-01  9.9865699548638431e-01  9.9859820836999780e-01  9.9851189814108143e-01  9.9838912168414440e-01  9.9821617965136167e-01  9.9797088636072673e-01  9.9761827626250110e-01  9.9710184618165743e-01  9.9632949486138933e-01  9.9515344411604056e-01  9.9349262079769329e-01  9.9143257345583680e-01  9.8920547128918312e-01  9.8628529728259251e-01  9.5816250108425383e-01  4.9064451045465318e-01  3.6243440410485661e-02  1.2080179753244947e-02  2.1387321475780829e-02  2.0486484519549028e-02  1.0500726239356585e-02  1.5649874977878387e-02  1.9238860881743100e-01  7.5012385165839446e-01  9.7597931041467190e-01  9.8960329769398836e-01  9.9365024263248691e-01  9.9547483839178852e-01  9.9644868054280511e-01  9.9704866823953309e-01  9.9745398807898578e-01  9.9774513023939060e-01  9.9796377633746358e-01  9.9813277673345757e-01  9.9826534401989575e-01  9.9836968073402477e-01  9.9845088702776275e-01  9.9851193405284855e-01  9.9855431599945177e-01  9.9857834144042557e-01  9.9858316441856976e-01  9.9856663086001607e-01  9.9852489852440862e-01  9.9845168590100986e-01  9.9833685393398996e-01  9.9816361907766493e-01  9.9790239267385017e-01  9.9750218125695356e-01  9.9685785567596852e-01  9.9578194817073329e-01  9.9360070560266989e-01  9.8922727872243277e-01  9.7670654692359726e-01  9.0984991061793230e-01  6.3333799761562659e-01  2.0593926234050930e-01  2.0674037010329681e-02  1.2024498422509720e-02  1.0459933467438391e-02  2.0434680758509554e-02  2.0419973415491139e-02  1.0289730774142762e-02  1.0490967435510788e-02  1.2622055100023408e-02  3.0626322877006264e-02  2.5319964147458096e-01  6.8706155013014625e-01  9.5404997947784809e-01  9.8297356202005570e-01  9.9004545216972650e-01  9.9326578586846559e-01  9.9500544568423999e-01  9.9603506244092821e-01  9.9670860175416809e-01  9.9717782651267495e-01  9.9751924158932781e-01  9.9777491631846715e-01  9.9796987209282639e-01  9.9811854924488463e-01  9.9822968092122533e-01  9.9830843501975386e-01  9.9835724927631930e-01  9.9837618485855750e-01  9.9836288938522910e-01  9.9831194642319998e-01  9.9821330547955300e-01  9.9804882579350973e-01  9.9778532398034581e-01  9.9736201368055888e-01  9.9665935751689305e-01  9.9534853976741366e-01  9.9318747535014784e-01  9.8730374225255935e-01  7.2060888463766859e-01  2.9149066442183369e-01  3.7465981621180089e-02  1.5571135358197354e-02  1.1647886762608042e-02  1.0409782480999524e-02  1.0258138801827694e-02  2.0421720452381359e-02  2.0442714058327670e-02  1.0291348448981871e-02  1.0381048615721672e-02  1.0520350350668155e-02  1.1025068234390249e-02  1.3756561719773779e-02  2.5963213957222678e-02  1.2791713850546280e-01  4.1822871853501326e-01  7.6294666900504660e-01  9.5579077274273461e-01  9.8147336438851218e-01  9.8866115907232999e-01  9.9223331786886870e-01  9.9428548539818018e-01  9.9552121135776428e-01  9.9632792268132975e-01  9.9688465457807707e-01  9.9728221507096049e-01  9.9757115133419894e-01  9.9778073380666576e-01  9.9792825136525831e-01  9.9802283180229590e-01  9.9806824348306344e-01  9.9806339769900221e-01  9.9800144067010987e-01  9.9786654314533152e-01  9.9762787182038648e-01  9.9722455790639575e-01  9.9653272510693924e-01  9.9529263595348971e-01  9.9355885042095615e-01  9.7517261688714807e-01  5.1543900482402671e-01  7.9836962256800148e-02  1.6014751096204243e-02  1.1444184065726965e-02  1.0553702384076508e-02  1.0346793941848367e-02  1.0287561536953392e-02  2.0437687865174102e-02  2.0473238966441556e-02  1.0319520900366688e-02  1.0372874809380150e-02  1.0438673753609715e-02  1.0509839212453688e-02  1.0616136463183745e-02  1.0972279056820416e-02  1.2388912908938843e-02  1.6591429748311941e-02  3.2622751351731635e-02  1.4211692217319524e-01  3.8256780886946307e-01  6.9661805734721205e-01  9.3100079971434868e-01  9.7594311891724517e-01  9.8607714187684103e-01  9.9077943508686672e-01  9.9341644755935854e-01  9.9497619618999744e-01  9.9595361321114062e-01  9.9660046324492613e-01  9.9703992786577678e-01  9.9733731840019713e-01  9.9752862427374112e-01  9.9763247335588590e-01  9.9765540205080749e-01  9.9759269327776823e-01  9.9742503994114984e-01  9.9710864788731757e-01  9.9655021746531713e-01  9.9554777333648348e-01  9.9370488888393971e-01  9.8971195786479726e-01  9.0178257150034213e-01  4.4595741982844400e-01  2.7128375818119582e-02  1.1595032313629135e-02  1.0623542873877588e-02  1.0427825403744755e-02  1.0347338520016357e-02  2.0477849495744160e-02  2.0490975931475933e-02  1.0340201228827832e-02  1.0378276271134908e-02  1.0415280763651056e-02  1.0455939030468129e-02  1.0495075079853224e-02  1.0530241009159462e-02  1.0573533824845611e-02  1.070205010