<?xml version="1.0"?>
<VTKFile type="UnstructuredGrid"  version="0.1"  >
<UnstructuredGrid>
<Piece  NumberOfPoints="1681" NumberOfCells="3200">
<Points>
<DataArray  type="Float64"  NumberOfComponents="3"  format="ascii">0 0 0  0.025 0 0  0.05 0 0  0.075 0 0  0.1 0 0  0.125 0 0  0.15 0 0  0.175 0 0  0.2 0 0  0.225 0 0  0.25 0 0  0.275 0 0  0.3 0 0  0.325 0 0  0.35 0 0  0.375 0 0  0.4 0 0  0.425 0 0  0.45 0 0  0.475 0 0  0.5 0 0  0.525 0 0  0.55 0 0  0.575 0 0  0.6 0 0  0.625 0 0  0.65 0 0  0.675 0 0  0.7 0 0  0.725 0 0  0.75 0 0  0.775 0 0  0.8 0 0  0.825 0 0  0.85 0 0  0.875 0 0  0.9 0 0  0.925 0 0  0.95 0 0  0.975 0 0  1 0 0  0 0.025 0  0.025 0.025 0  0.05 0.025 0  0.075 0.025 0  0.1 0.025 0  0.125 0.025 0  0.15 0.025 0  0.175 0.025 0  0.2 0.025 0  0.225 0.025 0  0.25 0.025 0  0.275 0.025 0  0.3 0.025 0  0.325 0.025 0  0.35 0.025 0  0.375 0.025 0  0.4 0.025 0  0.425 0.025 0  0.45 0.025 0  0.475 0.025 0  0.5 0.025 0  0.525 0.025 0  0.55 0.025 0  0.575 0.025 0  0.6 0.025 0  0.625 0.025 0  0.65 0.025 0  0.675 0.025 0  0.7 0.025 0  0.725 0.025 0  0.75 0.025 0  0.775 0.025 0  0.8 0.025 0  0.825 0.025 0  0.85 0.025 0  0.875 0.025 0  0.9 0.025 0  0.925 0.025 0  0.95 0.025 0  0.975 0.025 0  1 0.025 0  0 0.05 0  0.025 0.05 0  0.05 0.05 0  0.075 0.05 0  0.1 0.05 0  0.125 0.05 0  0.15 0.05 0  0.175 0.05 0  0.2 0.05 0  0.225 0.05 0  0.25 0.05 0  0.275 0.05 0  0.3 0.05 0  0.325 0.05 0  0.35 0.05 0  0.375 0.05 0  0.4 0.05 0  0.425 0.05 0  0.45 0.05 0  0.475 0.05 0  0.5 0.05 0  0.525 0.05 0  0.55 0.05 0  0.575 0.05 0  0.6 0.05 0  0.625 0.05 0  0.65 0.05 0  0.675 0.05 0  0.7 0.05 0  0.725 0.05 0  0.75 0.05 0  0.775 0.05 0  0.8 0.05 0  0.825 0.05 0  0.85 0.05 0  0.875 0.05 0  0.9 0.05 0  0.925 0.05 0  0.95 0.05 0  0.975 0.05 0  1 0.05 0  0 0.075 0  0.025 0.075 0  0.05 0.075 0  0.075 0.075 0  0.1 0.075 0  0.125 0.075 0  0.15 0.075 0  0.175 0.075 0  0.2 0.075 0  0.225 0.075 0  0.25 0.075 0  0.275 0.075 0  0.3 0.075 0  0.325 0.075 0  0.35 0.075 0  0.375 0.075 0  0.4 0.075 0  0.425 0.075 0  0.45 0.075 0  0.475 0.075 0  0.5 0.075 0  0.525 0.075 0  0.55 0.075 0  0.575 0.075 0  0.6 0.075 0  0.625 0.075 0  0.65 0.075 0  0.675 0.075 0  0.7 0.075 0  0.725 0.075 0  0.75 0.075 0  0.775 0.075 0  0.8 0.075 0  0.825 0.075 0  0.85 0.075 0  0.875 0.075 0  0.9 0.075 0  0.925 0.075 0  0.95 0.075 0  0.975 0.075 0  1 0.075 0  0 0.1 0  0.025 0.1 0  0.05 0.1 0  0.075 0.1 0  0.1 0.1 0  0.125 0.1 0  0.15 0.1 0  0.175 0.1 0  0.2 0.1 0  0.225 0.1 0  0.25 0.1 0  0.275 0.1 0  0.3 0.1 0  0.325 0.1 0  0.35 0.1 0  0.375 0.1 0  0.4 0.1 0  0.425 0.1 0  0.45 0.1 0  0.475 0.1 0  0.5 0.1 0  0.525 0.1 0  0.55 0.1 0  0.575 0.1 0  0.6 0.1 0  0.625 0.1 0  0.65 0.1 0  0.675 0.1 0  0.7 0.1 0  0.725 0.1 0  0.75 0.1 0  0.775 0.1 0  0.8 0.1 0  0.825 0.1 0  0.85 0.1 0  0.875 0.1 0  0.9 0.1 0  0.925 0.1 0  0.95 0.1 0  0.975 0.1 0  1 0.1 0  0 0.125 0  0.025 0.125 0  0.05 0.125 0  0.075 0.125 0  0.1 0.125 0  0.125 0.125 0  0.15 0.125 0  0.175 0.125 0  0.2 0.125 0  0.225 0.125 0  0.25 0.125 0  0.275 0.125 0  0.3 0.125 0  0.325 0.125 0  0.35 0.125 0  0.375 0.125 0  0.4 0.125 0  0.425 0.125 0  0.45 0.125 0  0.475 0.125 0  0.5 0.125 0  0.525 0.125 0  0.55 0.125 0  0.575 0.125 0  0.6 0.125 0  0.625 0.125 0  0.65 0.125 0  0.675 0.125 0  0.7 0.125 0  0.725 0.125 0  0.75 0.125 0  0.775 0.125 0  0.8 0.125 0  0.825 0.125 0  0.85 0.125 0  0.875 0.125 0  0.9 0.125 0  0.925 0.125 0  0.95 0.125 0  0.975 0.125 0  1 0.125 0  0 0.15 0  0.025 0.15 0  0.05 0.15 0  0.075 0.15 0  0.1 0.15 0  0.125 0.15 0  0.15 0.15 0  0.175 0.15 0  0.2 0.15 0  0.225 0.15 0  0.25 0.15 0  0.275 0.15 0  0.3 0.15 0  0.325 0.15 0  0.35 0.15 0  0.375 0.15 0  0.4 0.15 0  0.425 0.15 0  0.45 0.15 0  0.475 0.15 0  0.5 0.15 0  0.525 0.15 0  0.55 0.15 0  0.575 0.15 0  0.6 0.15 0  0.625 0.15 0  0.65 0.15 0  0.675 0.15 0  0.7 0.15 0  0.725 0.15 0  0.75 0.15 0  0.775 0.15 0  0.8 0.15 0  0.825 0.15 0  0.85 0.15 0  0.875 0.15 0  0.9 0.15 0  0.925 0.15 0  0.95 0.15 0  0.975 0.15 0  1 0.15 0  0 0.175 0  0.025 0.175 0  0.05 0.175 0  0.075 0.175 0  0.1 0.175 0  0.125 0.175 0  0.15 0.175 0  0.175 0.175 0  0.2 0.175 0  0.225 0.175 0  0.25 0.175 0  0.275 0.175 0  0.3 0.175 0  0.325 0.175 0  0.35 0.175 0  0.375 0.175 0  0.4 0.175 0  0.425 0.175 0  0.45 0.175 0  0.475 0.175 0  0.5 0.175 0  0.525 0.175 0  0.55 0.175 0  0.575 0.175 0  0.6 0.175 0  0.625 0.175 0  0.65 0.175 0  0.675 0.175 0  0.7 0.175 0  0.725 0.175 0  0.75 0.175 0  0.775 0.175 0  0.8 0.175 0  0.825 0.175 0  0.85 0.175 0  0.875 0.175 0  0.9 0.175 0  0.925 0.175 0  0.95 0.175 0  0.975 0.175 0  1 0.175 0  0 0.2 0  0.025 0.2 0  0.05 0.2 0  0.075 0.2 0  0.1 0.2 0  0.125 0.2 0  0.15 0.2 0  0.175 0.2 0  0.2 0.2 0  0.225 0.2 0  0.25 0.2 0  0.275 0.2 0  0.3 0.2 0  0.325 0.2 0  0.35 0.2 0  0.375 0.2 0  0.4 0.2 0  0.425 0.2 0  0.45 0.2 0  0.475 0.2 0  0.5 0.2 0  0.525 0.2 0  0.55 0.2 0  0.575 0.2 0  0.6 0.2 0  0.625 0.2 0  0.65 0.2 0  0.675 0.2 0  0.7 0.2 0  0.725 0.2 0  0.75 0.2 0  0.775 0.2 0  0.8 0.2 0  0.825 0.2 0  0.85 0.2 0  0.875 0.2 0  0.9 0.2 0  0.925 0.2 0  0.95 0.2 0  0.975 0.2 0  1 0.2 0  0 0.225 0  0.025 0.225 0  0.05 0.225 0  0.075 0.225 0  0.1 0.225 0  0.125 0.225 0  0.15 0.225 0  0.175 0.225 0  0.2 0.225 0  0.225 0.225 0  0.25 0.225 0  0.275 0.225 0  0.3 0.225 0  0.325 0.225 0  0.35 0.225 0  0.375 0.225 0  0.4 0.225 0  0.425 0.225 0  0.45 0.225 0  0.475 0.225 0  0.5 0.225 0  0.525 0.225 0  0.55 0.225 0  0.575 0.225 0  0.6 0.225 0  0.625 0.225 0  0.65 0.225 0  0.675 0.225 0  0.7 0.225 0  0.725 0.225 0  0.75 0.225 0  0.775 0.225 0  0.8 0.225 0  0.825 0.225 0  0.85 0.225 0  0.875 0.225 0  0.9 0.225 0  0.925 0.225 0  0.95 0.225 0  0.975 0.225 0  1 0.225 0  0 0.25 0  0.025 0.25 0  0.05 0.25 0  0.075 0.25 0  0.1 0.25 0  0.125 0.25 0  0.15 0.25 0  0.175 0.25 0  0.2 0.25 0  0.225 0.25 0  0.25 0.25 0  0.275 0.25 0  0.3 0.25 0  0.325 0.25 0  0.35 0.25 0  0.375 0.25 0  0.4 0.25 0  0.425 0.25 0  0.45 0.25 0  0.475 0.25 0  0.5 0.25 0  0.525 0.25 0  0.55 0.25 0  0.575 0.25 0  0.6 0.25 0  0.625 0.25 0  0.65 0.25 0  0.675 0.25 0  0.7 0.25 0  0.725 0.25 0  0.75 0.25 0  0.775 0.25 0  0.8 0.25 0  0.825 0.25 0  0.85 0.25 0  0.875 0.25 0  0.9 0.25 0  0.925 0.25 0  0.95 0.25 0  0.975 0.25 0  1 0.25 0  0 0.275 0  0.025 0.275 0  0.05 0.275 0  0.075 0.275 0  0.1 0.275 0  0.125 0.275 0  0.15 0.275 0  0.175 0.275 0  0.2 0.275 0  0.225 0.275 0  0.25 0.275 0  0.275 0.275 0  0.3 0.275 0  0.325 0.275 0  0.35 0.275 0  0.375 0.275 0  0.4 0.275 0  0.425 0.275 0  0.45 0.275 0  0.475 0.275 0  0.5 0.275 0  0.525 0.275 0  0.55 0.275 0  0.575 0.275 0  0.6 0.275 0  0.625 0.275 0  0.65 0.275 0  0.675 0.275 0  0.7 0.275 0  0.725 0.275 0  0.75 0.275 0  0.775 0.275 0  0.8 0.275 0  0.825 0.275 0  0.85 0.275 0  0.875 0.275 0  0.9 0.275 0  0.925 0.275 0  0.95 0.275 0  0.975 0.275 0  1 0.275 0  0 0.3 0  0.025 0.3 0  0.05 0.3 0  0.075 0.3 0  0.1 0.3 0  0.125 0.3 0  0.15 0.3 0  0.175 0.3 0  0.2 0.3 0  0.225 0.3 0  0.25 0.3 0  0.275 0.3 0  0.3 0.3 0  0.325 0.3 0  0.35 0.3 0  0.375 0.3 0  0.4 0.3 0  0.425 0.3 0  0.45 0.3 0  0.475 0.3 0  0.5 0.3 0  0.525 0.3 0  0.55 0.3 0  0.575 0.3 0  0.6 0.3 0  0.625 0.3 0  0.65 0.3 0  0.675 0.3 0  0.7 0.3 0  0.725 0.3 0  0.75 0.3 0  0.775 0.3 0  0.8 0.3 0  0.825 0.3 0  0.85 0.3 0  0.875 0.3 0  0.9 0.3 0  0.925 0.3 0  0.95 0.3 0  0.975 0.3 0  1 0.3 0  0 0.325 0  0.025 0.325 0  0.05 0.325 0  0.075 0.325 0  0.1 0.325 0  0.125 0.325 0  0.15 0.325 0  0.175 0.325 0  0.2 0.325 0  0.225 0.325 0  0.25 0.325 0  0.275 0.325 0  0.3 0.325 0  0.325 0.325 0  0.35 0.325 0  0.375 0.325 0  0.4 0.325 0  0.425 0.325 0  0.45 0.325 0  0.475 0.325 0  0.5 0.325 0  0.525 0.325 0  0.55 0.325 0  0.575 0.325 0  0.6 0.325 0  0.625 0.325 0  0.65 0.325 0  0.675 0.325 0  0.7 0.325 0  0.725 0.325 0  0.75 0.325 0  0.775 0.325 0  0.8 0.325 0  0.825 0.325 0  0.85 0.325 0  0.875 0.325 0  0.9 0.325 0  0.925 0.325 0  0.95 0.325 0  0.975 0.325 0  1 0.325 0  0 0.35 0  0.025 0.35 0  0.05 0.35 0  0.075 0.35 0  0.1 0.35 0  0.125 0.35 0  0.15 0.35 0  0.175 0.35 0  0.2 0.35 0  0.225 0.35 0  0.25 0.35 0  0.275 0.35 0  0.3 0.35 0  0.325 0.35 0  0.35 0.35 0  0.375 0.35 0  0.4 0.35 0  0.425 0.35 0  0.45 0.35 0  0.475 0.35 0  0.5 0.35 0  0.525 0.35 0  0.55 0.35 0  0.575 0.35 0  0.6 0.35 0  0.625 0.35 0  0.65 0.35 0  0.675 0.35 0  0.7 0.35 0  0.725 0.35 0  0.75 0.35 0  0.775 0.35 0  0.8 0.35 0  0.825 0.35 0  0.85 0.35 0  0.875 0.35 0  0.9 0.35 0  0.925 0.35 0  0.95 0.35 0  0.975 0.35 0  1 0.35 0  0 0.375 0  0.025 0.375 0  0.05 0.375 0  0.075 0.375 0  0.1 0.375 0  0.125 0.375 0  0.15 0.375 0  0.175 0.375 0  0.2 0.375 0  0.225 0.375 0  0.25 0.375 0  0.275 0.375 0  0.3 0.375 0  0.325 0.375 0  0.35 0.375 0  0.375 0.375 0  0.4 0.375 0  0.425 0.375 0  0.45 0.375 0  0.475 0.375 0  0.5 0.375 0  0.525 0.375 0  0.55 0.375 0  0.575 0.375 0  0.6 0.375 0  0.625 0.375 0  0.65 0.375 0  0.675 0.375 0  0.7 0.375 0  0.725 0.375 0  0.75 0.375 0  0.775 0.375 0  0.8 0.375 0  0.825 0.375 0  0.85 0.375 0  0.875 0.375 0  0.9 0.375 0  0.925 0.375 0  0.95 0.375 0  0.975 0.375 0  1 0.375 0  0 0.4 0  0.025 0.4 0  0.05 0.4 0  0.075 0.4 0  0.1 0.4 0  0.125 0.4 0  0.15 0.4 0  0.175 0.4 0  0.2 0.4 0  0.225 0.4 0  0.25 0.4 0  0.275 0.4 0  0.3 0.4 0  0.325 0.4 0  0.35 0.4 0  0.375 0.4 0  0.4 0.4 0  0.425 0.4 0  0.45 0.4 0  0.475 0.4 0  0.5 0.4 0  0.525 0.4 0  0.55 0.4 0  0.575 0.4 0  0.6 0.4 0  0.625 0.4 0  0.65 0.4 0  0.675 0.4 0  0.7 0.4 0  0.725 0.4 0  0.75 0.4 0  0.775 0.4 0  0.8 0.4 0  0.825 0.4 0  0.85 0.4 0  0.875 0.4 0  0.9 0.4 0  0.925 0.4 0  0.95 0.4 0  0.975 0.4 0  1 0.4 0  0 0.425 0  0.025 0.425 0  0.05 0.425 0  0.075 0.425 0  0.1 0.425 0  0.125 0.425 0  0.15 0.425 0  0.175 0.425 0  0.2 0.425 0  0.225 0.425 0  0.25 0.425 0  0.275 0.425 0  0.3 0.425 0  0.325 0.425 0  0.35 0.425 0  0.375 0.425 0  0.4 0.425 0  0.425 0.425 0  0.45 0.425 0  0.475 0.425 0  0.5 0.425 0  0.525 0.425 0  0.55 0.425 0  0.575 0.425 0  0.6 0.425 0  0.625 0.425 0  0.65 0.425 0  0.675 0.425 0  0.7 0.425 0  0.725 0.425 0  0.75 0.425 0  0.775 0.425 0  0.8 0.425 0  0.825 0.425 0  0.85 0.425 0  0.875 0.425 0  0.9 0.425 0  0.925 0.425 0  0.95 0.425 0  0.975 0.425 0  1 0.425 0  0 0.45 0  0.02
[...]
<PointData  Scalars="ControlVisualisation"> 
<DataArray  type="Float64"  Name="ControlVisualisation"  format="ascii">1.6467557589273979e-01  1.1892975373074956e-01  1.1939475800284961e-01  1.2016798597503041e-01  1.2110837734748005e-01  1.2208091319605358e-01  1.2298987506862015e-01  1.2379162754186593e-01  1.2448135121346643e-01  1.2507345434236333e-01  1.2558697584452147e-01  1.2603814757205431e-01  1.2643816642719369e-01  1.2679359310206004e-01  1.2710757621776395e-01  1.2738100909386607e-01  1.2761334977059657e-01  1.2780314018905636e-01  1.2794835481684452e-01  1.2804670390429507e-01  1.2809597497107778e-01  1.2809443834311132e-01  1.2804126876041530e-01  1.2793684441576439e-01  1.2778269379845344e-01  1.2758082383951963e-01  1.2733227771085226e-01  1.2703514655711093e-01  1.2668277950600534e-01  1.2626326022599449e-01  1.2576076389291135e-01  1.2515796088182235e-01  1.2443845283625987e-01  1.2359122705255786e-01  1.2262319205700994e-01  1.2157865128292744e-01  1.2055196947249372e-01  1.1967194704645073e-01  1.1906797151191960e-01  1.1881048093842135e-01  2.6009102079388485e-01  1.1893170820596298e-01  6.5444035198749667e-02  6.6531528986370894e-02  6.8363981513596864e-02  7.0767251540575768e-02  7.3448928929629703e-02  7.6140701508028624e-02  7.8664820201639341e-02  8.0940329436954297e-02  8.2956643827012497e-02  8.4739600139827245e-02  8.6325385012694253e-02  8.7745933135081611e-02  8.9023282898438000e-02  9.0168858091819432e-02  9.1184722816435776e-02  9.2065439748704112e-02  9.2800110586553852e-02  9.3374510244531750e-02  9.3773310427536269e-02  9.3982403850232113e-02  9.3991274130346983e-02  9.3795157864961148e-02  9.3396426157850196e-02  9.2804299128391832e-02  9.2031980609958347e-02  9.1090954231197327e-02  8.9983709527385977e-02  8.8697869474138019e-02  8.7205486078331340e-02  8.5469437587926786e-02  8.3455586796693224e-02  8.1147420821190003e-02  7.8560221101517988e-02  7.5759586720333699e-02  7.2884811103997929e-02  7.0161143454582131e-02  6.7858714578221943e-02  6.6213572658515962e-02  6.5240585117475811e-02  1.1881027260146575e-01  1.1943188111995358e-01  6.6628428343712687e-02  6.8611732390549213e-02  7.1452872805569653e-02  7.5272096190164214e-02  7.9665632017088456e-02  8.4210969794201521e-02  8.8585395529717822e-02  9.2605056218238321e-02  9.6210878737949646e-02  9.9427825647459042e-02  1.0231844357507625e-01  1.0494648105146409e-01  1.0735702695028292e-01  1.0957052468894331e-01  1.1158477998537993e-01  1.1338000242981353e-01  1.1492425705137325e-01  1.1617859693424738e-01  1.1710200581338491e-01  1.1765641132520246e-01  1.1781180488634269e-01  1.1755105692573635e-01  1.1687341845618475e-01  1.1579514884189457e-01  1.1434557038922386e-01  1.1255748608961541e-01  1.1045243521776167e-01  1.0802415241613482e-01  1.0522898442106013e-01  1.0199385837865102e-01  9.8247059418764687e-02  9.3963520037416204e-02  8.9213109844668695e-02  8.4190388652096881e-02  7.9200819289003119e-02  7.4638795331981020e-02  7.0893455609552444e-02  6.8230988070133738e-02  6.6254503007137186e-02  1.1906952384843673e-01  1.2039181363013231e-01  6.9002060036408699e-02  7.2332986556241763e-02  7.5956109800752972e-02  8.0622984889176783e-02  8.5812116856178941e-02  9.0979860703898865e-02  9.5747969990265247e-02  9.9963597750701377e-02  1.0365943963164574e-01  1.0695888057281902e-01  1.0998881257440037e-01  1.1283587263850275e-01  1.1554042867035365e-01  1.1810699392077037e-01  1.2051612150557299e-01  1.2273271601098500e-01  1.2471099575453247e-01  1.2639777068832844e-01  1.2773564364254614e-01  1.2866731614926846e-01  1.2914157723303379e-01  1.2912072954871248e-01  1.2858808102910180e-01  1.2755268854739926e-01  1.2604727404738258e-01  1.2411588064975326e-01  1.2179328887329012e-01  1.1908798106147662e-01  1.1597973028047072e-01  1.1241623630342018e-01  1.0829875203926723e-01  1.0350277807509103e-01  9.7995604344080417e-02  9.1946335362142306e-02  8.5732803172313382e-02  7.9914803472758464e-02  7.5037688966866134e-02  7.1496495595372425e-02  6.8173951073543571e-02  1.1970957329756474e-01  1.2190069560119718e-01  7.3149613568055272e-02  7.9465538287048040e-02  8.4594075849699968e-02  9.0420762235400062e-02  9.6130345580181048e-02  1.0106553826702497e-01  1.0503295276095356e-01  1.0822625119467262e-01  1.1096374590917352e-01  1.1350523942978055e-01  1.1599741684580930e-01  1.1849259951733485e-01  1.2098761816177668e-01  1.2345559639190669e-01  1.2586318273361599e-01  1.2817562973491950e-01  1.3035483620493510e-01  1.3235500396143079e-01  1.3411926072517119e-01  1.3557927704101497e-01  1.3665884366534392e-01  1.3728171803880723e-01  1.3738370127605706e-01  1.3692839349688854e-01  1.3592443639617074e-01  1.3443777487846312e-01  1.3258378724285605e-01  1.3047201078206261e-01  1.2808209387280298e-01  1.2515860025640668e-01  1.2144237835085134e-01  1.1714833625803529e-01  1.1231885026419516e-01  1.0613032423926019e-01  9.8688740756841559e-02  9.0983380906043937e-02  8.3905355333104323e-02  7.8284449698322309e-02  7.1698340530070834e-02  1.2077465629552356e-01  1.2394085939104958e-01  8.0724931138718647e-02  9.2788024391074878e-02  9.9752287673593995e-02  1.0557902081128220e-01  1.0995474081236124e-01  1.1277382507839417e-01  1.1446012240727810e-01  1.1561600828763838e-01  1.1669139153760029e-01  1.1792054225358195e-01  1.1937916826435181e-01  1.2105021302291497e-01  1.2287729108204540e-01  1.2480423143812452e-01  1.2679506200909976e-01  1.2883405986537277e-01  1.3091346627307177e-01  1.3301835092063036e-01  1.3511480549259289e-01  1.3714357215794232e-01  1.3901890919372584e-01  1.4063219989997830e-01  1.4186084100028959e-01  1.4258446155216417e-01  1.4271153294002806e-01  1.4221885683585209e-01  1.4120339910156901e-01  1.3993712815578321e-01  1.3888276236879449e-01  1.3851338564457133e-01  1.3857796856442825e-01  1.3701016373439098e-01  1.3167417533793463e-01  1.2582202078437499e-01  1.2168253760832926e-01  1.1458292506520061e-01  1.0427029382616861e-01  9.3586739891351078e-02  7.7711650865702961e-02  1.2183779812453059e-01  1.3028836293273269e-01  9.7197899158444248e-02  1.1804486829358259e-01  1.2290557072620634e-01  1.2550083820536417e-01  1.2662771335695405e-01  1.2603086200128680e-01  1.2419686996136642e-01  1.2215485036170030e-01  1.2061559683920535e-01  1.1982448666346550e-01  1.1974841028721428e-01  1.2023432940395042e-01  1.2110850598201338e-01  1.2224160668592467e-01  1.2357429810926059e-01  1.2510421024662369e-01  1.2685398768947984e-01  1.2884125891183568e-01  1.3105953929407782e-01  1.3346905968679945e-01  1.3599346389759118e-01  1.3852009776780383e-01  1.4090536442342594e-01  1.4299043437610454e-01  1.4463397908440684e-01  1.4576394733451026e-01  1.4643840009274300e-01  1.4689047794038618e-01  1.4752053058212841e-01  1.4878008490838307e-01  1.5085392363081537e-01  1.5306822689147925e-01  1.5363894453816740e-01  1.5139193147957389e-01  1.4788239847219378e-01  1.4453535571836573e-01  1.4077453507183704e-01  1.3193744065890042e-01  9.8049265276634850e-02  1.2582707348952424e-01  1.7510028673819339e-01  1.4114485961443907e-01  1.6992192253944591e-01  1.6325481329706018e-01  1.5830237210337986e-01  1.5347480514695305e-01  1.4603531092567731e-01  1.3664266450146922e-01  1.2846413759086861e-01  1.2281781495541587e-01  1.1944637886984986e-01  1.1772989733468557e-01  1.1710829838251537e-01  1.1715272565699977e-01  1.1759438334665383e-01  1.1832580571040080e-01  1.1935255648501221e-01  1.2072445464061250e-01  1.2248411924233275e-01  1.2464271105125227e-01  1.2717275322869462e-01  1.3000644872883030e-01  1.3303497830099395e-01  1.3611274618489169e-01  1.3907809377377678e-01  1.4180449388166894e-01  1.4428568377768153e-01  1.4673086902108959e-01  1.4961078707827752e-01  1.5356492444697370e-01  1.5907394997559182e-01  1.6593290841834782e-01  1.7295437372500941e-01  1.7897894977756762e-01  1.8544692893285514e-01  1.9548115548219397e-01  2.0676994855062270e-01  2.1889506978056134e-01  2.2522817668901032e-01  2.0523294953705826e-01  1.9098223895302766e-01  3.2564655215165111e-01  2.7245705206780335e-01  2.5921562512693241e-01  2.1532281944113718e-01  1.9330899874446195e-01  1.8101662138528563e-01  1.6711955570992526e-01  1.4802724630274533e-01  1.3198941978353826e-01  1.2202047843021964e-01  1.1656558891929986e-01  1.1387481432551805e-01  1.1280422172631453e-01  1.1262037409333464e-01  1.1288575622299993e-01  1.1342572963364526e-01  1.1425138028893980e-01  1.1544630001165014e-01  1.1708300755732427e-01  1.1918933692298919e-01  1.2174337204743520e-01  1.2467389564626112e-01  1.2785858326417612e-01  1.3112767859266478e-01  1.3429329105393004e-01  1.3722752865903853e-01  1.3999475908302550e-01  1.4300524033381903e-01  1.4711772651996222e-01  1.5356635994580026e-01  1.6349885504335315e-01  1.7705706097154253e-01  1.9282230027085373e-01  2.1018109524062120e-01  2.3541980221857403e-01  2.7741620167567854e-01  3.2498571854014563e-01  3.8135083426936017e-01  4.7618667734814796e-01  6.3587430194703820e-01  6.0175012404698691e-01  4.5789175909462376e-01  3.9404999926289053e-01  3.1660490467664315e-01  2.4253889115465785e-01  2.0261501770056042e-01  1.8485447972032484e-01  1.7254745328436222e-01  1.5163506436961077e-01  1.3146680530674987e-01  1.1907247016862632e-01  1.1262136128794994e-01  1.0958366734737017e-01  1.0847648591689832e-01  1.0844076544061401e-01  1.0895646323573234e-01  1.0977617080482333e-01  1.1086721026255852e-01  1.1230399238534164e-01  1.1416929492971686e-01  1.1650428096936057e-01  1.1929313907061109e-01  1.2245555810534187e-01  1.2583661590177275e-01  1.2920566789829982e-01  1.3229430365014691e-01  1.3490409406672449e-01  1.3708101965200908e-01  1.3930875914096286e-01  1.4267597548020280e-01  1.4896025220782075e-01  1.6031783716102657e-01  1.7802322343873378e-01  2.0087827945588102e-01  2.2782477442610807e-01  2.6838856976627673e-01  3.3785047849884881e-01  4.1990361381878649e-01  5.4861821140832601e-01  7.2367701014740582e-01  7.3526758495608424e-01  8.0876194385671807e-01  4.9917271769799121e-01  4.3554598202098221e-01  3.2644593686852885e-01  2.4296988010507092e-01  1.9624778091524922e-01  1.7518523377880271e-01  1.6405170887657952e-01  1.4722049416773941e-01  1.2850879610408047e-01  1.1608042031735875e-01  1.0941782615779339e-01  1.0616486227948119e-01  1.0487702876270355e-01  1.0477669782997658e-01  1.0541591793157186e-01  1.0655633912744185e-01  1.0811659875260857e-01  1.1011010893699684e-01  1.1258140776185636e-01  1.1556188332623084e-01  1.1904172381963084e-01  1.2294280629572561e-01  1.2708560378832931e-01  1.3116530131410303e-01  1.3478090331340289e-01  1.3756947822856067e-01  1.3943986038869566e-01  1.4079864000825043e-01  1.4268420480527369e-01  1.4693331965116796e-01  1.5639487624504045e-01  1.7403009474360212e-01  1.9989044004086468e-01  2.3146430822860092e-01  2.7497260299074006e-01  3.5107139696543116e-01  4.4490078845064329e-01  5.6582064772564733e-01  7.0476133729977886e-01  8.1754188203790179e-01  8.4445719998288460e-01  4.5109960791345649e-01  3.8707040692050915e-01  2.9862820672104678e-01  2.2675954158919140e-01  1.8489559123235999e-01  1.6414899240768932e-01  1.5181617265101635e-01  1.3815046480546606e-01  1.2367162950754418e-01  1.1321463213823188e-01  1.0707496139138033e-01  1.0375731762400595e-01  1.0218285351595327e-01  1.0176533843373081e-01  1.0218917590301654e-01  1.0328802760457219e-01  1.0498998240870076e-01  1.0728279329354200e-01  1.1018629637572602e-01  1.1373044879524780e-01  1.1793342650735116e-01  1.2276993686142565e-01  1.2812116875807050e-01  1.3370873034571029e-01  1.3904499353536784e-01  1.4348625977119145e-01  1.4650474207762998e-01  1.4815230144320390e-01  1.4936011120839163e-01  1.5186092097195047e-01  1.5853550841322256e-01  1.7396721103075663e-01  2.0126663520714619e-01  2.3902132152882655e-01  2.8793126599013386e-01  3.7132025232214344e-01  4.8565775821826485e-01  5.8950508948148417e-01  7.2154637838742008e-01  7.9493836318963695e-01  8.2451888522268546e-01  2.9246318977602637e-01  2.6258704921427312e-01  2.2533864314639890e-01  1.8549227116808936e-01  1.5888609034671947e-01  1.4438344344262649e-01  1.3476505815793705e-01  1.2562076428467969e-01  1.1664771869020706e-01  1.0962297764375177e-01  1.0495209360596183e-01  1.0210197994382134e-01  1.0054009813875850e-01  9.9933378505778367e-02  1.0009960704028165e-01  1.0094774050449566e-01  1.0244277059177136e-01  1.0458591707972902e-01  1.0740299494761411e-01  1.1093678163788276e-01  1.1523867356063602e-01  1.2035371333162866e-01  1.2629107868732184e-01  1.3296705601725731e-01  1.4010189697925379e-01  1.4707742183747108e-01  1.5290810310666711e-01  1.5672252701119782e-01  1.5880307050289197e-01  1.6101616005977909e-01  1.6659059662752956e-01  1.8116140519950860e-01  2.1089302007289601e-01  2.5581344305139758e-01  3.1207958303196048e-01  3.9827060286193716e-01  5.2126828701810446e-01  6.2518246252940113e-01  6.9899265162491542e-01  7.0225874142724920e-01  6.5302660380758948e-01  1.5087599524204506e-01  1.3425664264152273e-01  1.4573078236241177e-01  1.3611340192548063e-01  1.2777663020291685e-01  1.2229604911765372e-01  1.1798744416842079e-01  1.1374222739845524e-01  1.0947920257641368e-01  1.0578018657425590e-01  1.0297059643129935e-01  1.0104351118276579e-01  9.9879038004992954e-02  9.9371488979007744e-02  9.9460443766034218e-02  1.0012488088794441e-01  1.0137210554181413e-01  1.0322903877696975e-01  1.0573708965476182e-01  1.0894959551802726e-01  1.1292998264851460e-01  1.1774910326838656e-01  1.2347933460116378e-01  1.3017478807566824e-01  1.3780431626006728e-01  1.4608063849747199e-01  1.5420538465866870e-01  1.6092255638668204e-01  1.6556534998083169e-01  1.6949820493058015e-01  1.7638579428849610e-01  1.9222930839603131e-01  2.2340512515600580e-01  2.6943471220552517e-01  3.2251674021565402e-01  3.8379193359504721e-01  4.5369631853247022e-01  5.0535207025916262e-01  5.1642242009460748e-01  3.1647412807399378e-01  2.5553577740376227e-01  1.2568142841477631e-01  9.1027095051694762e-02  1.0826567271415555e-01  1.0937439249003285e-01  1.0899334545030145e-01  1.0829578673703731e-01  1.0722035001554890e-01  1.0570934265086127e-01  1.0394214116811588e-01  1.0224394390450954e-01  1.0084788146229140e-01  9.9852884985969503e-02  9.9276352584338312e-02  9.9114156332668582e-02  9.9370918142335909e-02  1.0006801064496204e-01  1.0124237681234076e-01  1.0294310398847702e-01  1.0522848908932193e-01  1.0816372651281075e-01  1.1181912241872434e-01  1.1627010612052475e-01  1.2160004877176628e-01  1.2789869770021930e-01  1.3522722243932198e-01  1.4349591605222611e-01  1.5224037330401655e-01  1.6053322313977009e-01  1.6760811859566613e-01  1.7420523456598108e-01  1.8336492076385011e-01  1.9995187930061073e-01  2.2805595980863996e-01  2.6552294792947750e-01  3.0281242051432045e-01  3.3067467576941206e-01  3.4282561169586429e-01  3.3013541222710113e-01  2.8084831199313987e-01  1.6039431022168549e-01  1.4245635525147560e-01  1.2204467316664240e-01  7.6258874517293032e-02  8.6051030584247123e-02  9.0155145329579703e-02  9.3430167793285598e-02  9.5813722712696406e-02  9.7246173998674204e-02  9.7862954819009501e-02  9.7929717683917908e-02  9.7753753270224453e-02  9.7568789221793906e-02  9.7515591038374178e-02  9.7664943528279452e-02  9.8054273220156779e-02  9.8714101861709147e-02  9.9682249712686591e-02  1.0100918570139911e-01  1.0275823322279223e-01  1.0500262124986208e-01  1.0782050525152444e-01  1.1129008021436719e-01  1.1548851992507364e-01  1.2049728308029650e-01  1.2640752332772440e-01  1.3330155196946411e-01  1.4117203506153564e-01  1.4977354522335889e-01  1.5855034854484923e-01  1.6697331465169180e-01  1.7536551862460095e-01  1.8549312877970670e-01  2.0002424125536952e-01  2.2042340349636924e-01  2.4393421699605419e-01  2.6325108798990760e-01  2.7065959575005427e-01  2.6118127994668378e-01  2.3148713828736084e-01  1.8809710099318008e-01  1.2392079705582812e-01  1.3199810115501695e-01  1.2049830089182641e-01  7.0343673900354051e-02  7.4798817099254636e-02  7.7991879096577191e-02  8.1501574059019255e-02  8.4777101530498042e-02  8.7514208490634626e-02  8.9610435611517505e-02  9.1145112344185333e-02  9.2294401301453083e-02  9.3237569085754007e-02  9.4115871166582724e-02  9.5025304733829793e-02  9.6030131479192399e-02  9.7179763348353390e-02  9.8523025753179880e-02  1.0011780777238820e-01  1.0203533960532657e-01  1.0435803069460940e-01  1.0717191324952975e-01  1.1055864285580697e-01  1.1459385730002619e-01  1.1935498090774449e-01  1.2493113163716187e-01  1.3141385194980171e-01  1.3884148988275541e-01  1.4709594194231576e-01  1.5583305435709349e-01  1.6461866200564612e-01  1.7332565251550933e-01  1.8243541659911813e-01  1.9269973391632336e-01  2.0403942431874195e-01  2.1433524545834634e-01  2.1956856393758989e-01  2.1597032012377590e-01  2.0205098194443860e-01  1.7816804622985605e-01  1.5352636981589593e-01  1.0878778047937575e-01  1.3050007190038113e-01  1.1940062124690637e-01  6.7123287303365226e-02  6.9430906832901235e-02  7.1931159848452483e-02  7.5003221580482574e-02  7.8181898493562219e-02  8.1134711716532262e-02  8.3689573342263138e-02  8.5837776919978778e-02  8.7661654474485623e-02  8.9272122362393166e-02  9.0768455841451587e-02  9.2224152049502572e-02  9.3692595288496425e-02  9.5219575487980157e-02  9.6855668646469481e-02  9.8664451384895269e-02  1.0072410472833784e-01  1.0312148543692506e-01  1.0594169738698718e-01  1.0926025857485211e-01  1.1314462416667218e-01  1.1766523129082206e-01  1.2290577177497974e-01  1.2895355338066877e-01  1.3585139204713947e-01  1.4351224428131451e-01  1.5164281578809072e-01  1.5976604012001999e-01  1.6738356559195366e-01  1.7413611685484340e-01  1.7971832683867187e-01  1.8352338901171059e-01  1.8438081908132625e-01  1.8095633866472413e-01  1.7269079102271367e-01  1.6015026653439168e-01  1.4626182238042473e-01  1.3109647463685861e-01  9.9215737540546578e-02  1.2873485615472088e-01  1.1880624832095793e-01  6.5507702266629025e-02  6.6906432679739586e-02  6.9059567758499918e-02  7.1842425475741586e-02  7.4863376379168428e-02  7.7792353199028830e-02  8.0441673927121760e-02  8.2770316580701483e-02  8.4827340897092915e-02  8.6696238211269219e-02  8.8451850109072111e-02  9.0144724592768857e-02  9.1808968765881904e-02  9.3479861785319696e-02  9.5208650619591606e-02  9.7067278338522314e-02  9.9141952038005535e-02  1.0151987660508263e-01  1.0427706676744335e-01  1.0747449907686719e-01  1.1116456204525610e-01  1.1540214062034079e-01  1.2024833374057042e-01  1.2575310430764500e-01  1.3190857952859011e-01  1.3857920615615357e-01  1.4543830314816297e-01  1.5195948446081239e-01  1.5749224139653220e-01  1.6138323831347332e-01  1.6306632850025282e-01  1.6211641938807966e-01  1.5835033619735342e-01  1.5197786439483074e-01  1.4368697681803530e-01  1.3468817681288214e-01  1.2570146457835873e-01  1.1538996865988349e-01  9.2844871802638632e-02  1.2742610939569218e-01  1.1860601471518853e-01  6.4917417847883671e-02  6.5979579664524099e-02  6.8003775260303628e-02  7.0672759620996700e-02  7.3615084560446450e-02  7.6509993319131248e-02  7.9165370395634815e-02  8.1527691355597093e-02  8.3635252237083318e-02  8.5559604700156458e-02  8.7359363289208389e-02  8.9066558733863099e-02  9.0702735118603342e-02  9.2304274713512519e-02  9.3936031324921454e-02  9.5686013325689961e-02  9.7647788059491258e-02  9.9902758522221302e-02  1.0251131210941691e-01  1.0551468272484840e-01  1.0894285739760684e-01  1.1282023590515509e-01  1.1716049778392160e-01  1.2194499862048787e-01  1.2708467058647865e-01  1.3237404318521856e-01  1.3745720458026223e-01  1.4183380358756342e-01  1.4492691802919558e-01  1.4620861530436846e-01  1.4534773863141784e-01  1.4232556362820259e-01  1.3746562505388660e-01  1.3137252946489666e-01  1.2481452504692382e-01  1.1848613764814329e-01  1.1244163689472117e-01  1.0558516408251548e-01  8.8433988468019489e-02  1.2638995735802361e-01  1.1874171759437117e-01  6.5145252928627245e-02  6.6267154818096433e-02  6.8296420342535802e-02  7.0970769035826928e-02  7.3910131491712175e-02  7.6784437013772022e-02  7.9397363319089462e-02  8.170049791