<?xml version="1.0"?>
<VTKFile type="UnstructuredGrid"  version="0.1"  >
<UnstructuredGrid>
<Piece  NumberOfPoints="1681" NumberOfCells="3200">
<Points>
<DataArray  type="Float64"  NumberOfComponents="3"  format="ascii">0 0 0  0.025 0 0  0.05 0 0  0.075 0 0  0.1 0 0  0.125 0 0  0.15 0 0  0.175 0 0  0.2 0 0  0.225 0 0  0.25 0 0  0.275 0 0  0.3 0 0  0.325 0 0  0.35 0 0  0.375 0 0  0.4 0 0  0.425 0 0  0.45 0 0  0.475 0 0  0.5 0 0  0.525 0 0  0.55 0 0  0.575 0 0  0.6 0 0  0.625 0 0  0.65 0 0  0.675 0 0  0.7 0 0  0.725 0 0  0.75 0 0  0.775 0 0  0.8 0 0  0.825 0 0  0.85 0 0  0.875 0 0  0.9 0 0  0.925 0 0  0.95 0 0  0.975 0 0  1 0 0  0 0.025 0  0.025 0.025 0  0.05 0.025 0  0.075 0.025 0  0.1 0.025 0  0.125 0.025 0  0.15 0.025 0  0.175 0.025 0  0.2 0.025 0  0.225 0.025 0  0.25 0.025 0  0.275 0.025 0  0.3 0.025 0  0.325 0.025 0  0.35 0.025 0  0.375 0.025 0  0.4 0.025 0  0.425 0.025 0  0.45 0.025 0  0.475 0.025 0  0.5 0.025 0  0.525 0.025 0  0.55 0.025 0  0.575 0.025 0  0.6 0.025 0  0.625 0.025 0  0.65 0.025 0  0.675 0.025 0  0.7 0.025 0  0.725 0.025 0  0.75 0.025 0  0.775 0.025 0  0.8 0.025 0  0.825 0.025 0  0.85 0.025 0  0.875 0.025 0  0.9 0.025 0  0.925 0.025 0  0.95 0.025 0  0.975 0.025 0  1 0.025 0  0 0.05 0  0.025 0.05 0  0.05 0.05 0  0.075 0.05 0  0.1 0.05 0  0.125 0.05 0  0.15 0.05 0  0.175 0.05 0  0.2 0.05 0  0.225 0.05 0  0.25 0.05 0  0.275 0.05 0  0.3 0.05 0  0.325 0.05 0  0.35 0.05 0  0.375 0.05 0  0.4 0.05 0  0.425 0.05 0  0.45 0.05 0  0.475 0.05 0  0.5 0.05 0  0.525 0.05 0  0.55 0.05 0  0.575 0.05 0  0.6 0.05 0  0.625 0.05 0  0.65 0.05 0  0.675 0.05 0  0.7 0.05 0  0.725 0.05 0  0.75 0.05 0  0.775 0.05 0  0.8 0.05 0  0.825 0.05 0  0.85 0.05 0  0.875 0.05 0  0.9 0.05 0  0.925 0.05 0  0.95 0.05 0  0.975 0.05 0  1 0.05 0  0 0.075 0  0.025 0.075 0  0.05 0.075 0  0.075 0.075 0  0.1 0.075 0  0.125 0.075 0  0.15 0.075 0  0.175 0.075 0  0.2 0.075 0  0.225 0.075 0  0.25 0.075 0  0.275 0.075 0  0.3 0.075 0  0.325 0.075 0  0.35 0.075 0  0.375 0.075 0  0.4 0.075 0  0.425 0.075 0  0.45 0.075 0  0.475 0.075 0  0.5 0.075 0  0.525 0.075 0  0.55 0.075 0  0.575 0.075 0  0.6 0.075 0  0.625 0.075 0  0.65 0.075 0  0.675 0.075 0  0.7 0.075 0  0.725 0.075 0  0.75 0.075 0  0.775 0.075 0  0.8 0.075 0  0.825 0.075 0  0.85 0.075 0  0.875 0.075 0  0.9 0.075 0  0.925 0.075 0  0.95 0.075 0  0.975 0.075 0  1 0.075 0  0 0.1 0  0.025 0.1 0  0.05 0.1 0  0.075 0.1 0  0.1 0.1 0  0.125 0.1 0  0.15 0.1 0  0.175 0.1 0  0.2 0.1 0  0.225 0.1 0  0.25 0.1 0  0.275 0.1 0  0.3 0.1 0  0.325 0.1 0  0.35 0.1 0  0.375 0.1 0  0.4 0.1 0  0.425 0.1 0  0.45 0.1 0  0.475 0.1 0  0.5 0.1 0  0.525 0.1 0  0.55 0.1 0  0.575 0.1 0  0.6 0.1 0  0.625 0.1 0  0.65 0.1 0  0.675 0.1 0  0.7 0.1 0  0.725 0.1 0  0.75 0.1 0  0.775 0.1 0  0.8 0.1 0  0.825 0.1 0  0.85 0.1 0  0.875 0.1 0  0.9 0.1 0  0.925 0.1 0  0.95 0.1 0  0.975 0.1 0  1 0.1 0  0 0.125 0  0.025 0.125 0  0.05 0.125 0  0.075 0.125 0  0.1 0.125 0  0.125 0.125 0  0.15 0.125 0  0.175 0.125 0  0.2 0.125 0  0.225 0.125 0  0.25 0.125 0  0.275 0.125 0  0.3 0.125 0  0.325 0.125 0  0.35 0.125 0  0.375 0.125 0  0.4 0.125 0  0.425 0.125 0  0.45 0.125 0  0.475 0.125 0  0.5 0.125 0  0.525 0.125 0  0.55 0.125 0  0.575 0.125 0  0.6 0.125 0  0.625 0.125 0  0.65 0.125 0  0.675 0.125 0  0.7 0.125 0  0.725 0.125 0  0.75 0.125 0  0.775 0.125 0  0.8 0.125 0  0.825 0.125 0  0.85 0.125 0  0.875 0.125 0  0.9 0.125 0  0.925 0.125 0  0.95 0.125 0  0.975 0.125 0  1 0.125 0  0 0.15 0  0.025 0.15 0  0.05 0.15 0  0.075 0.15 0  0.1 0.15 0  0.125 0.15 0  0.15 0.15 0  0.175 0.15 0  0.2 0.15 0  0.225 0.15 0  0.25 0.15 0  0.275 0.15 0  0.3 0.15 0  0.325 0.15 0  0.35 0.15 0  0.375 0.15 0  0.4 0.15 0  0.425 0.15 0  0.45 0.15 0  0.475 0.15 0  0.5 0.15 0  0.525 0.15 0  0.55 0.15 0  0.575 0.15 0  0.6 0.15 0  0.625 0.15 0  0.65 0.15 0  0.675 0.15 0  0.7 0.15 0  0.725 0.15 0  0.75 0.15 0  0.775 0.15 0  0.8 0.15 0  0.825 0.15 0  0.85 0.15 0  0.875 0.15 0  0.9 0.15 0  0.925 0.15 0  0.95 0.15 0  0.975 0.15 0  1 0.15 0  0 0.175 0  0.025 0.175 0  0.05 0.175 0  0.075 0.175 0  0.1 0.175 0  0.125 0.175 0  0.15 0.175 0  0.175 0.175 0  0.2 0.175 0  0.225 0.175 0  0.25 0.175 0  0.275 0.175 0  0.3 0.175 0  0.325 0.175 0  0.35 0.175 0  0.375 0.175 0  0.4 0.175 0  0.425 0.175 0  0.45 0.175 0  0.475 0.175 0  0.5 0.175 0  0.525 0.175 0  0.55 0.175 0  0.575 0.175 0  0.6 0.175 0  0.625 0.175 0  0.65 0.175 0  0.675 0.175 0  0.7 0.175 0  0.725 0.175 0  0.75 0.175 0  0.775 0.175 0  0.8 0.175 0  0.825 0.175 0  0.85 0.175 0  0.875 0.175 0  0.9 0.175 0  0.925 0.175 0  0.95 0.175 0  0.975 0.175 0  1 0.175 0  0 0.2 0  0.025 0.2 0  0.05 0.2 0  0.075 0.2 0  0.1 0.2 0  0.125 0.2 0  0.15 0.2 0  0.175 0.2 0  0.2 0.2 0  0.225 0.2 0  0.25 0.2 0  0.275 0.2 0  0.3 0.2 0  0.325 0.2 0  0.35 0.2 0  0.375 0.2 0  0.4 0.2 0  0.425 0.2 0  0.45 0.2 0  0.475 0.2 0  0.5 0.2 0  0.525 0.2 0  0.55 0.2 0  0.575 0.2 0  0.6 0.2 0  0.625 0.2 0  0.65 0.2 0  0.675 0.2 0  0.7 0.2 0  0.725 0.2 0  0.75 0.2 0  0.775 0.2 0  0.8 0.2 0  0.825 0.2 0  0.85 0.2 0  0.875 0.2 0  0.9 0.2 0  0.925 0.2 0  0.95 0.2 0  0.975 0.2 0  1 0.2 0  0 0.225 0  0.025 0.225 0  0.05 0.225 0  0.075 0.225 0  0.1 0.225 0  0.125 0.225 0  0.15 0.225 0  0.175 0.225 0  0.2 0.225 0  0.225 0.225 0  0.25 0.225 0  0.275 0.225 0  0.3 0.225 0  0.325 0.225 0  0.35 0.225 0  0.375 0.225 0  0.4 0.225 0  0.425 0.225 0  0.45 0.225 0  0.475 0.225 0  0.5 0.225 0  0.525 0.225 0  0.55 0.225 0  0.575 0.225 0  0.6 0.225 0  0.625 0.225 0  0.65 0.225 0  0.675 0.225 0  0.7 0.225 0  0.725 0.225 0  0.75 0.225 0  0.775 0.225 0  0.8 0.225 0  0.825 0.225 0  0.85 0.225 0  0.875 0.225 0  0.9 0.225 0  0.925 0.225 0  0.95 0.225 0  0.975 0.225 0  1 0.225 0  0 0.25 0  0.025 0.25 0  0.05 0.25 0  0.075 0.25 0  0.1 0.25 0  0.125 0.25 0  0.15 0.25 0  0.175 0.25 0  0.2 0.25 0  0.225 0.25 0  0.25 0.25 0  0.275 0.25 0  0.3 0.25 0  0.325 0.25 0  0.35 0.25 0  0.375 0.25 0  0.4 0.25 0  0.425 0.25 0  0.45 0.25 0  0.475 0.25 0  0.5 0.25 0  0.525 0.25 0  0.55 0.25 0  0.575 0.25 0  0.6 0.25 0  0.625 0.25 0  0.65 0.25 0  0.675 0.25 0  0.7 0.25 0  0.725 0.25 0  0.75 0.25 0  0.775 0.25 0  0.8 0.25 0  0.825 0.25 0  0.85 0.25 0  0.875 0.25 0  0.9 0.25 0  0.925 0.25 0  0.95 0.25 0  0.975 0.25 0  1 0.25 0  0 0.275 0  0.025 0.275 0  0.05 0.275 0  0.075 0.275 0  0.1 0.275 0  0.125 0.275 0  0.15 0.275 0  0.175 0.275 0  0.2 0.275 0  0.225 0.275 0  0.25 0.275 0  0.275 0.275 0  0.3 0.275 0  0.325 0.275 0  0.35 0.275 0  0.375 0.275 0  0.4 0.275 0  0.425 0.275 0  0.45 0.275 0  0.475 0.275 0  0.5 0.275 0  0.525 0.275 0  0.55 0.275 0  0.575 0.275 0  0.6 0.275 0  0.625 0.275 0  0.65 0.275 0  0.675 0.275 0  0.7 0.275 0  0.725 0.275 0  0.75 0.275 0  0.775 0.275 0  0.8 0.275 0  0.825 0.275 0  0.85 0.275 0  0.875 0.275 0  0.9 0.275 0  0.925 0.275 0  0.95 0.275 0  0.975 0.275 0  1 0.275 0  0 0.3 0  0.025 0.3 0  0.05 0.3 0  0.075 0.3 0  0.1 0.3 0  0.125 0.3 0  0.15 0.3 0  0.175 0.3 0  0.2 0.3 0  0.225 0.3 0  0.25 0.3 0  0.275 0.3 0  0.3 0.3 0  0.325 0.3 0  0.35 0.3 0  0.375 0.3 0  0.4 0.3 0  0.425 0.3 0  0.45 0.3 0  0.475 0.3 0  0.5 0.3 0  0.525 0.3 0  0.55 0.3 0  0.575 0.3 0  0.6 0.3 0  0.625 0.3 0  0.65 0.3 0  0.675 0.3 0  0.7 0.3 0  0.725 0.3 0  0.75 0.3 0  0.775 0.3 0  0.8 0.3 0  0.825 0.3 0  0.85 0.3 0  0.875 0.3 0  0.9 0.3 0  0.925 0.3 0  0.95 0.3 0  0.975 0.3 0  1 0.3 0  0 0.325 0  0.025 0.325 0  0.05 0.325 0  0.075 0.325 0  0.1 0.325 0  0.125 0.325 0  0.15 0.325 0  0.175 0.325 0  0.2 0.325 0  0.225 0.325 0  0.25 0.325 0  0.275 0.325 0  0.3 0.325 0  0.325 0.325 0  0.35 0.325 0  0.375 0.325 0  0.4 0.325 0  0.425 0.325 0  0.45 0.325 0  0.475 0.325 0  0.5 0.325 0  0.525 0.325 0  0.55 0.325 0  0.575 0.325 0  0.6 0.325 0  0.625 0.325 0  0.65 0.325 0  0.675 0.325 0  0.7 0.325 0  0.725 0.325 0  0.75 0.325 0  0.775 0.325 0  0.8 0.325 0  0.825 0.325 0  0.85 0.325 0  0.875 0.325 0  0.9 0.325 0  0.925 0.325 0  0.95 0.325 0  0.975 0.325 0  1 0.325 0  0 0.35 0  0.025 0.35 0  0.05 0.35 0  0.075 0.35 0  0.1 0.35 0  0.125 0.35 0  0.15 0.35 0  0.175 0.35 0  0.2 0.35 0  0.225 0.35 0  0.25 0.35 0  0.275 0.35 0  0.3 0.35 0  0.325 0.35 0  0.35 0.35 0  0.375 0.35 0  0.4 0.35 0  0.425 0.35 0  0.45 0.35 0  0.475 0.35 0  0.5 0.35 0  0.525 0.35 0  0.55 0.35 0  0.575 0.35 0  0.6 0.35 0  0.625 0.35 0  0.65 0.35 0  0.675 0.35 0  0.7 0.35 0  0.725 0.35 0  0.75 0.35 0  0.775 0.35 0  0.8 0.35 0  0.825 0.35 0  0.85 0.35 0  0.875 0.35 0  0.9 0.35 0  0.925 0.35 0  0.95 0.35 0  0.975 0.35 0  1 0.35 0  0 0.375 0  0.025 0.375 0  0.05 0.375 0  0.075 0.375 0  0.1 0.375 0  0.125 0.375 0  0.15 0.375 0  0.175 0.375 0  0.2 0.375 0  0.225 0.375 0  0.25 0.375 0  0.275 0.375 0  0.3 0.375 0  0.325 0.375 0  0.35 0.375 0  0.375 0.375 0  0.4 0.375 0  0.425 0.375 0  0.45 0.375 0  0.475 0.375 0  0.5 0.375 0  0.525 0.375 0  0.55 0.375 0  0.575 0.375 0  0.6 0.375 0  0.625 0.375 0  0.65 0.375 0  0.675 0.375 0  0.7 0.375 0  0.725 0.375 0  0.75 0.375 0  0.775 0.375 0  0.8 0.375 0  0.825 0.375 0  0.85 0.375 0  0.875 0.375 0  0.9 0.375 0  0.925 0.375 0  0.95 0.375 0  0.975 0.375 0  1 0.375 0  0 0.4 0  0.025 0.4 0  0.05 0.4 0  0.075 0.4 0  0.1 0.4 0  0.125 0.4 0  0.15 0.4 0  0.175 0.4 0  0.2 0.4 0  0.225 0.4 0  0.25 0.4 0  0.275 0.4 0  0.3 0.4 0  0.325 0.4 0  0.35 0.4 0  0.375 0.4 0  0.4 0.4 0  0.425 0.4 0  0.45 0.4 0  0.475 0.4 0  0.5 0.4 0  0.525 0.4 0  0.55 0.4 0  0.575 0.4 0  0.6 0.4 0  0.625 0.4 0  0.65 0.4 0  0.675 0.4 0  0.7 0.4 0  0.725 0.4 0  0.75 0.4 0  0.775 0.4 0  0.8 0.4 0  0.825 0.4 0  0.85 0.4 0  0.875 0.4 0  0.9 0.4 0  0.925 0.4 0  0.95 0.4 0  0.975 0.4 0  1 0.4 0  0 0.425 0  0.025 0.425 0  0.05 0.425 0  0.075 0.425 0  0.1 0.425 0  0.125 0.425 0  0.15 0.425 0  0.175 0.425 0  0.2 0.425 0  0.225 0.425 0  0.25 0.425 0  0.275 0.425 0  0.3 0.425 0  0.325 0.425 0  0.35 0.425 0  0.375 0.425 0  0.4 0.425 0  0.425 0.425 0  0.45 0.425 0  0.475 0.425 0  0.5 0.425 0  0.525 0.425 0  0.55 0.425 0  0.575 0.425 0  0.6 0.425 0  0.625 0.425 0  0.65 0.425 0  0.675 0.425 0  0.7 0.425 0  0.725 0.425 0  0.75 0.425 0  0.775 0.425 0  0.8 0.425 0  0.825 0.425 0  0.85 0.425 0  0.875 0.425 0  0.9 0.425 0  0.925 0.425 0  0.95 0.425 0  0.975 0.425 0  1 0.425 0  0 0.45 0  0.02
[...]
<PointData  Scalars="ControlVisualisation"> 
<DataArray  type="Float64"  Name="ControlVisualisation"  format="ascii">1.5106283934165665e-01  9.9654818940070111e-02  9.9720598173285852e-02  9.9845289287618613e-02  1.0002529597513334e-01  1.0025704601076939e-01  1.0053582251485552e-01  1.0085596120156604e-01  1.0121108476353780e-01  1.0159436368221794e-01  1.0199878076447230e-01  1.0241735878470559e-01  1.0284334337260878e-01  1.0327033046537912e-01  1.0369233564658802e-01  1.0410380799340685e-01  1.0449959444395926e-01  1.0487486243441699e-01  1.0522498883411294e-01  1.0554542259642768e-01  1.0583152776302578e-01  1.0607841318298612e-01  1.0628075613971158e-01  1.0643262950992004e-01  1.0652734637704964e-01  1.0655734252168529e-01  1.0651412584862482e-01  1.0638833593672917e-01  1.0616997609637691e-01  1.0584893428208855e-01  1.0541598347233019e-01  1.0486463236017622e-01  1.0419448774248158e-01  1.0341655889307880e-01  1.0256099893035456e-01  1.0168470527334919e-01  1.0087136324090859e-01  1.0021636755629493e-01  9.9799190752519834e-02  9.9644719778300708e-02  2.3645595923136492e-01  9.9654834005636586e-02  4.1284485986869748e-02  4.1465724547775973e-02  4.1792136025000003e-02  4.2270267556778283e-02  4.2894459887458894e-02  4.3655744461073703e-02  4.4542820184219144e-02  4.5542021311688927e-02  4.6637718340737960e-02  4.7812706953825876e-02  4.9048603749724487e-02  5.0326229767339505e-02  5.1625952037476899e-02  5.2927962724453270e-02  5.4212477937780904e-02  5.5459842473742860e-02  5.6650531330356191e-02  5.7765044402847132e-02  5.8783698665430692e-02  5.9686334217181530e-02  6.0451968753314933e-02  6.1058460589485698e-02  6.1482272813729782e-02  6.1698466842549919e-02  6.1681085358589231e-02  6.1404100825183452e-02  6.0843099264545349e-02  5.9977827693312925e-02  5.8795712745960627e-02  5.7296378131150995e-02  5.5497371744128818e-02  5.3440994975917533e-02  5.1201541145775603e-02  4.8891343569001905e-02  4.6657839627858043e-02  4.4668569508596628e-02  4.3082895132819377e-02  4.2007146741172841e-02  4.1386546741020769e-02  9.9644452239777220e-02  9.9720929801508762e-02  4.1466621769398596e-02  4.1790159652046750e-02  4.2265888384332068e-02  4.2965358170866899e-02  4.3887606368124957e-02  4.5025026789735002e-02  4.6366674471901403e-02  4.7898119221032723e-02  4.9601613183797133e-02  5.1456274721156187e-02  5.3438437355449800e-02  5.5522085066311788e-02  5.7679326345352624e-02  5.9880839286847773e-02  6.2096204748896475e-02  6.4294039938497596e-02  6.6441852078864078e-02  6.8505557271985484e-02  7.0448658561954064e-02  7.2231152905412682e-02  7.3808338286844730e-02  7.5129811308802585e-02  7.6139064695235709e-02  7.6774185164364100e-02  7.6970176582270219e-02  7.6663340581333894e-02  7.5797886203647524e-02  7.4334447742502849e-02  7.2259545690154553e-02  6.9594205022198041e-02  6.6400190923449676e-02  6.2782242246957859e-02  5.8889842911816578e-02  5.4919266330979197e-02  5.1111768588174906e-02  4.7744791934960472e-02  4.5078318484162008e-02  4.3275002837561825e-02  4.1992760947315744e-02  9.9792506409295739e-02  9.9847311200749037e-02  4.1797716596584482e-02  4.2272525425774636e-02  4.2775241299165975e-02  4.3505893245220334e-02  4.4470896347727953e-02  4.5665084499210071e-02  4.7079608444161300e-02  4.8702442886937078e-02  5.0518313868662248e-02  5.2508831581399538e-02  5.4652790465666290e-02  5.6926570230807952e-02  5.9304591050477834e-02  6.1759731584039593e-02  6.4263596158839892e-02  6.6786502629297986e-02  6.9297066667712848e-02  7.1761291635665747e-02  7.4141144525275676e-02  7.6392712074868377e-02  7.8464182367752225e-02  8.0294068468598601e-02  8.1810251272851908e-02  8.2930528561685979e-02  8.3565373361424847e-02  8.3623485245902518e-02  8.3020431870805753e-02  8.1690163059314258e-02  7.9598479538743716e-02  7.6756354171031937e-02  7.3230426726351966e-02  6.9145159301173265e-02  6.4678458989513937e-02  6.0040084138698324e-02  5.5467312285035257e-02  5.1229356938724345e-02  4.7630343488690711e-02  4.5074968937340920e-02  4.2982762236483923e-02  1.0018344880228179e-01  1.0003236260864211e-01  4.2289872939387678e-02  4.2992576691079303e-02  4.3527605697244870e-02  4.4288648515760601e-02  4.5292543325848464e-02  4.6535320964640373e-02  4.8008682462849395e-02  4.9701394031682958e-02  5.1599183345885667e-02  5.3685006344469217e-02  5.5939431815073312e-02  5.8341139446565451e-02  6.0867459412325638e-02  6.3494851461509974e-02  6.6199197732319207e-02  6.8955765902946553e-02  7.1738702547670896e-02  7.4519949406193359e-02  7.7267546497824940e-02  7.9943398387452569e-02  8.2500725123916097e-02  8.4881574330898227e-02  8.7014899515496930e-02  8.8815772210722232e-02  9.0186266438300286e-02  9.1018442664449278e-02  9.1199734017427800e-02  9.0620999597374810e-02  8.9187788250587929e-02  8.6835565930435440e-02  8.3550473308068751e-02  7.9392796723267919e-02  7.4522214411974735e-02  6.9182165935852427e-02  6.3682387824999478e-02  5.8231465029278569e-02  5.3047015367571060e-02  4.8768117914528897e-02  4.4577604498437576e-02  1.0080710494813666e-01  1.0027526822739882e-01  4.2945501516488696e-02  4.3962115286650158e-02  4.4543535852830600e-02  4.5345789341054453e-02  4.6400590636503120e-02  4.7705171178202825e-02  4.9251239073885240e-02  5.1027612883017867e-02  5.3020314393318710e-02  5.5213036393533435e-02  5.7587696718154176e-02  6.0125109105243067e-02  6.2805671703599797e-02  6.5609973503131802e-02  6.8519198141145959e-02  7.1515196563171998e-02  7.4580109037873377e-02  7.7695448143939930e-02  8.0840611515879554e-02  8.3990873612116226e-02  8.7114996571435732e-02  9.0172675793243159e-02  9.3112061608424834e-02  9.5867543183403112e-02  9.8357839827480142e-02  1.0048427357262561e-01  1.0212904906409050e-01  1.0315371674925788e-01  1.0339920637684166e-01  1.0269082410283793e-01  1.0085555522600495e-01  9.7757080208205879e-02  9.3358480544337513e-02  8.7764824628239008e-02  8.1296159888643957e-02  7.4135059414631582e-02  6.6490909999791653e-02  5.7705845811587365e-02  4.6595620321792708e-02  1.0101254994255790e-01  1.0057463779843676e-01  4.3765866144410796e-02  4.5190479980716264e-02  4.5837144505467359e-02  4.6694810512688409e-02  4.7816156261520693e-02  4.9200929610982408e-02  5.0841050282307065e-02  5.2725437849522439e-02  5.4840560957840442e-02  5.7171166898356419e-02  5.9701057740749686e-02  6.2413958568916073e-02  6.5294366773845661e-02  6.8328295839587591e-02  7.1503821701846132e-02  7.4811352282449894e-02  7.8243561953729043e-02  8.1794963577344115e-02  8.5461128612605824e-02  8.9237603094209306e-02  9.3118589380388930e-02  9.7095448474454144e-02  1.0115500027812503e-01  1.0527744408187974e-01  1.0943350666538817e-01  1.1358024063594324e-01  1.1765495392788985e-01  1.2156746562242504e-01  1.2519287301581661e-01  1.2837069719183319e-01  1.3092240593245749e-01  1.3269702575306044e-01  1.3365429292955788e-01  1.3387345065853884e-01  1.3347008916187042e-01  1.3138627325719712e-01  1.2574418975087631e-01  1.0568259302660200e-01  6.5995471993962551e-02  1.0470308032973111e-01  1.0092843894495193e-01  4.4751524916371785e-02  4.6687456243996159e-02  4.7423844278810579e-02  4.8354859747497841e-02  4.9561897844696265e-02  5.1049504041233651e-02  5.2810452854571643e-02  5.4834247117646631e-02  5.7108461886430477e-02  5.9619838133903924e-02  6.2355322964543589e-02  6.5303139074055522e-02  6.8453778808303556e-02  7.1800868010801516e-02  7.5341868599926101e-02  7.9078628458058783e-02  8.3017823481021963e-02  8.7171367053627047e-02  9.1556880845960517e-02  9.6198321840097092e-02  1.0112683655529293e-01  1.0638185706948239e-01  1.1201236300470918e-01  1.1807812811010335e-01  1.2465071954429396e-01  1.3181420356725088e-01  1.3966633398067421e-01  1.4832328174573112e-01  1.5793609784369725e-01  1.6873713466742435e-01  1.8115037816668594e-01  1.9601022651286026e-01  2.1492352394392977e-01  2.4052894215269605e-01  2.7627828055510462e-01  3.2324503141067273e-01  3.7900886471804718e-01  4.1320156814680570e-01  4.3094432410155320e-01  2.7339542839269393e-01  1.0133393783333579e-01  4.5901566288885400e-02  4.8462429041579477e-02  4.9320545022292633e-02  5.0348143603406899e-02  5.1664927289270655e-02  5.3283746244104507e-02  5.5199422758607890e-02  5.7402986451066618e-02  5.9884317146264562e-02  6.2633733942012548e-02  6.5643313576309342e-02  6.8908122894216994e-02  7.2427296514919998e-02  7.6204973671533241e-02  8.0251169364061820e-02  8.4582721003485462e-02  8.9224496517839758e-02  9.4211071387235196e-02  9.9589080055933379e-02  1.0542042739394530e-01  1.1178651854722882e-01  1.1879364747535684e-01  1.2657970755389156e-01  1.3532251996480235e-01  1.4525046943778441e-01  1.5665713329173636e-01  1.6992393142698436e-01  1.8556003083822586e-01  2.0427939524020933e-01  2.2715405755270823e-01  2.5590708547032642e-01  2.9341043788393717e-01  3.4430824226114470e-01  4.1496391136915872e-01  5.1112832244883033e-01  6.3076049848658855e-01  7.6171045431967543e-01  8.8131613186780644e-01  9.7743108318240979e-01  8.6801422120523297e-01  1.0178767413305306e-01  4.7213123833655890e-02  5.0523535489038165e-02  5.1545063408376141e-02  5.2699848517085389e-02  5.4157528644099860e-02  5.5944379045494846e-02  5.8059254737335482e-02  6.0496331298774214e-02  6.3249729430438259e-02  6.6315721283938298e-02  6.9694266566331875e-02  7.3390275453294990e-02  7.7414625707632301e-02  8.1785081519786321e-02  8.6527355130965378e-02  9.1676626538609876e-02  9.7279863094201113e-02  1.0339926829903034e-01  1.1011715395845494e-01  1.1754249657056115e-01  1.2581943565166381e-01  1.3513803157053428e-01  1.4574777126911564e-01  1.5797468261689568e-01  1.7224369288578742e-01  1.8910950893537537e-01  2.0930283097924579e-01  2.3380605115829434e-01  2.6398586362562632e-01  3.0182659992954197e-01  3.5030090603109981e-01  4.1378865938831155e-01  4.9793595539443775e-01  6.0710741849359906e-01  7.3717462453106175e-01  8.6595570269800048e-01  9.5765094945230911e-01  9.9209843647630491e-01  9.9054917321346159e-01  9.8857679580025903e-01  1.0228548776876739e-01  4.8680784418757145e-02  5.2876626274228504e-02  5.4115727463631275e-02  5.5438792669978615e-02  5.7079122582389882e-02  5.9083675160571503e-02  6.1458519755366731e-02  6.4203607662265946e-02  6.7320215670469974e-02  7.0813817834135789e-02  7.4695619989027934e-02  7.8983555085559431e-02  8.3702979708201439e-02  8.8887450476442975e-02  9.4580047799492972e-02  1.0083574247944047e-01  1.0772525004129613e-01  1.1534072411440396e-01  1.2380354439107522e-01  1.3327439431870208e-01  1.4396582453719509e-01  1.5615757517812570e-01  1.7021510311482924e-01  1.8661209580986515e-01  2.0595847086654950e-01  2.2903705177303513e-01  2.5685601820634135e-01  2.9073185720198175e-01  3.3242674445132342e-01  3.8435567938367809e-01  4.4978598127872838e-01  5.3262254201174652e-01  6.3559383797891766e-01  7.5485893092578105e-01  8.7162491844637957e-01  9.5280579534245169e-01  9.8271330255733069e-01  9.8923755329827201e-01  9.9496311197505860e-01  9.9616369784869729e-01  1.0282259480027670e-01  5.0296012590773029e-02  5.5524493442139347e-02  5.7051652338980623e-02  5.8599392992201974e-02  6.0480468644930674e-02  6.2772585380158230e-02  6.5493956497799377e-02  6.8654324614448148e-02  7.2266116392605967e-02  7.6347831334793045e-02  8.0925084095861105e-02  8.6030820229222663e-02  9.1705355177891967e-02  9.7996962044662100e-02  1.0496371323562065e-01  1.1267715274634715e-01  1.2122815915313230e-01  1.3073513390724686e-01  1.4135447373060916e-01  1.5329318368035078e-01  1.6682344399411952e-01  1.8229892226868477e-01  2.0017260423893163e-01  2.2101598993563190e-01  2.4554003813600084e-01  2.7462013066109336e-01  3.0933182924943492e-01  3.5101066175957069e-01  4.0134671577959191e-01  4.6247507251378273e-01  5.3684418797096756e-01  6.2624113427769235e-01  7.2885070967840027e-01  8.3392493288383929e-01  9.1907229300233584e-01  9.6443181149757862e-01  9.8004251109648166e-01  9.8798729691999654e-01  9.9094160302575474e-01  9.9880423108043681e-01  1.0339373796628362e-01  5.2046735264428289e-02  5.8466939101194826e-02  6.0374759351759275e-02  6.2226709118971137e-02  6.4432683551080616e-02  6.7114821238665884e-02  7.0310794874782839e-02  7.4045722829992291e-02  7.8347753700757750e-02  8.3251467174142932e-02  8.8797609199111976e-02  9.5031916159635965e-02  1.0200435519300405e-01  1.0976990543156442e-01  1.1839166461945216e-01  1.2794662683266583e-01  1.3853402892603237e-01  1.5028582344820765e-01  1.6337863904569874e-01  1.7804649517462465e-01  1.9459346021941559e-01  2.1340530745644273e-01  2.3495905780711113e-01  2.5982936763185777e-01  2.8869170324859339e-01  3.2232519150421801e-01  3.6162318317292624e-01  4.0762203825316656e-01  4.6153951841614405e-01  5.2473278539326706e-01  5.9829697744468580e-01  6.8177072787688786e-01  7.7049667637380370e-01  8.5289298586958795e-01  9.1324788584422145e-01  9.4543197310055205e-01  9.6166132632267942e-01  9.8071467724754036e-01  9.9525100253199739e-01  9.2158289564857454e-01  1.0399342609947629e-01  5.3917296270054677e-02  6.1702845938621353e-02  6.4115754918280060e-02  6.6387985661925400e-02  6.9045850684887305e-02  7.2274079200107089e-02  7.6139907810138435e-02  8.0690300335227144e-02  8.5972161399429092e-02  9.2034863201915562e-02  9.8927829354918423e-02  1.0669785789246436e-01  1.1538838180371075e-01  1.2504195106516652e-01  1.3570626934623928e-01  1.4744329077511531e-01  1.6034031210656513e-01  1.7452175210568088e-01  1.9016030462036454e-01  2.0748622238972578e-01  2.2679349183742104e-01  2.4844156736147865e-01  2.7285133700160941e-01  3.0049460027365671e-01  3.3187835649059405e-01  3.6752912041546992e-01  4.0798642068119340e-01  4.5381019248274201e-01  5.0557518709210725e-01  5.6374419629460915e-01  6.2818918777129584e-01  6.9708708196648184e-01  7.6532129377158487e-01  8.2393565367428467e-01  8.6365952753846442e-01  8.8149060396152190e-01  8.7767426835859730e-01  8.4388831927610874e-01  6.3673154974429047e-01  4.2174388789639344e-01  1.0461627290880246e-01  5.5889083776908446e-02  6.5236171484305827e-02  6.8328102263309570e-02  7.1197075042775171e-02  7.4505922327044449e-02  7.8525030124879963e-02  8.3363280700155862e-02  8.9093733791761054e-02  9.5777977182368801e-02  1.0346719957549448e-01  1.1219803284444493e-01  1.2199030647770398e-01  1.3284943899425483e-01  1.4477398399094771e-01  1.5776717843149801e-01  1.7185042572856277e-01  1.8707644138736415e-01  2.0354009147662253e-01  2.2138542978881479e-01  2.4080781269095325e-01  2.6205013689750351e-01  2.8539233297521194e-01  3.1113364177554292e-01  3.3956849430960856e-01  3.7095948659421007e-01  4.0551438171436638e-01  4.4337470628432646e-01  4.8461295369111546e-01  5.2920244878129363e-01  5.7686688221092730e-01  6.2666969586360222e-01  6.7626970916148355e-01  7.2111305209284038e-01  7.5443872356476804e-01  7.6871826119647690e-01  7.5578310322339171e-01  6.9701930067698714e-01  5.5180492809654746e-01  2.1886503514384595e-01  1.3413099638572917e-01  1.0525743480687802e-01  5.7942200048492008e-02  6.9088685631981908e-02  7.3116721221542613e-02  7.6862714010246552e-02  8.1144341921663143e-02  8.6344129029036085e-02  9.2622270668389031e-02  1.0007159108138680e-01  1.0874592575606079e-01  1.1866210891008147e-01  1.2979876613225697e-01  1.4210081262946456e-01  1.5549128399293000e-01  1.6988852673104088e-01  1.8522507626999207e-01  2.0146453216837673e-01  2.1861368401532161e-01  2.3672835775373541e-01  2.5591241371511464e-01  2.7630983325138347e-01  2.9808998956096333e-01  3.2142635564225158e-01  3.4646953775918771e-01  3.7331705632246098e-01  4.0198463417023256e-01  4.3238543826249992e-01  4.6432101727655428e-01  4.9747500843522530e-01  5.3137492360721650e-01  5.6525723623697455e-01  5.9776721636106989e-01  6.2649651855110755e-01  6.4752618374712800e-01  6.5523521295455944e-01  6.4209934924437673e-01  5.9688605465767408e-01  4.9929203016075568e-01  3.3051095408391901e-01  1.1422475218630364e-01  1.1361816122910950e-01  1.0591312675810648e-01  6.0058550385291509e-02  7.3323022218249823e-02  7.8691375906333266e-02  8.3777304909662259e-02  8.9560758498868631e-02  9.6558846135833876e-02  1.0497792984984208e-01  1.1489687288903361e-01  1.2630437951599180e-01  1.3911304434556679e-01  1.5317402191825599e-01  1.6829952137625723e-01  1.8429100328053416e-01  2.0096759861981836e-01  2.1818931394341790e-01  2.3587157829576169e-01  2.5398998767724074e-01  2.7257580902437828e-01  2.9170361714544168e-01  3.1147253160445421e-01  3.3198231608975348e-01  3.5330558323857342e-01  3.7545790994995121e-01  3.9836891835590449e-01  4.2185877394867172e-01  4.4562446214661833e-01  4.6923588116875070e-01  4.9213079608900334e-01  5.1358156100736552e-01  5.3259521394008180e-01  5.4772026621322634e-01  5.5678132118364665e-01  5.5661870145525294e-01  5.4286694514345368e-01  5.0955901565965422e-01  4.4840770765225857e-01  3.4925334831107002e-01  2.1820046677940000e-01  8.9092646256888924e-02  1.1235169471819614e-01  1.0658117245258994e-01  6.2226666840600471e-02  7.8079873090451307e-02  8.5457164827226012e-02  9.2666407346617879e-02  1.0081855037299249e-01  1.1056178679984205e-01  1.2210347158471038e-01  1.3542437846268868e-01  1.5034490392481165e-01  1.6657741997352593e-01  1.8377679917740794e-01  2.0158986423957653e-01  2.1969839416109344e-01  2.3785022505607070e-01  2.5587557038361902e-01  2.7368887137598219e-01  2.9127866790709367e-01  3.0868882863966407e-01  3.2599426954797261e-01  3.4327356646483731e-01  3.6058017501673201e-01  3.7791371858665834e-01  3.9519317039187990e-01  4.1223456602552166e-01  4.2873643845461484e-01  4.4427516131713951e-01  4.5830831070424566e-01  4.7017667927719242e-01  4.7908774074019778e-01  4.8406281439512067e-01  4.8384568834457109e-01  4.7680077637078716e-01  4.6084513315140191e-01  4.3341242394808571e-01  3.9137876690623047e-01  3.3124904362639523e-01  2.5106241277930957e-01  1.6188954103565201e-01  8.0322492140759927e-02  1.1113113188796953e-01  1.0726151567882088e-01  6.4448521363286632e-02  8.3633437248469070e-02  9.4154300646388189e-02  1.0481261673059107e-01  1.1670959822491486e-01  1.3054742739155908e-01  1.4641662927738824e-01  1.6405854516653565e-01  1.8300265443264629e-01  2.0269172465310581e-01  2.2257799459762834e-01  2.4218879478261768e-01  2.6116405974645307e-01  2.7926976758292310e-01  2.9639212894505212e-01  3.1251797179678242e-01  3.2770667761595135e-01  3.4205824898792625e-01  3.5568087512014646e-01  3.6866012339416976e-01  3.8103100319452671e-01  3.9275384659316975e-01  4.0369521515661455e-01  4.1361556819119877e-01  4.2216559076397409e-01  4.2889204586646090e-01  4.3325120556356433e-01  4.3462395203744553e-01  4.3232434562935917e-01  4.2559757990934338e-01  4.1361678683516373e-01  3.9550481017881078e-01  3.7040282872505853e-01  3.3755721937806193e-01  2.9635277899187196e-01  2.4647800025734395e-01  1.8879776714124197e-01  1.3093097548536572e-01  7.5304419425668762e-02  1.1019582969760035e-01  1.0795644789036801e-01  6.6749398089154227e-02  9.0473404095823495e-02  1.0605737529642552e-01  1.2234056936973203e-01  1.4001869718451060e-01  1.5962948063013613e-01  1.8095810451480804e-01  2.0337349010702324e-01  2.2607588110773444e-01  2.4829911400548854e-01  2.6942185184202794e-01  2.8900827546743313e-01  3.0680729594468648e-01  3.2272986557808081e-01  3.3681485720426707e-01  3.4918959988905318e-01  3.6002940454493570e-01  3.6951941628068941e-01  3.7782105975145897e-01  3.8504426117952145e-01  3.9122586976172924e-01  3.9631447448201451e-01  4.0016206790725173e-01  4.0252344095279535e-01  4.0306432522025576e-01  4.0137866308835424e-01  3.9701387093382462e-01  3.8950131663191007e-01  3.7838931931055247e-01  3.6327995441344663e-01  3.4387835919796217e-01  3.2006651955493004e-01  2.9199478146283253e-01  2.6013199044098290e-01  2.2517730732214797e-01  1.8789493979377936e-01  1.4906657755994018e-01  1.1200155886332978e-01  7.1931371458815313e-02  1.0941644548391047e-01  1.0867151745970985e-01  6.9196012900087672e-02  9.9440053552388913e-02  1.2325326731255132e-01  1.4850503376081198e-01  1.7461838595958168e-01  2.0159809188857691e-01  2.2880113286311057e-01  2.552940348