<?xml version="1.0"?>
<VTKFile type="UnstructuredGrid"  version="0.1"  >
<UnstructuredGrid>
<Piece  NumberOfPoints="1681" NumberOfCells="3200">
<Points>
<DataArray  type="Float64"  NumberOfComponents="3"  format="ascii">0 0 0  0.025 0 0  0.05 0 0  0.075 0 0  0.1 0 0  0.125 0 0  0.15 0 0  0.175 0 0  0.2 0 0  0.225 0 0  0.25 0 0  0.275 0 0  0.3 0 0  0.325 0 0  0.35 0 0  0.375 0 0  0.4 0 0  0.425 0 0  0.45 0 0  0.475 0 0  0.5 0 0  0.525 0 0  0.55 0 0  0.575 0 0  0.6 0 0  0.625 0 0  0.65 0 0  0.675 0 0  0.7 0 0  0.725 0 0  0.75 0 0  0.775 0 0  0.8 0 0  0.825 0 0  0.85 0 0  0.875 0 0  0.9 0 0  0.925 0 0  0.95 0 0  0.975 0 0  1 0 0  0 0.025 0  0.025 0.025 0  0.05 0.025 0  0.075 0.025 0  0.1 0.025 0  0.125 0.025 0  0.15 0.025 0  0.175 0.025 0  0.2 0.025 0  0.225 0.025 0  0.25 0.025 0  0.275 0.025 0  0.3 0.025 0  0.325 0.025 0  0.35 0.025 0  0.375 0.025 0  0.4 0.025 0  0.425 0.025 0  0.45 0.025 0  0.475 0.025 0  0.5 0.025 0  0.525 0.025 0  0.55 0.025 0  0.575 0.025 0  0.6 0.025 0  0.625 0.025 0  0.65 0.025 0  0.675 0.025 0  0.7 0.025 0  0.725 0.025 0  0.75 0.025 0  0.775 0.025 0  0.8 0.025 0  0.825 0.025 0  0.85 0.025 0  0.875 0.025 0  0.9 0.025 0  0.925 0.025 0  0.95 0.025 0  0.975 0.025 0  1 0.025 0  0 0.05 0  0.025 0.05 0  0.05 0.05 0  0.075 0.05 0  0.1 0.05 0  0.125 0.05 0  0.15 0.05 0  0.175 0.05 0  0.2 0.05 0  0.225 0.05 0  0.25 0.05 0  0.275 0.05 0  0.3 0.05 0  0.325 0.05 0  0.35 0.05 0  0.375 0.05 0  0.4 0.05 0  0.425 0.05 0  0.45 0.05 0  0.475 0.05 0  0.5 0.05 0  0.525 0.05 0  0.55 0.05 0  0.575 0.05 0  0.6 0.05 0  0.625 0.05 0  0.65 0.05 0  0.675 0.05 0  0.7 0.05 0  0.725 0.05 0  0.75 0.05 0  0.775 0.05 0  0.8 0.05 0  0.825 0.05 0  0.85 0.05 0  0.875 0.05 0  0.9 0.05 0  0.925 0.05 0  0.95 0.05 0  0.975 0.05 0  1 0.05 0  0 0.075 0  0.025 0.075 0  0.05 0.075 0  0.075 0.075 0  0.1 0.075 0  0.125 0.075 0  0.15 0.075 0  0.175 0.075 0  0.2 0.075 0  0.225 0.075 0  0.25 0.075 0  0.275 0.075 0  0.3 0.075 0  0.325 0.075 0  0.35 0.075 0  0.375 0.075 0  0.4 0.075 0  0.425 0.075 0  0.45 0.075 0  0.475 0.075 0  0.5 0.075 0  0.525 0.075 0  0.55 0.075 0  0.575 0.075 0  0.6 0.075 0  0.625 0.075 0  0.65 0.075 0  0.675 0.075 0  0.7 0.075 0  0.725 0.075 0  0.75 0.075 0  0.775 0.075 0  0.8 0.075 0  0.825 0.075 0  0.85 0.075 0  0.875 0.075 0  0.9 0.075 0  0.925 0.075 0  0.95 0.075 0  0.975 0.075 0  1 0.075 0  0 0.1 0  0.025 0.1 0  0.05 0.1 0  0.075 0.1 0  0.1 0.1 0  0.125 0.1 0  0.15 0.1 0  0.175 0.1 0  0.2 0.1 0  0.225 0.1 0  0.25 0.1 0  0.275 0.1 0  0.3 0.1 0  0.325 0.1 0  0.35 0.1 0  0.375 0.1 0  0.4 0.1 0  0.425 0.1 0  0.45 0.1 0  0.475 0.1 0  0.5 0.1 0  0.525 0.1 0  0.55 0.1 0  0.575 0.1 0  0.6 0.1 0  0.625 0.1 0  0.65 0.1 0  0.675 0.1 0  0.7 0.1 0  0.725 0.1 0  0.75 0.1 0  0.775 0.1 0  0.8 0.1 0  0.825 0.1 0  0.85 0.1 0  0.875 0.1 0  0.9 0.1 0  0.925 0.1 0  0.95 0.1 0  0.975 0.1 0  1 0.1 0  0 0.125 0  0.025 0.125 0  0.05 0.125 0  0.075 0.125 0  0.1 0.125 0  0.125 0.125 0  0.15 0.125 0  0.175 0.125 0  0.2 0.125 0  0.225 0.125 0  0.25 0.125 0  0.275 0.125 0  0.3 0.125 0  0.325 0.125 0  0.35 0.125 0  0.375 0.125 0  0.4 0.125 0  0.425 0.125 0  0.45 0.125 0  0.475 0.125 0  0.5 0.125 0  0.525 0.125 0  0.55 0.125 0  0.575 0.125 0  0.6 0.125 0  0.625 0.125 0  0.65 0.125 0  0.675 0.125 0  0.7 0.125 0  0.725 0.125 0  0.75 0.125 0  0.775 0.125 0  0.8 0.125 0  0.825 0.125 0  0.85 0.125 0  0.875 0.125 0  0.9 0.125 0  0.925 0.125 0  0.95 0.125 0  0.975 0.125 0  1 0.125 0  0 0.15 0  0.025 0.15 0  0.05 0.15 0  0.075 0.15 0  0.1 0.15 0  0.125 0.15 0  0.15 0.15 0  0.175 0.15 0  0.2 0.15 0  0.225 0.15 0  0.25 0.15 0  0.275 0.15 0  0.3 0.15 0  0.325 0.15 0  0.35 0.15 0  0.375 0.15 0  0.4 0.15 0  0.425 0.15 0  0.45 0.15 0  0.475 0.15 0  0.5 0.15 0  0.525 0.15 0  0.55 0.15 0  0.575 0.15 0  0.6 0.15 0  0.625 0.15 0  0.65 0.15 0  0.675 0.15 0  0.7 0.15 0  0.725 0.15 0  0.75 0.15 0  0.775 0.15 0  0.8 0.15 0  0.825 0.15 0  0.85 0.15 0  0.875 0.15 0  0.9 0.15 0  0.925 0.15 0  0.95 0.15 0  0.975 0.15 0  1 0.15 0  0 0.175 0  0.025 0.175 0  0.05 0.175 0  0.075 0.175 0  0.1 0.175 0  0.125 0.175 0  0.15 0.175 0  0.175 0.175 0  0.2 0.175 0  0.225 0.175 0  0.25 0.175 0  0.275 0.175 0  0.3 0.175 0  0.325 0.175 0  0.35 0.175 0  0.375 0.175 0  0.4 0.175 0  0.425 0.175 0  0.45 0.175 0  0.475 0.175 0  0.5 0.175 0  0.525 0.175 0  0.55 0.175 0  0.575 0.175 0  0.6 0.175 0  0.625 0.175 0  0.65 0.175 0  0.675 0.175 0  0.7 0.175 0  0.725 0.175 0  0.75 0.175 0  0.775 0.175 0  0.8 0.175 0  0.825 0.175 0  0.85 0.175 0  0.875 0.175 0  0.9 0.175 0  0.925 0.175 0  0.95 0.175 0  0.975 0.175 0  1 0.175 0  0 0.2 0  0.025 0.2 0  0.05 0.2 0  0.075 0.2 0  0.1 0.2 0  0.125 0.2 0  0.15 0.2 0  0.175 0.2 0  0.2 0.2 0  0.225 0.2 0  0.25 0.2 0  0.275 0.2 0  0.3 0.2 0  0.325 0.2 0  0.35 0.2 0  0.375 0.2 0  0.4 0.2 0  0.425 0.2 0  0.45 0.2 0  0.475 0.2 0  0.5 0.2 0  0.525 0.2 0  0.55 0.2 0  0.575 0.2 0  0.6 0.2 0  0.625 0.2 0  0.65 0.2 0  0.675 0.2 0  0.7 0.2 0  0.725 0.2 0  0.75 0.2 0  0.775 0.2 0  0.8 0.2 0  0.825 0.2 0  0.85 0.2 0  0.875 0.2 0  0.9 0.2 0  0.925 0.2 0  0.95 0.2 0  0.975 0.2 0  1 0.2 0  0 0.225 0  0.025 0.225 0  0.05 0.225 0  0.075 0.225 0  0.1 0.225 0  0.125 0.225 0  0.15 0.225 0  0.175 0.225 0  0.2 0.225 0  0.225 0.225 0  0.25 0.225 0  0.275 0.225 0  0.3 0.225 0  0.325 0.225 0  0.35 0.225 0  0.375 0.225 0  0.4 0.225 0  0.425 0.225 0  0.45 0.225 0  0.475 0.225 0  0.5 0.225 0  0.525 0.225 0  0.55 0.225 0  0.575 0.225 0  0.6 0.225 0  0.625 0.225 0  0.65 0.225 0  0.675 0.225 0  0.7 0.225 0  0.725 0.225 0  0.75 0.225 0  0.775 0.225 0  0.8 0.225 0  0.825 0.225 0  0.85 0.225 0  0.875 0.225 0  0.9 0.225 0  0.925 0.225 0  0.95 0.225 0  0.975 0.225 0  1 0.225 0  0 0.25 0  0.025 0.25 0  0.05 0.25 0  0.075 0.25 0  0.1 0.25 0  0.125 0.25 0  0.15 0.25 0  0.175 0.25 0  0.2 0.25 0  0.225 0.25 0  0.25 0.25 0  0.275 0.25 0  0.3 0.25 0  0.325 0.25 0  0.35 0.25 0  0.375 0.25 0  0.4 0.25 0  0.425 0.25 0  0.45 0.25 0  0.475 0.25 0  0.5 0.25 0  0.525 0.25 0  0.55 0.25 0  0.575 0.25 0  0.6 0.25 0  0.625 0.25 0  0.65 0.25 0  0.675 0.25 0  0.7 0.25 0  0.725 0.25 0  0.75 0.25 0  0.775 0.25 0  0.8 0.25 0  0.825 0.25 0  0.85 0.25 0  0.875 0.25 0  0.9 0.25 0  0.925 0.25 0  0.95 0.25 0  0.975 0.25 0  1 0.25 0  0 0.275 0  0.025 0.275 0  0.05 0.275 0  0.075 0.275 0  0.1 0.275 0  0.125 0.275 0  0.15 0.275 0  0.175 0.275 0  0.2 0.275 0  0.225 0.275 0  0.25 0.275 0  0.275 0.275 0  0.3 0.275 0  0.325 0.275 0  0.35 0.275 0  0.375 0.275 0  0.4 0.275 0  0.425 0.275 0  0.45 0.275 0  0.475 0.275 0  0.5 0.275 0  0.525 0.275 0  0.55 0.275 0  0.575 0.275 0  0.6 0.275 0  0.625 0.275 0  0.65 0.275 0  0.675 0.275 0  0.7 0.275 0  0.725 0.275 0  0.75 0.275 0  0.775 0.275 0  0.8 0.275 0  0.825 0.275 0  0.85 0.275 0  0.875 0.275 0  0.9 0.275 0  0.925 0.275 0  0.95 0.275 0  0.975 0.275 0  1 0.275 0  0 0.3 0  0.025 0.3 0  0.05 0.3 0  0.075 0.3 0  0.1 0.3 0  0.125 0.3 0  0.15 0.3 0  0.175 0.3 0  0.2 0.3 0  0.225 0.3 0  0.25 0.3 0  0.275 0.3 0  0.3 0.3 0  0.325 0.3 0  0.35 0.3 0  0.375 0.3 0  0.4 0.3 0  0.425 0.3 0  0.45 0.3 0  0.475 0.3 0  0.5 0.3 0  0.525 0.3 0  0.55 0.3 0  0.575 0.3 0  0.6 0.3 0  0.625 0.3 0  0.65 0.3 0  0.675 0.3 0  0.7 0.3 0  0.725 0.3 0  0.75 0.3 0  0.775 0.3 0  0.8 0.3 0  0.825 0.3 0  0.85 0.3 0  0.875 0.3 0  0.9 0.3 0  0.925 0.3 0  0.95 0.3 0  0.975 0.3 0  1 0.3 0  0 0.325 0  0.025 0.325 0  0.05 0.325 0  0.075 0.325 0  0.1 0.325 0  0.125 0.325 0  0.15 0.325 0  0.175 0.325 0  0.2 0.325 0  0.225 0.325 0  0.25 0.325 0  0.275 0.325 0  0.3 0.325 0  0.325 0.325 0  0.35 0.325 0  0.375 0.325 0  0.4 0.325 0  0.425 0.325 0  0.45 0.325 0  0.475 0.325 0  0.5 0.325 0  0.525 0.325 0  0.55 0.325 0  0.575 0.325 0  0.6 0.325 0  0.625 0.325 0  0.65 0.325 0  0.675 0.325 0  0.7 0.325 0  0.725 0.325 0  0.75 0.325 0  0.775 0.325 0  0.8 0.325 0  0.825 0.325 0  0.85 0.325 0  0.875 0.325 0  0.9 0.325 0  0.925 0.325 0  0.95 0.325 0  0.975 0.325 0  1 0.325 0  0 0.35 0  0.025 0.35 0  0.05 0.35 0  0.075 0.35 0  0.1 0.35 0  0.125 0.35 0  0.15 0.35 0  0.175 0.35 0  0.2 0.35 0  0.225 0.35 0  0.25 0.35 0  0.275 0.35 0  0.3 0.35 0  0.325 0.35 0  0.35 0.35 0  0.375 0.35 0  0.4 0.35 0  0.425 0.35 0  0.45 0.35 0  0.475 0.35 0  0.5 0.35 0  0.525 0.35 0  0.55 0.35 0  0.575 0.35 0  0.6 0.35 0  0.625 0.35 0  0.65 0.35 0  0.675 0.35 0  0.7 0.35 0  0.725 0.35 0  0.75 0.35 0  0.775 0.35 0  0.8 0.35 0  0.825 0.35 0  0.85 0.35 0  0.875 0.35 0  0.9 0.35 0  0.925 0.35 0  0.95 0.35 0  0.975 0.35 0  1 0.35 0  0 0.375 0  0.025 0.375 0  0.05 0.375 0  0.075 0.375 0  0.1 0.375 0  0.125 0.375 0  0.15 0.375 0  0.175 0.375 0  0.2 0.375 0  0.225 0.375 0  0.25 0.375 0  0.275 0.375 0  0.3 0.375 0  0.325 0.375 0  0.35 0.375 0  0.375 0.375 0  0.4 0.375 0  0.425 0.375 0  0.45 0.375 0  0.475 0.375 0  0.5 0.375 0  0.525 0.375 0  0.55 0.375 0  0.575 0.375 0  0.6 0.375 0  0.625 0.375 0  0.65 0.375 0  0.675 0.375 0  0.7 0.375 0  0.725 0.375 0  0.75 0.375 0  0.775 0.375 0  0.8 0.375 0  0.825 0.375 0  0.85 0.375 0  0.875 0.375 0  0.9 0.375 0  0.925 0.375 0  0.95 0.375 0  0.975 0.375 0  1 0.375 0  0 0.4 0  0.025 0.4 0  0.05 0.4 0  0.075 0.4 0  0.1 0.4 0  0.125 0.4 0  0.15 0.4 0  0.175 0.4 0  0.2 0.4 0  0.225 0.4 0  0.25 0.4 0  0.275 0.4 0  0.3 0.4 0  0.325 0.4 0  0.35 0.4 0  0.375 0.4 0  0.4 0.4 0  0.425 0.4 0  0.45 0.4 0  0.475 0.4 0  0.5 0.4 0  0.525 0.4 0  0.55 0.4 0  0.575 0.4 0  0.6 0.4 0  0.625 0.4 0  0.65 0.4 0  0.675 0.4 0  0.7 0.4 0  0.725 0.4 0  0.75 0.4 0  0.775 0.4 0  0.8 0.4 0  0.825 0.4 0  0.85 0.4 0  0.875 0.4 0  0.9 0.4 0  0.925 0.4 0  0.95 0.4 0  0.975 0.4 0  1 0.4 0  0 0.425 0  0.025 0.425 0  0.05 0.425 0  0.075 0.425 0  0.1 0.425 0  0.125 0.425 0  0.15 0.425 0  0.175 0.425 0  0.2 0.425 0  0.225 0.425 0  0.25 0.425 0  0.275 0.425 0  0.3 0.425 0  0.325 0.425 0  0.35 0.425 0  0.375 0.425 0  0.4 0.425 0  0.425 0.425 0  0.45 0.425 0  0.475 0.425 0  0.5 0.425 0  0.525 0.425 0  0.55 0.425 0  0.575 0.425 0  0.6 0.425 0  0.625 0.425 0  0.65 0.425 0  0.675 0.425 0  0.7 0.425 0  0.725 0.425 0  0.75 0.425 0  0.775 0.425 0  0.8 0.425 0  0.825 0.425 0  0.85 0.425 0  0.875 0.425 0  0.9 0.425 0  0.925 0.425 0  0.95 0.425 0  0.975 0.425 0  1 0.425 0  0 0.45 0  0.02
[...]
<PointData  Scalars="ControlVisualisation"> 
<DataArray  type="Float64"  Name="ControlVisualisation"  format="ascii">2.0373696741796549e-06  1.3549181429535544e-06  1.3549302558578156e-06  1.3549506379881935e-06  1.3549788944285998e-06  1.3550145497865936e-06  1.3550569463948879e-06  1.3551052412149865e-06  1.3551584091834546e-06  1.3552152279600932e-06  1.3552743490759104e-06  1.3553342516255993e-06  1.3553933275842759e-06  1.3554499518826975e-06  1.3555024351486638e-06  1.3555493289222001e-06  1.3555891690094239e-06  1.3556207623353204e-06  1.3556431449603115e-06  1.3556556250633279e-06  1.3556577632848023e-06  1.3556495667379127e-06  1.3556312477464054e-06  1.3556034022241068e-06  1.3555669191523577e-06  1.3555228996907794e-06  1.3554726735266489e-06  1.3554177526623224e-06  1.3553596984917472e-06  1.3553001699538883e-06  1.3552407404439130e-06  1.3551829729478108e-06  1.3551282705775928e-06  1.3550779163199920e-06  1.3550329756938020e-06  1.3549943591961799e-06  1.3549627946941347e-06  1.3549388206891999e-06  1.3549228892500455e-06  1.3549149824457097e-06  4.0847292223186067e-06  1.3549181593234430e-06  6.7246376795516113e-07  6.7247551307529077e-07  6.7249631056553317e-07  6.7252604703906003e-07  6.7256421976172438e-07  6.7261013174716282e-07  6.7266288743386243e-07  6.7272138008168562e-07  6.7278429907452910e-07  6.7285015006407779e-07  6.7291727606088614e-07  6.7298388222532033e-07  6.7304816067624935e-07  6.7310822950069722e-07  6.7316236988201969e-07  6.7320897961187906e-07  6.7324658490930731e-07  6.7327409882142029e-07  6.7329064550256945e-07  6.7329567134298952e-07  6.7328907843004970e-07  6.7327107032848960e-07  6.7324219291693383e-07  6.7320337428006692e-07  6.7315579618749077e-07  6.7310090262958630e-07  6.7304035580165201e-07  6.7297589006660702e-07  6.7290933335085547e-07  6.7284252290796090e-07  6.7277717757621729e-07  6.7271493158515745e-07  6.7265724295379324e-07  6.7260538053288109e-07  6.7256039354359772e-07  6.7252314328239762e-07  6.7249428425839167e-07  6.7247427217864367e-07  6.7246282648116517e-07  1.3549149846638871e-06  1.3549304389073559e-06  6.7247564586952768e-07  6.7249024789984683e-07  6.7251386986438731e-07  6.7254771274871686e-07  6.7259126042857578e-07  6.7264374049482911e-07  6.7270414310910274e-07  6.7277118776921394e-07  6.7284338590534903e-07  6.7291904947617377e-07  6.7299623161281769e-07  6.7307287643898068e-07  6.7314691853298130e-07  6.7321620493628659e-07  6.7327869874323784e-07  6.7333257774815010e-07  6.7337614216728831e-07  6.7340812047617927e-07  6.7342751536980490e-07  6.7343366002597300e-07  6.7342642749584951e-07  6.7340606605305980e-07  6.7337318171226937e-07  6.7332880680008770e-07  6.7327432793089918e-07  6.7321136847876824e-07  6.7314186157725219e-07  6.7306780011446776e-07  6.7299126067016253e-07  6.7291440157552319e-07  6.7283920309038218e-07  6.7276752879416421e-07  6.7270107253655144e-07  6.7264129440828545e-07  6.7258940849621735e-07  6.7254639823907323e-07  6.7251299754028489e-07  6.7248962677483755e-07  6.7247438237187505e-07  1.3549229465783174e-06  1.3549515050048767e-06  6.7249705337497886e-07  6.7251454243834256e-07  6.7253847190159608e-07  6.7257261457766038e-07  6.7261658000332231e-07  6.7266960712591135e-07  6.7273070629590517e-07  6.7279859332303456e-07  6.7287174277847943e-07  6.7294844144695113e-07  6.7302674615174975e-07  6.7310451876762280e-07  6.7317967024945683e-07  6.7325001117014881e-07  6.7331345465395038e-07  6.7336815329718381e-07  6.7341240118870620e-07  6.7344483982083126e-07  6.7346453120588276e-07  6.7347081481572894e-07  6.7346349078815474e-07  6.7344283628533135e-07  6.7340946139295383e-07  6.7336443435710743e-07  6.7330915398370143e-07  6.7324526397483618e-07  6.7317469487944389e-07  6.7309951847361329e-07  6.7302184696763191e-07  6.7294386495529840e-07  6.7286761114932892e-07  6.7279495639537503e-07  6.7272763982283578e-07  6.7266713528054275e-07  6.7261466261279727e-07  6.7257119490023248e-07  6.7253744462680428e-07  6.7251364064673078e-07  6.7249493260410300e-07  1.3549392190000263e-06  1.3549815795745011e-06  6.7252850567228918e-07  6.7255031621736613e-07  6.7257456423202634e-07  6.7260888274667517e-07  6.7265311962447199e-07  6.7270652896952587e-07  6.7276813267609880e-07  6.7283666552947241e-07  6.7291059500961112e-07  6.7298815942025506e-07  6.7306736930365037e-07  6.7314610500935328e-07  6.7322216271219409e-07  6.7329335985302742e-07  6.7335756833696274e-07  6.7341289654356038e-07  6.7345766619597605e-07  6.7349048082498275e-07  6.7351035584584495e-07  6.7351669561200384e-07  6.7350925493632154e-07  6.7348831345857331e-07  6.7345454343640371e-07  6.7340893128024157e-07  6.7335293904725009e-07  6.7328824375749468e-07  6.7321676714455370e-07  6.7314064523222056e-07  6.7306201238135479e-07  6.7298308626977047e-07  6.7290596539688426e-07  6.7283254409384187e-07  6.7276457905416594e-07  6.7270356911342127e-07  6.7265072217554536e-07  6.7260699107422526e-07  6.7257306152389150e-07  6.7254888233143085e-07  6.7252534560315549e-07  1.3549642861116474e-06  1.3550210563854549e-06  6.7257042371349375e-07  6.7259810808937769e-07  6.7262283785185835e-07  6.7265747273942104e-07  6.7270215268294383e-07  6.7275618527289509e-07  6.7281857873818497e-07  6.7288809133149063e-07  6.7296313777284097e-07  6.7304193711558753e-07  6.7312245285370511e-07  6.7320250580083042e-07  6.7327982735405401e-07  6.7335217605023820e-07  6.7341742093949069e-07  6.7347361002530170e-07  6.7351903727085479e-07  6.7355230918253931e-07  6.7357245482036975e-07  6.7357884511305711e-07  6.7357126539167550e-07  6.7354995419246424e-07  6.7351561605324152e-07  6.7346925154698872e-07  6.7341231369365685e-07  6.7334652629495167e-07  6.7327381890845583e-07  6.7319637166654900e-07  6.7311640514253157e-07  6.7303614967202567e-07  6.7295777347016933e-07  6.7288322800846343e-07  6.7281429509960072e-07  6.7275250264789297e-07  6.7269905777545761e-07  6.7265489387468052e-07  6.7262065959715252e-07  6.7259594693834197e-07  6.7256603345121821e-07  1.3549984085868131e-06  1.3550703500004777e-06  6.7262327922921154e-07  6.7265852041494865e-07  6.7268396991024523e-07  6.7271916164687015e-07  6.7276458869078048e-07  6.7281962322175404e-07  6.7288326404384614e-07  6.7295424251946475e-07  6.7303095708228006e-07  6.7311152157142191e-07  6.7319386362757586e-07  6.7327571790115177e-07  6.7335472805536999e-07  6.7342862162431743e-07  6.7349522105214739e-07  6.7355250447127280e-07  6.7359880526015124e-07  6.7363267286129289e-07  6.7365311817730780e-07  6.7365959688295517e-07  6.7365181080570134e-07  6.7363005134195594e-07  6.7359499142968365e-07  6.7354765225605811e-07  6.7348949902817360e-07  6.7342227171918739e-07  6.7334793468744135e-07  6.7326869684944098e-07  6.7318688026318364e-07  6.7310475898971751e-07  6.7302457522026017e-07  6.7294836943427756e-07  6.7287797798855330e-07  6.7281496298557122e-07  6.7276054278115015e-07  6.7271565128367976e-07  6.7268088566769939e-07  6.7265540018523661e-07  6.7261744962402083e-07  1.3550419853479555e-06  1.3551298709606420e-06  6.7268756072020809e-07  6.7273216392904990e-07  6.7275869792011689e-07  6.7279481406226483e-07  6.7284149932890461e-07  6.7289811980118083e-07  6.7296367770477833e-07  6.7303684543109751e-07  6.7311595606436892e-07  6.7319903577805721e-07  6.7328389412473587e-07  6.7336817215406750e-07  6.7344943125131630e-07  6.7352529445592379e-07  6.7359360470073107e-07  6.7365226281167065e-07  6.7369958569291359e-07  6.7373419056387136e-07  6.7375504126618389e-07  6.7376158127667250e-07  6.7375355872127047e-07  6.7373122541469058e-07  6.7369531660298842e-07  6.7364678856575670e-07  6.7358711050044542e-07  6.7351804856107719e-07  6.7344159435461636e-07  6.7336000969034071e-07  6.7327567343654027e-07  6.7319097479243674e-07  6.7310823941583652e-07  6.7302963361585783e-07  6.7295707032007032e-07  6.7289216686727694e-07  6.7283618952692588e-07  6.7279008778438615e-07  6.7275442228933151e-07  6.7272782388445566e-07  6.7268004657451150e-07  1.3550954036944953e-06  1.3551998748548326e-06  6.7276364228404919e-07  6.7281956664285213e-07  6.7284774338018990e-07  6.7288542837182081e-07  6.7293414144561166e-07  6.7299326733047444e-07  6.7306174125071115e-07  6.7313814405216065e-07  6.7322070733478640e-07  6.7330727214366811e-07  6.7339554918136154e-07  6.7348303585360028e-07  6.7356719977688498e-07  6.7364558959488616e-07  6.7371595366569014e-07  6.7377628139913542e-07  6.7382483141885248e-07  6.7386024988016859e-07  6.7388157466545554e-07  6.7388818182072064e-07  6.7387987925949911e-07  6.7385689123610209e-07  6.7381995190624898e-07  6.7377002726781490e-07  6.7370849844238373e-07  6.7363716347640322e-07  6.7355802333720771e-07  6.7347339185976007e-07  6.7338571207367898e-07  6.7329749998626558e-07  6.7321121534249109e-07  6.7312916605215699e-07  6.7305338647220145e-07  6.7298560439014849e-07  6.7292718168596844e-07  6.7287911360628362e-07  6.7284193760703539e-07  6.7281370864238376e-07  6.7275417858288938e-07  1.3551589929442658e-06  1.3552803457869986e-06  6.7285165575653935e-07  6.7292106818158907e-07  6.7295169233939345e-07  6.7299197327509010e-07  6.7304396555976869e-07  6.7310699057091218e-07  6.7317988140672398e-07  6.7326104454620624e-07  6.7334852645775771e-07  6.7343995551459197e-07  6.7353281561340222e-07  6.7362448657921414e-07  6.7371229585477867e-07  6.7379378770030251e-07  6.7386662078366022e-07  6.7392885307074585e-07  6.7397879696061687e-07  6.7401511652174182e-07  6.7403691968188123e-07  6.7404359820276168e-07  6.7403499226933563e-07  6.7401131515819292e-07  6.7397318014058146e-07  6.7392164077460725e-07  6.7385796133118913e-07  6.7378389245907611e-07  6.7370144242485176e-07  6.7361292176386825e-07  6.7352086976788173e-07  6.7342791732879164e-07  6.7333670325978916e-07  6.7324972474427644e-07  6.7316920896911673e-07  6.7309707170516205e-07  6.7303484076295161e-07  6.7298361212124176e-07  6.7294395820795723e-07  6.7291331676057012e-07  6.7283995034507531e-07  1.3552328697967409e-06  1.3553706899454504e-06  6.7295120096800351e-07  6.7303651794473869e-07  6.7307087749794132e-07  6.7311534447256236e-07  6.7317255258274472e-07  6.7324164128418965e-07  6.7332119279474262e-07  6.7340932197702785e-07  6.7350378761676997e-07  6.7360191427483557e-07  6.7370092138185787e-07  6.7379799250969269e-07  6.7389031347944831e-07  6.7397542774933070e-07  6.7405111264404768e-07  6.7411541698849862e-07  6.7416682404652072e-07  6.7420406093646486e-07  6.7422633532362891e-07  6.7423306223828436e-07  6.7422410061438879e-07  6.7419972469508476e-07  6.7416035214364292e-07  6.7410705032937192e-07  6.7404098512816502e-07  6.7396374984707310e-07  6.7387733087458317e-07  6.7378395784782571e-07  6.7368623911786311e-07  6.7358694315847061e-07  6.7348890817715576e-07  6.7339490160114417e-07  6.7330744892955714e-07  6.7322875798548884e-07  6.7316062564643338e-07  6.7310436209365125e-07  6.7306068903177197e-07  6.7302643874561582e-07  6.7293699321289018e-07  1.3553167852696667e-06  1.3554694050804498e-06  6.7306098258336205e-07  6.7316488810429228e-07  6.7320501314423197e-07  6.7325628325321171e-07  6.7332174826435738e-07  6.7340020248583150e-07  6.7348977563531617e-07  6.7358808755359043e-07  6.7369241068923696e-07  6.7379970729972622e-07  6.7390678551373963e-07  6.7401064069971028e-07  6.7410842602554884e-07  6.7419765984908480e-07  6.7427634630112922e-07  6.7434274813012078e-07  6.7439550490577876e-07  6.7443354448078731e-07  6.7445618036625295e-07  6.7446296695826010e-07  6.7445365468774880e-07  6.7442855936247642e-07  6.7438803794749938e-07  6.7433298044940131e-07  6.7426445948605851e-07  6.7418379663555839e-07  6.7409277771607645e-07  6.7399350007214313e-07  6.7388855988462429e-07  6.7378083867085164e-07  6.7367343259338298e-07  6.7356947988921289e-07  6.7347192134712065e-07  6.7338340214773167e-07  6.7330615604790709e-07  6.7324192779585100e-07  6.7319178210272732e-07  6.7315203203534756e-07  6.7304407983869758e-07  1.3554097606549134e-06  1.3555733961561614e-06  6.7317824673698202e-07  6.7330384337604742e-07  6.7335298025243868e-07  6.7341522834885629e-07  6.7349376358209853e-07  6.7358662572775014e-07  6.7369117693078658e-07  6.7380432187117817e-07  6.7392258580714193e-07  6.7404229081266640e-07  6.7415985681984129e-07  6.7427200021034540e-07  6.7437593943680083e-07  6.7446952705510908e-07  6.7455101893766214e-07  6.7461917626694748e-07  6.7467292983987608e-07  6.7471145719824587e-07  6.7473423207907302e-07  6.7474092179331261e-07  6.7473134875922462e-07  6.7470566723680213e-07  6.7466426887975336e-07  6.7460781304580631e-07  6.7453711751326239e-07  6.7445308922261195e-07  6.7435711035491084e-07  6.7425094283721432e-07  6.7413700142339175e-07  6.7401822812278449e-07  6.7389803412315391e-07  6.7378004665270670e-07  6.7366780062514619e-07  6.7356459216831486e-07  6.7347334171102249e-07  6.7339653736324279e-07  6.7333595620959890e-07  6.7328770051598784e-07  6.7315858941811049e-07  1.3555096688758944e-06  1.3556771937619523e-06  6.7329790327744606e-07  6.7344886687214059e-07  6.7351235145099433e-07  6.7359233409386643e-07  6.7369148283249227e-07  6.7380647641024516e-07  6.7393337460781291e-07  6.7406793106586979e-07  6.7420572613377430e-07  6.7434218430203487e-07  6.7447303168303388e-07  6.7459490839203112e-07  6.7470521747171768e-07  6.7480254443274913e-07  6.7488597083575589e-07  6.7495487545656261e-07  6.7500881993947475e-07  6.7504720809395028e-07  6.7506972124542458e-07  6.7507617729927335e-07  6.7506638661193804e-07  6.7504047943022675e-07  6.7499880687744387e-07  6.7494178034179043e-07  6.7486982676009678e-07  6.7478325651050243e-07  6.7468264759354502e-07  6.7456898386096145e-07  6.7444417090695691e-07  6.7431109196591174e-07  6.7417355406330791e-07  6.7403587469748201e-07  6.7390241374481734e-07  6.7377735034386458e-07  6.7366465261362698e-07  6.7356803708500112e-07  6.7349058758356191e-07  6.7342889621979730e-07  6.7327569123917351e-07  1.3556125252271016e-06  1.3557713812930002e-06  6.7341122155234852e-07  6.7359235675071896e-07  6.7367903179902054e-07  6.7378778755273725e-07  6.7391939217330120e-07  6.7406815288649602e-07  6.7422816485823616e-07  6.7439361019147356e-07  6.7455859823027991e-07  6.7471733069469857e-07  6.7486455846493476e-07  6.7499677649923608e-07  6.7511242406131224e-07  6.7521138701281066e-07  6.7529446387019967e-07  6.7536216045221351e-07  6.7541470555746637e-07  6.7545192855973804e-07  6.7547357883053858e-07  6.7547954281089359e-07  6.7546966941345533e-07  6.7544411869542705e-07  6.7540321909601653e-07  6.7534715493396253e-07  6.7527598808191269e-07  6.7518919242784543e-07  6.7508582822464060e-07  6.7496516428220379e-07  6.7482785802893764e-07  6.7467649910420322e-07  6.7451555189655996e-07  6.7435043404393934e-07  6.7418661230627702e-07  6.7402935803607292e-07  6.7388398220478603e-07  6.7375611560584069e-07  6.7365131431922830e-07  6.7356801435716066e-07  6.7338713882792464e-07  1.3557114252981465e-06  1.3558411131135771e-06  6.7350418829173195e-07  6.7372240910234633e-07  6.7384737931331869e-07  6.7400307865259100e-07  6.7418575942375962e-07  6.7438548310366245e-07  6.7459380456588486e-07  6.7480318093492773e-07  6.7500596948318989e-07  6.7519425047048256e-07  6.7536086426010523e-07  6.7550205410450943e-07  6.7561864224884738e-07  6.7571415394942254e-07  6.7579227614872500e-07  6.7585531016859360e-07  6.7590410254480261e-07  6.7593862168198294e-07  6.7595857922361676e-07  6.7596368910415537e-07  6.7595389769017983e-07  6.7592943074830765e-07  6.7589075650001423e-07  6.7583820526120796e-07  6.7577169898990357e-07  6.7568978180442066e-07  6.7558884780667694e-07  6.7546439060948079e-07  6.7531394529845332e-07  6.7513943284398649e-07  6.7494683405842160e-07  6.7474378944085312e-07  6.7453725376544577e-07  6.7433332706213106e-07  6.7413860862109814e-07  6.7396149213346729e-07  6.7381195772639531e-07  6.7369311459429029e-07  6.7347966718514915e-07  1.3557950935183658e-06  1.3558634120993640e-06  6.7355539908716413e-07  6.7382197161516052e-07  6.7401144106957330e-07  6.7424446818370344e-07  6.7450705859988064e-07  6.7478228868943018e-07  6.7505924137830954e-07  6.7533018096363012e-07  6.7558581700665053e-07  6.7581415845532834e-07  6.7600197576556377e-07  6.7614548713002804e-07  6.7625167079909481e-07  6.7633242490627081e-07  6.7639729899152717e-07  6.7645043455029855e-07  6.7649240910430204e-07  6.7652239089514401e-07  6.7653958835146376e-07  6.7654345047702954e-07  6.7653389777649769e-07  6.7651130954933639e-07  6.7647661567809369e-07  6.7643096634815721e-07  6.7637487497304224e-07  6.7630786735817004e-07  6.7622194176829430e-07  6.7610322117672136e-07  6.7594148913796452e-07  6.7573739648184323e-07  6.7550109943432715e-07  6.7524577425639140e-07  6.7498093552380685e-07  6.7471166427059880e-07  6.7444378458392213e-07  6.7418908976616741e-07  6.7396560836387656e-07  6.7378686492969299e-07  6.7353282551947604e-07  1.3558457904427264e-06  1.3558052971029076e-06  6.7353467314085860e-07  6.7387092190820322e-07  6.7417212230278996e-07  6.7453374339064224e-07  6.7491877892783854e-07  6.7530021424684038e-07  6.7566962587220420e-07  6.7602443098861637e-07  6.7635493465036417e-07  6.7664029118619483e-07  6.7685072196323750e-07  6.7697857493920414e-07  6.7704658909406497e-07  6.7709066111900755e-07  6.7713014168901589e-07  6.7716790136595019e-07  6.7720052471062374e-07  6.7722452255200678e-07  6.7723786176956190e-07  6.7723982893432817e-07  6.7723018115465896e-07  6.7720930663515182e-07  6.7717885714255026e-07  6.7714127704100726e-07  6.7710355022366181e-07  6.7706973392513251e-07  6.7702783253206183e-07  6.7694104529983479e-07  6.7677640564264812e-07  6.7653034753211062e-07  6.7622713831115010e-07  6.7589870916987737e-07  6.7555980180870790e-07  6.7520570605253453e-07  6.7483318475184674e-07  6.7445683865080653e-07  6.7410968492645310e-07  6.7382749002458237e-07  6.7351742035716211e-07  1.3558371657692728e-06  1.3556296433541458e-06  6.7340833243029573e-07  6.7385518715682633e-07  6.7434756530613550e-07  6.7492252515319487e-07  6.7549433193272590e-07  6.7601635698913279e-07  6.7649776227323254e-07  6.7696722651553978e-07  6.7742010406741656e-07  6.7781552224932073e-07  6.7808505480070079e-07  6.7813336561479031e-07  6.7809049293117767e-07  6.7806614763660745e-07  6.7807735079337893e-07  6.7810771897093169e-07  6.7813859219068812e-07  6.7816115511924301e-07  6.7817220079856612e-07  6.7817138887926816e-07  6.7815875258353371e-07  6.7813461812836373e-07  6.7810116818647993e-07  6.7806336088261075e-07  6.7804223444351514e-07  6.7803271599350601e-07  6.7809174062720970e-07  6.7810545580514739e-07  6.7794529783718576e-07  6.7761123487338792e-07  6.7718901860154673e-07  6.7675804452272063e-07  6.7634000006064611e-07  6.7589418263054777e-07  6.7538341845548055e-07  6.7481835904566141e-07  6.7426180287656081e-07  6.7379713619923401e-07  6.7339810378178513e-07  1.3557340281471768e-06  1.3553165052780193e-06  6.7315882311253128e-07  6.7380555026570643e-07  6.7464717970243204e-07  6.7563385512351702e-07  6.7649679308705679e-07  6.7710392007878950e-07  6.7767230907817343e-07  6.7837460212357048e-07  6.7915430087354775e-07  6.7990375436477549e-07  6.8053439520443429e-07  6.8046189693336778e-07  6.8055672145375864e-07  6.8087783916177979e-07  6.8135181818307482e-07  6.8181601439526617e-07  6.8219724484782637e-07  6.8246061624793077e-07  6.8259488099385287e-07  6.8259649277003883e-07  6.8246557159821540e-07  6.8220456629442002e-07  6.8182156797127242e-07  6.8133895326966331e-07  6.8082697248781254e-07  6.8036737918458237e-07  6.8045255076959256e-07  6.8052489855051815e-07  6.8013592365725398e-07  6.7945901031010912e-07  6.7868321369456262e-07  6.7794622168809119e-07  6.7740347696230278e-07  6.7693428598096621e-07  6.7628283846541082e-07  6.7542139787313981e-07  6.7450670109282731e-07  6.7371716195421131e-07  6.7315412171586384e-07  1.3555025385729821e-06  1.3550146250634457e-06  6.7292942386980421e-07  6.7398717785219741e-07  6.7530982172027729e-07  6.7686196862675222e-07  6.7813289077390266e-07  6.7909620830127469e-07  6.8240513742069302e-07  6.898588578