<?xml version="1.0"?>
<VTKFile type="UnstructuredGrid"  version="0.1"  >
<UnstructuredGrid>
<Piece  NumberOfPoints="1681" NumberOfCells="3200">
<Points>
<DataArray  type="Float64"  NumberOfComponents="3"  format="ascii">0 0 0  0.025 0 0  0.05 0 0  0.075 0 0  0.1 0 0  0.125 0 0  0.15 0 0  0.175 0 0  0.2 0 0  0.225 0 0  0.25 0 0  0.275 0 0  0.3 0 0  0.325 0 0  0.35 0 0  0.375 0 0  0.4 0 0  0.425 0 0  0.45 0 0  0.475 0 0  0.5 0 0  0.525 0 0  0.55 0 0  0.575 0 0  0.6 0 0  0.625 0 0  0.65 0 0  0.675 0 0  0.7 0 0  0.725 0 0  0.75 0 0  0.775 0 0  0.8 0 0  0.825 0 0  0.85 0 0  0.875 0 0  0.9 0 0  0.925 0 0  0.95 0 0  0.975 0 0  1 0 0  0 0.025 0  0.025 0.025 0  0.05 0.025 0  0.075 0.025 0  0.1 0.025 0  0.125 0.025 0  0.15 0.025 0  0.175 0.025 0  0.2 0.025 0  0.225 0.025 0  0.25 0.025 0  0.275 0.025 0  0.3 0.025 0  0.325 0.025 0  0.35 0.025 0  0.375 0.025 0  0.4 0.025 0  0.425 0.025 0  0.45 0.025 0  0.475 0.025 0  0.5 0.025 0  0.525 0.025 0  0.55 0.025 0  0.575 0.025 0  0.6 0.025 0  0.625 0.025 0  0.65 0.025 0  0.675 0.025 0  0.7 0.025 0  0.725 0.025 0  0.75 0.025 0  0.775 0.025 0  0.8 0.025 0  0.825 0.025 0  0.85 0.025 0  0.875 0.025 0  0.9 0.025 0  0.925 0.025 0  0.95 0.025 0  0.975 0.025 0  1 0.025 0  0 0.05 0  0.025 0.05 0  0.05 0.05 0  0.075 0.05 0  0.1 0.05 0  0.125 0.05 0  0.15 0.05 0  0.175 0.05 0  0.2 0.05 0  0.225 0.05 0  0.25 0.05 0  0.275 0.05 0  0.3 0.05 0  0.325 0.05 0  0.35 0.05 0  0.375 0.05 0  0.4 0.05 0  0.425 0.05 0  0.45 0.05 0  0.475 0.05 0  0.5 0.05 0  0.525 0.05 0  0.55 0.05 0  0.575 0.05 0  0.6 0.05 0  0.625 0.05 0  0.65 0.05 0  0.675 0.05 0  0.7 0.05 0  0.725 0.05 0  0.75 0.05 0  0.775 0.05 0  0.8 0.05 0  0.825 0.05 0  0.85 0.05 0  0.875 0.05 0  0.9 0.05 0  0.925 0.05 0  0.95 0.05 0  0.975 0.05 0  1 0.05 0  0 0.075 0  0.025 0.075 0  0.05 0.075 0  0.075 0.075 0  0.1 0.075 0  0.125 0.075 0  0.15 0.075 0  0.175 0.075 0  0.2 0.075 0  0.225 0.075 0  0.25 0.075 0  0.275 0.075 0  0.3 0.075 0  0.325 0.075 0  0.35 0.075 0  0.375 0.075 0  0.4 0.075 0  0.425 0.075 0  0.45 0.075 0  0.475 0.075 0  0.5 0.075 0  0.525 0.075 0  0.55 0.075 0  0.575 0.075 0  0.6 0.075 0  0.625 0.075 0  0.65 0.075 0  0.675 0.075 0  0.7 0.075 0  0.725 0.075 0  0.75 0.075 0  0.775 0.075 0  0.8 0.075 0  0.825 0.075 0  0.85 0.075 0  0.875 0.075 0  0.9 0.075 0  0.925 0.075 0  0.95 0.075 0  0.975 0.075 0  1 0.075 0  0 0.1 0  0.025 0.1 0  0.05 0.1 0  0.075 0.1 0  0.1 0.1 0  0.125 0.1 0  0.15 0.1 0  0.175 0.1 0  0.2 0.1 0  0.225 0.1 0  0.25 0.1 0  0.275 0.1 0  0.3 0.1 0  0.325 0.1 0  0.35 0.1 0  0.375 0.1 0  0.4 0.1 0  0.425 0.1 0  0.45 0.1 0  0.475 0.1 0  0.5 0.1 0  0.525 0.1 0  0.55 0.1 0  0.575 0.1 0  0.6 0.1 0  0.625 0.1 0  0.65 0.1 0  0.675 0.1 0  0.7 0.1 0  0.725 0.1 0  0.75 0.1 0  0.775 0.1 0  0.8 0.1 0  0.825 0.1 0  0.85 0.1 0  0.875 0.1 0  0.9 0.1 0  0.925 0.1 0  0.95 0.1 0  0.975 0.1 0  1 0.1 0  0 0.125 0  0.025 0.125 0  0.05 0.125 0  0.075 0.125 0  0.1 0.125 0  0.125 0.125 0  0.15 0.125 0  0.175 0.125 0  0.2 0.125 0  0.225 0.125 0  0.25 0.125 0  0.275 0.125 0  0.3 0.125 0  0.325 0.125 0  0.35 0.125 0  0.375 0.125 0  0.4 0.125 0  0.425 0.125 0  0.45 0.125 0  0.475 0.125 0  0.5 0.125 0  0.525 0.125 0  0.55 0.125 0  0.575 0.125 0  0.6 0.125 0  0.625 0.125 0  0.65 0.125 0  0.675 0.125 0  0.7 0.125 0  0.725 0.125 0  0.75 0.125 0  0.775 0.125 0  0.8 0.125 0  0.825 0.125 0  0.85 0.125 0  0.875 0.125 0  0.9 0.125 0  0.925 0.125 0  0.95 0.125 0  0.975 0.125 0  1 0.125 0  0 0.15 0  0.025 0.15 0  0.05 0.15 0  0.075 0.15 0  0.1 0.15 0  0.125 0.15 0  0.15 0.15 0  0.175 0.15 0  0.2 0.15 0  0.225 0.15 0  0.25 0.15 0  0.275 0.15 0  0.3 0.15 0  0.325 0.15 0  0.35 0.15 0  0.375 0.15 0  0.4 0.15 0  0.425 0.15 0  0.45 0.15 0  0.475 0.15 0  0.5 0.15 0  0.525 0.15 0  0.55 0.15 0  0.575 0.15 0  0.6 0.15 0  0.625 0.15 0  0.65 0.15 0  0.675 0.15 0  0.7 0.15 0  0.725 0.15 0  0.75 0.15 0  0.775 0.15 0  0.8 0.15 0  0.825 0.15 0  0.85 0.15 0  0.875 0.15 0  0.9 0.15 0  0.925 0.15 0  0.95 0.15 0  0.975 0.15 0  1 0.15 0  0 0.175 0  0.025 0.175 0  0.05 0.175 0  0.075 0.175 0  0.1 0.175 0  0.125 0.175 0  0.15 0.175 0  0.175 0.175 0  0.2 0.175 0  0.225 0.175 0  0.25 0.175 0  0.275 0.175 0  0.3 0.175 0  0.325 0.175 0  0.35 0.175 0  0.375 0.175 0  0.4 0.175 0  0.425 0.175 0  0.45 0.175 0  0.475 0.175 0  0.5 0.175 0  0.525 0.175 0  0.55 0.175 0  0.575 0.175 0  0.6 0.175 0  0.625 0.175 0  0.65 0.175 0  0.675 0.175 0  0.7 0.175 0  0.725 0.175 0  0.75 0.175 0  0.775 0.175 0  0.8 0.175 0  0.825 0.175 0  0.85 0.175 0  0.875 0.175 0  0.9 0.175 0  0.925 0.175 0  0.95 0.175 0  0.975 0.175 0  1 0.175 0  0 0.2 0  0.025 0.2 0  0.05 0.2 0  0.075 0.2 0  0.1 0.2 0  0.125 0.2 0  0.15 0.2 0  0.175 0.2 0  0.2 0.2 0  0.225 0.2 0  0.25 0.2 0  0.275 0.2 0  0.3 0.2 0  0.325 0.2 0  0.35 0.2 0  0.375 0.2 0  0.4 0.2 0  0.425 0.2 0  0.45 0.2 0  0.475 0.2 0  0.5 0.2 0  0.525 0.2 0  0.55 0.2 0  0.575 0.2 0  0.6 0.2 0  0.625 0.2 0  0.65 0.2 0  0.675 0.2 0  0.7 0.2 0  0.725 0.2 0  0.75 0.2 0  0.775 0.2 0  0.8 0.2 0  0.825 0.2 0  0.85 0.2 0  0.875 0.2 0  0.9 0.2 0  0.925 0.2 0  0.95 0.2 0  0.975 0.2 0  1 0.2 0  0 0.225 0  0.025 0.225 0  0.05 0.225 0  0.075 0.225 0  0.1 0.225 0  0.125 0.225 0  0.15 0.225 0  0.175 0.225 0  0.2 0.225 0  0.225 0.225 0  0.25 0.225 0  0.275 0.225 0  0.3 0.225 0  0.325 0.225 0  0.35 0.225 0  0.375 0.225 0  0.4 0.225 0  0.425 0.225 0  0.45 0.225 0  0.475 0.225 0  0.5 0.225 0  0.525 0.225 0  0.55 0.225 0  0.575 0.225 0  0.6 0.225 0  0.625 0.225 0  0.65 0.225 0  0.675 0.225 0  0.7 0.225 0  0.725 0.225 0  0.75 0.225 0  0.775 0.225 0  0.8 0.225 0  0.825 0.225 0  0.85 0.225 0  0.875 0.225 0  0.9 0.225 0  0.925 0.225 0  0.95 0.225 0  0.975 0.225 0  1 0.225 0  0 0.25 0  0.025 0.25 0  0.05 0.25 0  0.075 0.25 0  0.1 0.25 0  0.125 0.25 0  0.15 0.25 0  0.175 0.25 0  0.2 0.25 0  0.225 0.25 0  0.25 0.25 0  0.275 0.25 0  0.3 0.25 0  0.325 0.25 0  0.35 0.25 0  0.375 0.25 0  0.4 0.25 0  0.425 0.25 0  0.45 0.25 0  0.475 0.25 0  0.5 0.25 0  0.525 0.25 0  0.55 0.25 0  0.575 0.25 0  0.6 0.25 0  0.625 0.25 0  0.65 0.25 0  0.675 0.25 0  0.7 0.25 0  0.725 0.25 0  0.75 0.25 0  0.775 0.25 0  0.8 0.25 0  0.825 0.25 0  0.85 0.25 0  0.875 0.25 0  0.9 0.25 0  0.925 0.25 0  0.95 0.25 0  0.975 0.25 0  1 0.25 0  0 0.275 0  0.025 0.275 0  0.05 0.275 0  0.075 0.275 0  0.1 0.275 0  0.125 0.275 0  0.15 0.275 0  0.175 0.275 0  0.2 0.275 0  0.225 0.275 0  0.25 0.275 0  0.275 0.275 0  0.3 0.275 0  0.325 0.275 0  0.35 0.275 0  0.375 0.275 0  0.4 0.275 0  0.425 0.275 0  0.45 0.275 0  0.475 0.275 0  0.5 0.275 0  0.525 0.275 0  0.55 0.275 0  0.575 0.275 0  0.6 0.275 0  0.625 0.275 0  0.65 0.275 0  0.675 0.275 0  0.7 0.275 0  0.725 0.275 0  0.75 0.275 0  0.775 0.275 0  0.8 0.275 0  0.825 0.275 0  0.85 0.275 0  0.875 0.275 0  0.9 0.275 0  0.925 0.275 0  0.95 0.275 0  0.975 0.275 0  1 0.275 0  0 0.3 0  0.025 0.3 0  0.05 0.3 0  0.075 0.3 0  0.1 0.3 0  0.125 0.3 0  0.15 0.3 0  0.175 0.3 0  0.2 0.3 0  0.225 0.3 0  0.25 0.3 0  0.275 0.3 0  0.3 0.3 0  0.325 0.3 0  0.35 0.3 0  0.375 0.3 0  0.4 0.3 0  0.425 0.3 0  0.45 0.3 0  0.475 0.3 0  0.5 0.3 0  0.525 0.3 0  0.55 0.3 0  0.575 0.3 0  0.6 0.3 0  0.625 0.3 0  0.65 0.3 0  0.675 0.3 0  0.7 0.3 0  0.725 0.3 0  0.75 0.3 0  0.775 0.3 0  0.8 0.3 0  0.825 0.3 0  0.85 0.3 0  0.875 0.3 0  0.9 0.3 0  0.925 0.3 0  0.95 0.3 0  0.975 0.3 0  1 0.3 0  0 0.325 0  0.025 0.325 0  0.05 0.325 0  0.075 0.325 0  0.1 0.325 0  0.125 0.325 0  0.15 0.325 0  0.175 0.325 0  0.2 0.325 0  0.225 0.325 0  0.25 0.325 0  0.275 0.325 0  0.3 0.325 0  0.325 0.325 0  0.35 0.325 0  0.375 0.325 0  0.4 0.325 0  0.425 0.325 0  0.45 0.325 0  0.475 0.325 0  0.5 0.325 0  0.525 0.325 0  0.55 0.325 0  0.575 0.325 0  0.6 0.325 0  0.625 0.325 0  0.65 0.325 0  0.675 0.325 0  0.7 0.325 0  0.725 0.325 0  0.75 0.325 0  0.775 0.325 0  0.8 0.325 0  0.825 0.325 0  0.85 0.325 0  0.875 0.325 0  0.9 0.325 0  0.925 0.325 0  0.95 0.325 0  0.975 0.325 0  1 0.325 0  0 0.35 0  0.025 0.35 0  0.05 0.35 0  0.075 0.35 0  0.1 0.35 0  0.125 0.35 0  0.15 0.35 0  0.175 0.35 0  0.2 0.35 0  0.225 0.35 0  0.25 0.35 0  0.275 0.35 0  0.3 0.35 0  0.325 0.35 0  0.35 0.35 0  0.375 0.35 0  0.4 0.35 0  0.425 0.35 0  0.45 0.35 0  0.475 0.35 0  0.5 0.35 0  0.525 0.35 0  0.55 0.35 0  0.575 0.35 0  0.6 0.35 0  0.625 0.35 0  0.65 0.35 0  0.675 0.35 0  0.7 0.35 0  0.725 0.35 0  0.75 0.35 0  0.775 0.35 0  0.8 0.35 0  0.825 0.35 0  0.85 0.35 0  0.875 0.35 0  0.9 0.35 0  0.925 0.35 0  0.95 0.35 0  0.975 0.35 0  1 0.35 0  0 0.375 0  0.025 0.375 0  0.05 0.375 0  0.075 0.375 0  0.1 0.375 0  0.125 0.375 0  0.15 0.375 0  0.175 0.375 0  0.2 0.375 0  0.225 0.375 0  0.25 0.375 0  0.275 0.375 0  0.3 0.375 0  0.325 0.375 0  0.35 0.375 0  0.375 0.375 0  0.4 0.375 0  0.425 0.375 0  0.45 0.375 0  0.475 0.375 0  0.5 0.375 0  0.525 0.375 0  0.55 0.375 0  0.575 0.375 0  0.6 0.375 0  0.625 0.375 0  0.65 0.375 0  0.675 0.375 0  0.7 0.375 0  0.725 0.375 0  0.75 0.375 0  0.775 0.375 0  0.8 0.375 0  0.825 0.375 0  0.85 0.375 0  0.875 0.375 0  0.9 0.375 0  0.925 0.375 0  0.95 0.375 0  0.975 0.375 0  1 0.375 0  0 0.4 0  0.025 0.4 0  0.05 0.4 0  0.075 0.4 0  0.1 0.4 0  0.125 0.4 0  0.15 0.4 0  0.175 0.4 0  0.2 0.4 0  0.225 0.4 0  0.25 0.4 0  0.275 0.4 0  0.3 0.4 0  0.325 0.4 0  0.35 0.4 0  0.375 0.4 0  0.4 0.4 0  0.425 0.4 0  0.45 0.4 0  0.475 0.4 0  0.5 0.4 0  0.525 0.4 0  0.55 0.4 0  0.575 0.4 0  0.6 0.4 0  0.625 0.4 0  0.65 0.4 0  0.675 0.4 0  0.7 0.4 0  0.725 0.4 0  0.75 0.4 0  0.775 0.4 0  0.8 0.4 0  0.825 0.4 0  0.85 0.4 0  0.875 0.4 0  0.9 0.4 0  0.925 0.4 0  0.95 0.4 0  0.975 0.4 0  1 0.4 0  0 0.425 0  0.025 0.425 0  0.05 0.425 0  0.075 0.425 0  0.1 0.425 0  0.125 0.425 0  0.15 0.425 0  0.175 0.425 0  0.2 0.425 0  0.225 0.425 0  0.25 0.425 0  0.275 0.425 0  0.3 0.425 0  0.325 0.425 0  0.35 0.425 0  0.375 0.425 0  0.4 0.425 0  0.425 0.425 0  0.45 0.425 0  0.475 0.425 0  0.5 0.425 0  0.525 0.425 0  0.55 0.425 0  0.575 0.425 0  0.6 0.425 0  0.625 0.425 0  0.65 0.425 0  0.675 0.425 0  0.7 0.425 0  0.725 0.425 0  0.75 0.425 0  0.775 0.425 0  0.8 0.425 0  0.825 0.425 0  0.85 0.425 0  0.875 0.425 0  0.9 0.425 0  0.925 0.425 0  0.95 0.425 0  0.975 0.425 0  1 0.425 0  0 0.45 0  0.02
[...]
<PointData  Scalars="ControlVisualisation"> 
<DataArray  type="Float64"  Name="ControlVisualisation"  format="ascii">2.5853725511212583e-01  2.4055238543510929e-01  2.4063640047568724e-01  2.4082120277210245e-01  2.4106764549001372e-01  2.4132759680544766e-01  2.4156497688014689e-01  2.4175994120204208e-01  2.4190622089641459e-01  2.4200607999301324e-01  2.4206585957284543e-01  2.4209301930998553e-01  2.4209456404062743e-01  2.4207639919920840e-01  2.4204320294103526e-01  2.4199854020424533e-01  2.4194506305192712e-01  2.4188472016460780e-01  2.4181894306286128e-01  2.4174879941084210e-01  2.4167511408474623e-01  2.4159856253162482e-01  2.4151974168191287e-01  2.4143922313100938e-01  2.4135759229305356e-01  2.4127547621320936e-01  2.4119356183460733e-01  2.4111260583986127e-01  2.4103343669708255e-01  2.4095694930136433e-01  2.4088409252184781e-01  2.4081585005197395e-01  2.4075321531334096e-01  2.4069716135637109e-01  2.4064860826469053e-01  2.4060839474606532e-01  2.4057727791046107e-01  2.4055596804072063e-01  2.4054501679949375e-01  2.4054284785202762e-01  2.7700541750469349e-01  2.4055202377375037e-01  1.8949923956146075e-01  1.9035683107370860e-01  1.9194575516419404e-01  1.9404703059958073e-01  1.9628614172190642e-01  1.9835521745106716e-01  2.0007785368224482e-01  2.0139147348184541e-01  2.0230763559397683e-01  2.0287517647193701e-01  2.0315492563271378e-01  2.0320568415372786e-01  2.0307804272415569e-01  2.0281274272809863e-01  2.0244127857184058e-01  2.0198738520274256e-01  2.0146870850415485e-01  2.0089834317201308e-01  2.0028612795196196e-01  1.9963968618296662e-01  1.9896523951426184e-01  1.9826823387668391e-01  1.9755381484031120e-01  1.9682718277918929e-01  1.9609385031037890e-01  1.9535981741325656e-01  1.9463167394405645e-01  1.9391663503393783e-01  1.9322251260829870e-01  1.9255762539645566e-01  1.9193065054145583e-01  1.9135042252409792e-01  1.9082568768415475e-01  1.9036483418882166e-01  1.8997562995107661e-01  1.8966500884681675e-01  1.8943875084733985e-01  1.8929908785852062e-01  1.8923545447815038e-01  2.4054284649373553e-01  2.4064149942671462e-01  1.9045475744099000e-01  1.9264922738808843e-01  1.9569768613978866e-01  1.9947286375946205e-01  2.0341822476841187e-01  2.0702361188613846e-01  2.1000010130348754e-01  2.1225311324353360e-01  2.1381111615740916e-01  2.1476221679759885e-01  2.1521250795705771e-01  2.1526346403670152e-01  2.1500213300379833e-01  2.1449865182605768e-01  2.1380736455397273e-01  2.1296936542944966e-01  2.1201533406050069e-01  2.1096814863087451e-01  2.0984509483975744e-01  2.0865964852289737e-01  2.0742287649933669e-01  2.0614451961585684e-01  2.0483381939162984e-01  2.0350013879919610e-01  2.0215341480936222e-01  2.0080446836993074e-01  1.9946518797902171e-01  1.9814859590798567e-01  1.9686880221227862e-01  1.9564085038644141e-01  1.9448045989478485e-01  1.9340367541459480e-01  1.9242643759435513e-01  1.9156410204752064e-01  1.9083089739251385e-01  1.9023915397093824e-01  1.8979676692290334e-01  1.8949653268300048e-01  1.8929935835455869e-01  2.4054500792873343e-01  2.4088587039899237e-01  1.9268662270957757e-01  1.9685520796048242e-01  2.0071512681559728e-01  2.0482250562530691e-01  2.0886684380448603e-01  2.1241888311042909e-01  2.1525167168522100e-01  2.1731890834453294e-01  2.1867924882205905e-01  2.1943574254644591e-01  2.1969982639275731e-01  2.1957332535002830e-01  2.1914153111415707e-01  2.1847224133507176e-01  2.1761757244476090e-01  2.1661676210304159e-01  2.1549906124070053e-01  2.1428632361421820e-01  2.1299516842669777e-01  2.1163871821951194e-01  2.1022796487419745e-01  2.0877282870248187e-01  2.0728297031375059e-01  2.0576840290236731e-01  2.0423993966069756e-01  2.0270949913458441e-01  2.0119028185565790e-01  1.9969682493689161e-01  1.9824493756073580e-01  1.9685151952099111e-01  1.9553426700952672e-01  1.9431127488094863e-01  1.9320054747452459e-01  1.9221942505452433e-01  1.9138380872416882e-01  1.9070646843772251e-01  1.9019042857105101e-01  1.8980300823327487e-01  1.8944161644999621e-01  2.4055604123108984e-01  2.4136779078654946e-01  1.9697424890976759e-01  2.0474211124520597e-01  2.0921348326857409e-01  2.1271460608949283e-01  2.1574419951992088e-01  2.1820671057284508e-01  2.2003083092594711e-01  2.2123828399143394e-01  2.2190329270654061e-01  2.2211657284528172e-01  2.2196570615037087e-01  2.2152649515615269e-01  2.2086054390324927e-01  2.2001592779302873e-01  2.1902917050824511e-01  2.1792757537885424e-01  2.1673145121788079e-01  2.1545604733683740e-01  2.1411315404436448e-01  2.1271239033281167e-01  2.1126222415042045e-01  2.0977077356300100e-01  2.0824643039881841e-01  2.0669833797469822e-01  2.0513674417677433e-01  2.0357324197103924e-01  2.0202090215083357e-01  2.0049429807302108e-01  1.9900941972812144e-01  1.9758347453733932e-01  1.9623457503874500e-01  1.9498131852569772e-01  1.9384226224979673e-01  1.9283527002944947e-01  1.9197645696376042e-01  1.9127724226884893e-01  1.9073183557842335e-01  1.9026736509529812e-01  1.8967781922621793e-01  2.4057794468442156e-01  2.4217608508241339e-01  2.0580377063308683e-01  2.1977407115068875e-01  2.2396432858022874e-01  2.2506617574132057e-01  2.2554743068573921e-01  2.2579548704272812e-01  2.2582749807751162e-01  2.2564153855282987e-01  2.2525222764635883e-01  2.2468390512888778e-01  2.2396308591025929e-01  2.2311422800052749e-01  2.2215796290223311e-01  2.2111074072215542e-01  2.1998521113635189e-01  2.1879092322284902e-01  2.1753511274750584e-01  2.1622346045506496e-01  2.1486077222350281e-01  2.1345156761696998e-01  2.1200058018758317e-01  2.1051317847457882e-01  2.0899571621112739e-01  2.0745581694571785e-01  2.0590259393438096e-01  2.0434680154042043e-01  2.0280091060977989e-01  2.0127909775251238e-01  1.9979713756985368e-01  1.9837218830547892e-01  1.9702246477868091e-01  1.9576679739989500e-01  1.9462407029990053e-01  1.9361247631641568e-01  1.9274811571969136e-01  1.9204039949170892e-01  1.9147145307474350e-01  1.9091295107086739e-01  1.9001413377613258e-01  2.4061096496186152e-01  2.4672538530630067e-01  2.2818412100820221e-01  2.4981697090239399e-01  2.4869597228276544e-01  2.4334509920552683e-01  2.3878589926133206e-01  2.3536807361236742e-01  2.3277158277056659e-01  2.3070756844924606e-01  2.2898017479038363e-01  2.2746246984651636e-01  2.2607215613939052e-01  2.2475527884056612e-01  2.2347589591928704e-01  2.2220962974114000e-01  2.2093967042464863e-01  2.1965431174023706e-01  2.1834544576156234e-01  2.1700765936573257e-01  2.1563771154570513e-01  2.1423425363842594e-01  2.1279770536804649e-01  2.1133022990587685e-01  2.0983576877449697e-01  2.0832010710928967e-01  2.0679094472105861e-01  2.0525795039093087e-01  2.0373277737362874e-01  2.0222901852197517e-01  2.0076208034026830e-01  1.9934895790364807e-01  1.9800789683234635e-01  1.9675793349586335e-01  1.9561829383005969e-01  1.9460754043717418e-01  1.9374173300862299e-01  1.9302768330991521e-01  1.9243185842501573e-01  1.9175431028394221e-01  1.9045652677780683e-01  2.4065556662759233e-01  2.8383783169491789e-01  2.9054032789199546e-01  3.0412032036192976e-01  2.8542617541049398e-01  2.6746967044925779e-01  2.5485817266353161e-01  2.4631262849972921e-01  2.4038090379222127e-01  2.3609905173803489e-01  2.3287323617262595e-01  2.3033358630244896e-01  2.2824405396753719e-01  2.2645025480493050e-01  2.2484894048791992e-01  2.2336972406999051e-01  2.2196386663693224e-01  2.2059724523282748e-01  2.1924586397699114e-01  2.1789295218057703e-01  2.1652707693214057e-01  2.1514091864279639e-01  2.1373048790659371e-01  2.1229463961201328e-01  2.1083478716631068e-01  2.0935474804156085e-01  2.0786066867231556e-01  2.0636098643393347e-01  2.0486639197750173e-01  2.0338975834562639e-01  2.0194600595143292e-01  2.0055187604010133e-01  1.9922558996013265e-01  1.9798637629631083e-01  1.9685382984006533e-01  1.9584692826248498e-01  1.9498163265113772e-01  1.9426141818174816e-01  1.9363310072859619e-01  1.9280776209185008e-01  1.9101316228437756e-01  2.4071254211884704e-01  3.7579997174444035e-01  4.0597690137091463e-01  3.7442021602459230e-01  3.2839637665907595e-01  2.9396331598491604e-01  2.7156559748287373e-01  2.5721713316191819e-01  2.4773837354962583e-01  2.4121601862095435e-01  2.3653720261641359e-01  2.3303821798605046e-01  2.3030964151121017e-01  2.2809042273193472e-01  2.2620924924426239e-01  2.2455095929662200e-01  2.2303662241529251e-01  2.2161134806872049e-01  2.2023661777915168e-01  2.1888535554697719e-01  2.1753870889476978e-01  2.1618392963759714e-01  2.1481297989938763e-01  2.1342162586258301e-01  2.1200886350789683e-01  2.1057656949182155e-01  2.0912929988248968e-01  2.0767417675072364e-01  2.0622081271450510e-01  2.0478122909596341e-01  2.0336972697389802e-01  2.0200267423921198e-01  2.0069817614372706e-01  1.9947560007952619e-01  1.9835489645010423e-01  1.9735545715756064e-01  1.9649301064185681e-01  1.9576678068943254e-01  1.9509943815170433e-01  1.9409412727423828e-01  1.9169480767782504e-01  2.4078298355146596e-01  4.3885662680453780e-01  4.9288884632528912e-01  4.2745139360809359e-01  3.6411861933712569e-01  3.1619305483029914e-01  2.8539108818764525e-01  2.6610341683425476e-01  2.5367591643142962e-01  2.4534181722041462e-01  2.3951799794548431e-01  2.3528107100378373e-01  2.3207295003877415e-01  2.2954377708667562e-01  2.2746702242755151e-01  2.2569194637706413e-01  2.2411599223047979e-01  2.2266817822197460e-01  2.2129878613125697e-01  2.1997278765686953e-01  2.1866556740057452e-01  2.1736010320707455e-01  2.1604509861876914e-01  2.1471375314928698e-01  2.1336296778260286e-01  2.1199284969921794e-01  2.1060642014003758e-01  2.0920945275141770e-01  2.0781038295666310e-01  2.0642023591419439e-01  2.0505252425421147e-01  2.0372306957250963e-01  2.0244970457644212e-01  2.0125181256442740e-01  2.0014961630354919e-01  1.9916284806447093e-01  1.9830676924140811e-01  1.9757521591538194e-01  1.9686156421225434e-01  1.9563994117296146e-01  1.9251524252887647e-01  2.4086829843558835e-01  4.5593362326100717e-01  5.1838198318879158e-01  4.4794819784924123e-01  3.8152128364724786e-01  3.2773125300555322e-01  2.9287378113984319e-01  2.7106224858998346e-01  2.5710069528199503e-01  2.4782322141702842e-01  2.4140860023045532e-01  2.3679913481876116e-01  2.3335870965629080e-01  2.3069054016423382e-01  2.2853874678911851e-01  2.2673354839538107e-01  2.2515963284437002e-01  2.2373723044352445e-01  2.2241041089112618e-01  2.2113963949040627e-01  2.1989693496541127e-01  2.1866267073428211e-01  2.1742344708817923e-01  2.1617068113465618e-01  2.1489968893540243e-01  2.1360911022015044e-01  2.1230057142096923e-01  2.1097850924333605e-01  2.0965009147549699e-01  2.0832517862822014e-01  2.0701627236727838e-01  2.0573839710280145e-01  2.0450886059886458e-01  2.0334683317141122e-01  2.0227261790764067e-01  2.0130610164644736e-01  2.0046169903260710e-01  1.9972641642226821e-01  1.9895831511932779e-01  1.9747875698610243e-01  1.9349187140541693e-01  2.4097026839410768e-01  4.3395038040549905e-01  5.0052605616527557e-01  4.3540530906606029e-01  3.7600738427332414e-01  3.2545010841011190e-01  2.9211605654164152e-01  2.7098789522091560e-01  2.5736026051594019e-01  2.4825897980102543e-01  2.4195152011858637e-01  2.3742044308318883e-01  2.3404804127757872e-01  2.3144616131152024e-01  2.2936289075615054e-01  2.2763016818955564e-01  2.2613329497136170e-01  2.2479256119456967e-01  2.2355181086021467e-01  2.2237112319002722e-01  2.2122202209353689e-01  2.2008429112574091e-01  2.1894384084354801e-01  2.1779128669522219e-01  2.1662101942522358e-01  2.1543062393551288e-01  2.1422054703027116e-01  2.1299394023538654e-01  2.1175661750499269e-01  2.1051707299501174e-01  2.0928650383598776e-01  2.0807877955794976e-01  2.0691029369586966e-01  2.0579961690846843e-01  2.0476677215837688e-01  2.0383143776696452e-01  2.0300657732636343e-01  2.0227048738385039e-01  2.0143873953206209e-01  1.9965285265875765e-01  1.9464657378646052e-01  2.4109113464873702e-01  3.5523997760455100e-01  4.3100726840119352e-01  3.9257232770948647e-01  3.4944701557746155e-01  3.1028799107348831e-01  2.8348305241181393e-01  2.6600069899819789e-01  2.5446794171061898e-01  2.4662144260249214e-01  2.4110649594531661e-01  2.3710342435717430e-01  2.3410247873203921e-01  2.3177669138693466e-01  2.2991017842106010e-01  2.2835687022821646e-01  2.2701590396800919e-01  2.2581648720063582e-01  2.2470830491852808e-01  2.2365528091540998e-01  2.2263143633229013e-01  2.2161810173757221e-01  2.2060203010984680e-01  2.1957412773509022e-01  2.1852862128549452e-01  2.1746254094117062e-01  2.1637543692191180e-01  2.1526926869633700e-01  2.1414841706871740e-01  2.1301977231751298e-01  2.1189284820627940e-01  2.1077986358095652e-01  2.0969571956553984e-01  2.0865776957813847e-01  2.0768513618060178e-01  2.0679664182024823e-01  2.0600283866501523e-01  2.0527079284425784e-01  2.0436486922051167e-01  2.0221552833845347e-01  1.9600684324766909e-01  2.4123371185384354e-01  2.6711050508801243e-01  3.1468340027862934e-01  3.3107430071081950e-01  3.1048943313265076e-01  2.8695018049831988e-01  2.6943319051496151e-01  2.5737121527824897e-01  2.4908247716074775e-01  2.4325747555147373e-01  2.3905738237280216e-01  2.3594477268824160e-01  2.3357110729514843e-01  2.3170476268827817e-01  2.3018842819596971e-01  2.2891322082194299e-01  2.2780256364067028e-01  2.2680189864588851e-01  2.2587195605980229e-01  2.2498425766512500e-01  2.2411806227000641e-01  2.2325826879832289e-01  2.2239397353535012e-01  2.2151748738726235e-01  2.2062368701890661e-01  2.1970961621554055e-01  2.1877428079514813e-01  2.1781859640689036e-01  2.1684545626605506e-01  2.1585988664790601e-01  2.1486925213300256e-01  2.1388346005579861e-01  2.1291509130698105e-01  2.1197933428376828e-01  2.1109339363161572e-01  2.1027413173000389e-01  2.0952815620200563e-01  2.0880782520293434e-01  2.0781549141899378e-01  2.0523420559701816e-01  1.9760730534579635e-01  2.4140153837712158e-01  2.4482581128330527e-01  2.3814755927026721e-01  2.7322077668099137e-01  2.7153745575345062e-01  2.6202825811928626e-01  2.5347383352423986e-01  2.4699530084252602e-01  2.4225962651750732e-01  2.3877105188677297e-01  2.3615717639860290e-01  2.3415417493416291e-01  2.3257945142759481e-01  2.3130525835457891e-01  2.3024142018339638e-01  2.2932359162540170e-01  2.2850542301107069e-01  2.2775325707439747e-01  2.2704248969846749e-01  2.2635504127423992e-01  2.2567758110053543e-01  2.2500027336469766e-01  2.2431589286605463e-01  2.2361921007645225e-01  2.2290657951583073e-01  2.2217568830704368e-01  2.2142543744223883e-01  2.2065593842176373e-01  2.1986861312369038e-01  2.1906638506901732e-01  2.1825394422111855e-01  2.1743805375241654e-01  2.1662783785046674e-01  2.1583491517854433e-01  2.1507295566925425e-01  2.1435502445980317e-01  2.1368131865870046e-01  2.1298454311672768e-01  2.1189134455362835e-01  2.0879463775507373e-01  1.9949174812767378e-01  2.4159907522402133e-01  2.4262203749558459e-01  2.1294896236742616e-01  2.3678163058727855e-01  2.4195112376921712e-01  2.4080762869254035e-01  2.3864353945993541e-01  2.3667772033612786e-01  2.3509917870299121e-01  2.3384485125789201e-01  2.3283662296080124e-01  2.3200686799699285e-01  2.3130476460823954e-01  2.3069254226933161e-01  2.3014245798508234e-01  2.2963408857600620e-01  2.2915237520644496e-01  2.2868618959563777e-01  2.2822729663057856e-01  2.2776959892696153e-01  2.2730858214789312e-01  2.2684090469038570e-01  2.2636409315188005e-01  2.2587631804311176e-01  2.2537623392257328e-01  2.2486287594365773e-01  2.2433561111137262e-01  2.2379414819909388e-01  2.2323861457152394e-01  2.2266971064917190e-01  2.2208895136444831e-01  2.2149899570692336e-01  2.2090403411417037e-01  2.2031010939160039e-01  2.1972485862856289e-01  2.1915454435920989e-01  2.1858894411668320e-01  2.1793383854423132e-01  2.1672236807207609e-01  2.1300668031389033e-01  2.0171584972164489e-01  2.4183196952155653e-01  2.4184327261958563e-01  2.0313838409923690e-01  2.1735636811193881e-01  2.2274035726724514e-01  2.2506649199831849e-01  2.2652277329059153e-01  2.2762094137958605e-01  2.2846265800488524e-01  2.2908220230635493e-01  2.2951435492690625e-01  2.2979211799865767e-01  2.2994636044690542e-01  2.3000332887071573e-01  2.2998449864502063e-01  2.2990691099461852e-01  2.2978388219384568e-01  2.2962573790263144e-01  2.2944047989647220e-01  2.2923433621035305e-01  2.2901218943664542e-01  2.2877789301693729e-01  2.2853449090317723e-01  2.2828435663830643e-01  2.2802926674606061e-01  2.2777042253823673e-01  2.2750843467734660e-01  2.2724328727690463e-01  2.2697430293304610e-01  2.2670013718673471e-01  2.2641884032333320e-01  2.2612802929041373e-01  2.2582519655251923e-01  2.2550808837242547e-01  2.2517456426089688e-01  2.2481922070807803e-01  2.2441481706493074e-01  2.2382914154820702e-01  2.2247798071463359e-01  2.1801228733346215e-01  2.0435085467760344e-01  2.4210740236700240e-01  2.4127639833362355e-01  1.9714464906554641e-01  2.0575787294292450e-01  2.1045552760986855e-01  2.1407067352077833e-01  2.1738039389813404e-01  2.2035190872852756e-01  2.2287533645504179e-01  2.2492627405246157e-01  2.2653866137548279e-01  2.2777373832371156e-01  2.2869954830738470e-01  2.2937971113326844e-01  2.2986919109468326e-01  2.3021331226819186e-01  2.3044847583690334e-01  2.3060348878973874e-01  2.3070100977772703e-01  2.3075886757624828e-01  2.3079116294853522e-01  2.3080913523408333e-01  2.3082180670649846e-01  2.3083642795640788e-01  2.3085874760798739e-01  2.3089312602665538e-01  2.3094250881950848e-01  2.3100827458255552e-01  2.3108997476395279e-01  2.3118499501727310e-01  2.3128818878758065e-01  2.3139156215226570e-01  2.3148411946261027e-01  2.3155189219413763e-01  2.3157754545761142e-01  2.3153628800621578e-01  2.3137294411723763e-01  2.3089977789428484e-01  2.2938196032855951e-01  2.2399671683554317e-01  2.0748852231289877e-01  2.4243454307544912e-01  2.4091555325905978e-01  1.9343804063917758e-01  1.9862018889740632e-01  2.0258826554255988e-01  2.0665824992861462e-01  2.1089904560467931e-01  2.1496426568091395e-01  2.1858912422601640e-01  2.2166004569251321e-01  2.2416945599943713e-01  2.2616982957468867e-01  2.2773816900415114e-01  2.2895553422674977e-01  2.2989674799670040e-01  2.3062627691683815e-01  2.3119755248968199e-01  2.3165390798846985e-01  2.3203013968838285e-01  2.3235415939879298e-01  2.3264849098628684e-01  2.3293151226649894e-01  2.3321841792326342e-01  2.3352190962388067e-01  2.3385262712597560e-01  2.3421932989700697e-01  2.3462882976290492e-01  2.3508566617113136e-01  2.3559151075484966e-01  2.3614429555581604e-01  2.3673708206383179e-01  2.3735674915949434e-01  2.3798265550499345e-01  2.3858538654395700e-01  2.3912515519176358e-01  2.3954592948143896e-01  2.3974621838549817e-01  2.3945368074453588e-01  2.3773434707939911e-01  2.3120442685728992e-01  2.1124780493639922e-01  2.4282513450791512e-01  2.4069034068412132e-01  1.9111929459397153e-01  1.9417174052035518e-01  1.9766498980838587e-01  2.0194996594529047e-01  2.0668619386153697e-01  2.1138715085536294e-01  2.1570221925385880e-01  2.1945188865930032e-01  2.2258933307541481e-01  2.2514925919541182e-01  2.2720606831057466e-01  2.2884711095813914e-01  2.3015760543981659e-01  2.3121364679324391e-01  2.3207996946652429e-01  2.3281020868654689e-01  2.3344828990044447e-01  2.3403017239358101e-01  2.3458555400391706e-01  2.3513935666041041e-01  2.3571292436210436e-01  2.3632491478299700e-01  2.3699188003039245e-01  2.3772852562140651e-01  2.3854761851963904e-01  2.3945949007554071e-01  2.4047105341657760e-01  2.4158423512105245e-01  2.4279371982233633e-01  2.4408396925221679e-01  2.4542554095569707e-01  2.4677087669464443e-01  2.4804918560930544e-01  2.4915541588178558e-01  2.4991114322807753e-01  2.4991051077189150e-01  2.4794502713017708e-01  2.3996265607620787e-01  2.1578368485711724e-01  2.4329416391229863e-01  2.4057434504453867e-01  1.8987080359229724e-01  1.9176272209921627e-01  1.9502804759125170e-01  1.9945846294139130e-01  2.0448449181133443e-01  2.0954937135975929e-01  2.1426068431789153e-01  2.184083266