<?xml version="1.0"?>
<VTKFile type="UnstructuredGrid"  version="0.1"  >
<UnstructuredGrid>
<Piece  NumberOfPoints="1681" NumberOfCells="3200">
<Points>
<DataArray  type="Float64"  NumberOfComponents="3"  format="ascii">0 0 0  0.025 0 0  0.05 0 0  0.075 0 0  0.1 0 0  0.125 0 0  0.15 0 0  0.175 0 0  0.2 0 0  0.225 0 0  0.25 0 0  0.275 0 0  0.3 0 0  0.325 0 0  0.35 0 0  0.375 0 0  0.4 0 0  0.425 0 0  0.45 0 0  0.475 0 0  0.5 0 0  0.525 0 0  0.55 0 0  0.575 0 0  0.6 0 0  0.625 0 0  0.65 0 0  0.675 0 0  0.7 0 0  0.725 0 0  0.75 0 0  0.775 0 0  0.8 0 0  0.825 0 0  0.85 0 0  0.875 0 0  0.9 0 0  0.925 0 0  0.95 0 0  0.975 0 0  1 0 0  0 0.025 0  0.025 0.025 0  0.05 0.025 0  0.075 0.025 0  0.1 0.025 0  0.125 0.025 0  0.15 0.025 0  0.175 0.025 0  0.2 0.025 0  0.225 0.025 0  0.25 0.025 0  0.275 0.025 0  0.3 0.025 0  0.325 0.025 0  0.35 0.025 0  0.375 0.025 0  0.4 0.025 0  0.425 0.025 0  0.45 0.025 0  0.475 0.025 0  0.5 0.025 0  0.525 0.025 0  0.55 0.025 0  0.575 0.025 0  0.6 0.025 0  0.625 0.025 0  0.65 0.025 0  0.675 0.025 0  0.7 0.025 0  0.725 0.025 0  0.75 0.025 0  0.775 0.025 0  0.8 0.025 0  0.825 0.025 0  0.85 0.025 0  0.875 0.025 0  0.9 0.025 0  0.925 0.025 0  0.95 0.025 0  0.975 0.025 0  1 0.025 0  0 0.05 0  0.025 0.05 0  0.05 0.05 0  0.075 0.05 0  0.1 0.05 0  0.125 0.05 0  0.15 0.05 0  0.175 0.05 0  0.2 0.05 0  0.225 0.05 0  0.25 0.05 0  0.275 0.05 0  0.3 0.05 0  0.325 0.05 0  0.35 0.05 0  0.375 0.05 0  0.4 0.05 0  0.425 0.05 0  0.45 0.05 0  0.475 0.05 0  0.5 0.05 0  0.525 0.05 0  0.55 0.05 0  0.575 0.05 0  0.6 0.05 0  0.625 0.05 0  0.65 0.05 0  0.675 0.05 0  0.7 0.05 0  0.725 0.05 0  0.75 0.05 0  0.775 0.05 0  0.8 0.05 0  0.825 0.05 0  0.85 0.05 0  0.875 0.05 0  0.9 0.05 0  0.925 0.05 0  0.95 0.05 0  0.975 0.05 0  1 0.05 0  0 0.075 0  0.025 0.075 0  0.05 0.075 0  0.075 0.075 0  0.1 0.075 0  0.125 0.075 0  0.15 0.075 0  0.175 0.075 0  0.2 0.075 0  0.225 0.075 0  0.25 0.075 0  0.275 0.075 0  0.3 0.075 0  0.325 0.075 0  0.35 0.075 0  0.375 0.075 0  0.4 0.075 0  0.425 0.075 0  0.45 0.075 0  0.475 0.075 0  0.5 0.075 0  0.525 0.075 0  0.55 0.075 0  0.575 0.075 0  0.6 0.075 0  0.625 0.075 0  0.65 0.075 0  0.675 0.075 0  0.7 0.075 0  0.725 0.075 0  0.75 0.075 0  0.775 0.075 0  0.8 0.075 0  0.825 0.075 0  0.85 0.075 0  0.875 0.075 0  0.9 0.075 0  0.925 0.075 0  0.95 0.075 0  0.975 0.075 0  1 0.075 0  0 0.1 0  0.025 0.1 0  0.05 0.1 0  0.075 0.1 0  0.1 0.1 0  0.125 0.1 0  0.15 0.1 0  0.175 0.1 0  0.2 0.1 0  0.225 0.1 0  0.25 0.1 0  0.275 0.1 0  0.3 0.1 0  0.325 0.1 0  0.35 0.1 0  0.375 0.1 0  0.4 0.1 0  0.425 0.1 0  0.45 0.1 0  0.475 0.1 0  0.5 0.1 0  0.525 0.1 0  0.55 0.1 0  0.575 0.1 0  0.6 0.1 0  0.625 0.1 0  0.65 0.1 0  0.675 0.1 0  0.7 0.1 0  0.725 0.1 0  0.75 0.1 0  0.775 0.1 0  0.8 0.1 0  0.825 0.1 0  0.85 0.1 0  0.875 0.1 0  0.9 0.1 0  0.925 0.1 0  0.95 0.1 0  0.975 0.1 0  1 0.1 0  0 0.125 0  0.025 0.125 0  0.05 0.125 0  0.075 0.125 0  0.1 0.125 0  0.125 0.125 0  0.15 0.125 0  0.175 0.125 0  0.2 0.125 0  0.225 0.125 0  0.25 0.125 0  0.275 0.125 0  0.3 0.125 0  0.325 0.125 0  0.35 0.125 0  0.375 0.125 0  0.4 0.125 0  0.425 0.125 0  0.45 0.125 0  0.475 0.125 0  0.5 0.125 0  0.525 0.125 0  0.55 0.125 0  0.575 0.125 0  0.6 0.125 0  0.625 0.125 0  0.65 0.125 0  0.675 0.125 0  0.7 0.125 0  0.725 0.125 0  0.75 0.125 0  0.775 0.125 0  0.8 0.125 0  0.825 0.125 0  0.85 0.125 0  0.875 0.125 0  0.9 0.125 0  0.925 0.125 0  0.95 0.125 0  0.975 0.125 0  1 0.125 0  0 0.15 0  0.025 0.15 0  0.05 0.15 0  0.075 0.15 0  0.1 0.15 0  0.125 0.15 0  0.15 0.15 0  0.175 0.15 0  0.2 0.15 0  0.225 0.15 0  0.25 0.15 0  0.275 0.15 0  0.3 0.15 0  0.325 0.15 0  0.35 0.15 0  0.375 0.15 0  0.4 0.15 0  0.425 0.15 0  0.45 0.15 0  0.475 0.15 0  0.5 0.15 0  0.525 0.15 0  0.55 0.15 0  0.575 0.15 0  0.6 0.15 0  0.625 0.15 0  0.65 0.15 0  0.675 0.15 0  0.7 0.15 0  0.725 0.15 0  0.75 0.15 0  0.775 0.15 0  0.8 0.15 0  0.825 0.15 0  0.85 0.15 0  0.875 0.15 0  0.9 0.15 0  0.925 0.15 0  0.95 0.15 0  0.975 0.15 0  1 0.15 0  0 0.175 0  0.025 0.175 0  0.05 0.175 0  0.075 0.175 0  0.1 0.175 0  0.125 0.175 0  0.15 0.175 0  0.175 0.175 0  0.2 0.175 0  0.225 0.175 0  0.25 0.175 0  0.275 0.175 0  0.3 0.175 0  0.325 0.175 0  0.35 0.175 0  0.375 0.175 0  0.4 0.175 0  0.425 0.175 0  0.45 0.175 0  0.475 0.175 0  0.5 0.175 0  0.525 0.175 0  0.55 0.175 0  0.575 0.175 0  0.6 0.175 0  0.625 0.175 0  0.65 0.175 0  0.675 0.175 0  0.7 0.175 0  0.725 0.175 0  0.75 0.175 0  0.775 0.175 0  0.8 0.175 0  0.825 0.175 0  0.85 0.175 0  0.875 0.175 0  0.9 0.175 0  0.925 0.175 0  0.95 0.175 0  0.975 0.175 0  1 0.175 0  0 0.2 0  0.025 0.2 0  0.05 0.2 0  0.075 0.2 0  0.1 0.2 0  0.125 0.2 0  0.15 0.2 0  0.175 0.2 0  0.2 0.2 0  0.225 0.2 0  0.25 0.2 0  0.275 0.2 0  0.3 0.2 0  0.325 0.2 0  0.35 0.2 0  0.375 0.2 0  0.4 0.2 0  0.425 0.2 0  0.45 0.2 0  0.475 0.2 0  0.5 0.2 0  0.525 0.2 0  0.55 0.2 0  0.575 0.2 0  0.6 0.2 0  0.625 0.2 0  0.65 0.2 0  0.675 0.2 0  0.7 0.2 0  0.725 0.2 0  0.75 0.2 0  0.775 0.2 0  0.8 0.2 0  0.825 0.2 0  0.85 0.2 0  0.875 0.2 0  0.9 0.2 0  0.925 0.2 0  0.95 0.2 0  0.975 0.2 0  1 0.2 0  0 0.225 0  0.025 0.225 0  0.05 0.225 0  0.075 0.225 0  0.1 0.225 0  0.125 0.225 0  0.15 0.225 0  0.175 0.225 0  0.2 0.225 0  0.225 0.225 0  0.25 0.225 0  0.275 0.225 0  0.3 0.225 0  0.325 0.225 0  0.35 0.225 0  0.375 0.225 0  0.4 0.225 0  0.425 0.225 0  0.45 0.225 0  0.475 0.225 0  0.5 0.225 0  0.525 0.225 0  0.55 0.225 0  0.575 0.225 0  0.6 0.225 0  0.625 0.225 0  0.65 0.225 0  0.675 0.225 0  0.7 0.225 0  0.725 0.225 0  0.75 0.225 0  0.775 0.225 0  0.8 0.225 0  0.825 0.225 0  0.85 0.225 0  0.875 0.225 0  0.9 0.225 0  0.925 0.225 0  0.95 0.225 0  0.975 0.225 0  1 0.225 0  0 0.25 0  0.025 0.25 0  0.05 0.25 0  0.075 0.25 0  0.1 0.25 0  0.125 0.25 0  0.15 0.25 0  0.175 0.25 0  0.2 0.25 0  0.225 0.25 0  0.25 0.25 0  0.275 0.25 0  0.3 0.25 0  0.325 0.25 0  0.35 0.25 0  0.375 0.25 0  0.4 0.25 0  0.425 0.25 0  0.45 0.25 0  0.475 0.25 0  0.5 0.25 0  0.525 0.25 0  0.55 0.25 0  0.575 0.25 0  0.6 0.25 0  0.625 0.25 0  0.65 0.25 0  0.675 0.25 0  0.7 0.25 0  0.725 0.25 0  0.75 0.25 0  0.775 0.25 0  0.8 0.25 0  0.825 0.25 0  0.85 0.25 0  0.875 0.25 0  0.9 0.25 0  0.925 0.25 0  0.95 0.25 0  0.975 0.25 0  1 0.25 0  0 0.275 0  0.025 0.275 0  0.05 0.275 0  0.075 0.275 0  0.1 0.275 0  0.125 0.275 0  0.15 0.275 0  0.175 0.275 0  0.2 0.275 0  0.225 0.275 0  0.25 0.275 0  0.275 0.275 0  0.3 0.275 0  0.325 0.275 0  0.35 0.275 0  0.375 0.275 0  0.4 0.275 0  0.425 0.275 0  0.45 0.275 0  0.475 0.275 0  0.5 0.275 0  0.525 0.275 0  0.55 0.275 0  0.575 0.275 0  0.6 0.275 0  0.625 0.275 0  0.65 0.275 0  0.675 0.275 0  0.7 0.275 0  0.725 0.275 0  0.75 0.275 0  0.775 0.275 0  0.8 0.275 0  0.825 0.275 0  0.85 0.275 0  0.875 0.275 0  0.9 0.275 0  0.925 0.275 0  0.95 0.275 0  0.975 0.275 0  1 0.275 0  0 0.3 0  0.025 0.3 0  0.05 0.3 0  0.075 0.3 0  0.1 0.3 0  0.125 0.3 0  0.15 0.3 0  0.175 0.3 0  0.2 0.3 0  0.225 0.3 0  0.25 0.3 0  0.275 0.3 0  0.3 0.3 0  0.325 0.3 0  0.35 0.3 0  0.375 0.3 0  0.4 0.3 0  0.425 0.3 0  0.45 0.3 0  0.475 0.3 0  0.5 0.3 0  0.525 0.3 0  0.55 0.3 0  0.575 0.3 0  0.6 0.3 0  0.625 0.3 0  0.65 0.3 0  0.675 0.3 0  0.7 0.3 0  0.725 0.3 0  0.75 0.3 0  0.775 0.3 0  0.8 0.3 0  0.825 0.3 0  0.85 0.3 0  0.875 0.3 0  0.9 0.3 0  0.925 0.3 0  0.95 0.3 0  0.975 0.3 0  1 0.3 0  0 0.325 0  0.025 0.325 0  0.05 0.325 0  0.075 0.325 0  0.1 0.325 0  0.125 0.325 0  0.15 0.325 0  0.175 0.325 0  0.2 0.325 0  0.225 0.325 0  0.25 0.325 0  0.275 0.325 0  0.3 0.325 0  0.325 0.325 0  0.35 0.325 0  0.375 0.325 0  0.4 0.325 0  0.425 0.325 0  0.45 0.325 0  0.475 0.325 0  0.5 0.325 0  0.525 0.325 0  0.55 0.325 0  0.575 0.325 0  0.6 0.325 0  0.625 0.325 0  0.65 0.325 0  0.675 0.325 0  0.7 0.325 0  0.725 0.325 0  0.75 0.325 0  0.775 0.325 0  0.8 0.325 0  0.825 0.325 0  0.85 0.325 0  0.875 0.325 0  0.9 0.325 0  0.925 0.325 0  0.95 0.325 0  0.975 0.325 0  1 0.325 0  0 0.35 0  0.025 0.35 0  0.05 0.35 0  0.075 0.35 0  0.1 0.35 0  0.125 0.35 0  0.15 0.35 0  0.175 0.35 0  0.2 0.35 0  0.225 0.35 0  0.25 0.35 0  0.275 0.35 0  0.3 0.35 0  0.325 0.35 0  0.35 0.35 0  0.375 0.35 0  0.4 0.35 0  0.425 0.35 0  0.45 0.35 0  0.475 0.35 0  0.5 0.35 0  0.525 0.35 0  0.55 0.35 0  0.575 0.35 0  0.6 0.35 0  0.625 0.35 0  0.65 0.35 0  0.675 0.35 0  0.7 0.35 0  0.725 0.35 0  0.75 0.35 0  0.775 0.35 0  0.8 0.35 0  0.825 0.35 0  0.85 0.35 0  0.875 0.35 0  0.9 0.35 0  0.925 0.35 0  0.95 0.35 0  0.975 0.35 0  1 0.35 0  0 0.375 0  0.025 0.375 0  0.05 0.375 0  0.075 0.375 0  0.1 0.375 0  0.125 0.375 0  0.15 0.375 0  0.175 0.375 0  0.2 0.375 0  0.225 0.375 0  0.25 0.375 0  0.275 0.375 0  0.3 0.375 0  0.325 0.375 0  0.35 0.375 0  0.375 0.375 0  0.4 0.375 0  0.425 0.375 0  0.45 0.375 0  0.475 0.375 0  0.5 0.375 0  0.525 0.375 0  0.55 0.375 0  0.575 0.375 0  0.6 0.375 0  0.625 0.375 0  0.65 0.375 0  0.675 0.375 0  0.7 0.375 0  0.725 0.375 0  0.75 0.375 0  0.775 0.375 0  0.8 0.375 0  0.825 0.375 0  0.85 0.375 0  0.875 0.375 0  0.9 0.375 0  0.925 0.375 0  0.95 0.375 0  0.975 0.375 0  1 0.375 0  0 0.4 0  0.025 0.4 0  0.05 0.4 0  0.075 0.4 0  0.1 0.4 0  0.125 0.4 0  0.15 0.4 0  0.175 0.4 0  0.2 0.4 0  0.225 0.4 0  0.25 0.4 0  0.275 0.4 0  0.3 0.4 0  0.325 0.4 0  0.35 0.4 0  0.375 0.4 0  0.4 0.4 0  0.425 0.4 0  0.45 0.4 0  0.475 0.4 0  0.5 0.4 0  0.525 0.4 0  0.55 0.4 0  0.575 0.4 0  0.6 0.4 0  0.625 0.4 0  0.65 0.4 0  0.675 0.4 0  0.7 0.4 0  0.725 0.4 0  0.75 0.4 0  0.775 0.4 0  0.8 0.4 0  0.825 0.4 0  0.85 0.4 0  0.875 0.4 0  0.9 0.4 0  0.925 0.4 0  0.95 0.4 0  0.975 0.4 0  1 0.4 0  0 0.425 0  0.025 0.425 0  0.05 0.425 0  0.075 0.425 0  0.1 0.425 0  0.125 0.425 0  0.15 0.425 0  0.175 0.425 0  0.2 0.425 0  0.225 0.425 0  0.25 0.425 0  0.275 0.425 0  0.3 0.425 0  0.325 0.425 0  0.35 0.425 0  0.375 0.425 0  0.4 0.425 0  0.425 0.425 0  0.45 0.425 0  0.475 0.425 0  0.5 0.425 0  0.525 0.425 0  0.55 0.425 0  0.575 0.425 0  0.6 0.425 0  0.625 0.425 0  0.65 0.425 0  0.675 0.425 0  0.7 0.425 0  0.725 0.425 0  0.75 0.425 0  0.775 0.425 0  0.8 0.425 0  0.825 0.425 0  0.85 0.425 0  0.875 0.425 0  0.9 0.425 0  0.925 0.425 0  0.95 0.425 0  0.975 0.425 0  1 0.425 0  0 0.45 0  0.02
[...]
<PointData  Scalars="ControlVisualisation"> 
<DataArray  type="Float64"  Name="ControlVisualisation"  format="ascii">1.1144992921667052e-01  7.6181965512800556e-02  7.6358194438747237e-02  7.6728131245361222e-02  7.7247678062689909e-02  7.7854806281991665e-02  7.8491888571341817e-02  7.9118403096998219e-02  7.9710686820018792e-02  8.0255513515507776e-02  8.0744732151143916e-02  8.1173003660038712e-02  8.1537594586413617e-02  8.1838599194743289e-02  8.2078693969580174e-02  8.2262320703813743e-02  8.2394583869369098e-02  8.2480186784578108e-02  8.2522618657111774e-02  8.2523686156373344e-02  8.2483408929991842e-02  8.2400259126194253e-02  8.2271695928392091e-02  8.2094912604802714e-02  8.1867675534986153e-02  8.1589101777983300e-02  8.1260207795681494e-02  8.0884084259559341e-02  8.0465624110816092e-02  8.0010880541337343e-02  7.9526339357256615e-02  7.9018666706450358e-02  7.8495717685936509e-02  7.7969230705285816e-02  7.7458732160652299e-02  7.6994317547996599e-02  7.6612164876310840e-02  7.6342852161888242e-02  7.6197113509688025e-02  7.6156761373232504e-02  1.9908388851232198e-01  7.6180331745848776e-02  3.9300242810022014e-02  3.9886327618699410e-02  4.0978452578135205e-02  4.2538914056330646e-02  4.4426650016156734e-02  4.6484569004906058e-02  4.8587547416507094e-02  5.0652948096227071e-02  5.2628886655556525e-02  5.4477640158103385e-02  5.6166453297905677e-02  5.7667020595214502e-02  5.8958906559350266e-02  6.0032151717405682e-02  6.0886925865011474e-02  6.1530479268236217e-02  6.1972764624121629e-02  6.2222188623501984e-02  6.2282570095660364e-02  6.2151915594227315e-02  6.1823194338020832e-02  6.1286896203117738e-02  6.0534790329436719e-02  5.9564022011410485e-02  5.8380570964376655e-02  5.7001202612035340e-02  5.5453386052770372e-02  5.3773173959730913e-02  5.2001666561497378e-02  5.0181214825246005e-02  4.8352994100943639e-02  4.6557406309436361e-02  4.4837856491667306e-02  4.3246669641583871e-02  4.1847576184424827e-02  4.0707795832945294e-02  3.9882255460160734e-02  3.9381436241400170e-02  3.9139721098280046e-02  7.6156596370928378e-02  7.6345588114358681e-02  3.9899583108157798e-02  4.1265481790796525e-02  4.3392153704276598e-02  4.6488524822491231e-02  5.0381403960778705e-02  5.4814522293357405e-02  5.9563904040115273e-02  6.4477222526970163e-02  6.9457554242438616e-02  7.4422955955259815e-02  7.9275270020396138e-02  8.3892126812231127e-02  8.8138645143975555e-02  9.1886977211072710e-02  9.5032503591628056e-02  9.7500847900757831e-02  9.9245560933312896e-02  1.0024010300947478e-01  1.0046921224249368e-01  9.9924164767146467e-02  9.8604281856428999e-02  9.6524078257356705e-02  9.3722801118360108e-02  9.0271908239218157e-02  8.6276777236576507e-02  8.1871142743483269e-02  7.7205294625626725e-02  7.2430921286962158e-02  6.7686350581867644e-02  6.3085912890915058e-02  5.8716775132070291e-02  5.4644403301892699e-02  5.0926071712224866e-02  4.7625704874921154e-02  4.4818780906658022e-02  4.2584696401707971e-02  4.0979570214189465e-02  3.9971557077262625e-02  3.9355374098823150e-02  7.6188880491641756e-02  7.6705169389150840e-02  4.1132724120277929e-02  4.3782942726135810e-02  4.7092860124495553e-02  5.1707878141349889e-02  5.7424916663709261e-02  6.3929731997224098e-02  7.1006545639545587e-02  7.8563366276762844e-02  8.6570314333442561e-02  9.4973071329670325e-02  1.0363191525121630e-01  1.1230783398010695e-01  1.2068778165754811e-01  1.2842858997831511e-01  1.3520185884370270e-01  1.4072816527283497e-01  1.4479423407904596e-01  1.4725306024338009e-01  1.4801391642579736e-01  1.4703335731526859e-01  1.4431686426878532e-01  1.3993347253010646e-01  1.3403564126447087e-01  1.2686957387364839e-01  1.1876304776594056e-01  1.1008934836607365e-01  1.0121969049211656e-01  9.2481787448762509e-02  8.4135381048190558e-02  7.6364038609275334e-02  6.9277568037511991e-02  6.2922149475168720e-02  5.7303421495173132e-02  5.2417044749430743e-02  4.8283282166176923e-02  4.4960384411486150e-02  4.2493472849108704e-02  4.0853079419593055e-02  3.9710131755045633e-02  7.6279613366226129e-02  7.7268193185435069e-02  4.3244079385641128e-02  4.8850332669604479e-02  5.4817697498577789e-02  6.2401755444270859e-02  7.1297005229433399e-02  8.1204738160948059e-02  9.2038320666184267e-02  1.0383572092759691e-01  1.1661853951901764e-01  1.3030139948139910e-01  1.4465090078736564e-01  1.5927253974489747e-01  1.7362830511758601e-01  1.8709890011321756e-01  1.9907714261016443e-01  2.0905189427761442e-01  2.1664950021217727e-01  2.2162805426495225e-01  2.2384179753052891e-01  2.2320029418961082e-01  2.1964506948931878e-01  2.1316038440382984e-01  2.0382432021995744e-01  1.9188721136181527e-01  1.7783747467652994e-01  1.6239790021407557e-01  1.4641950101850876e-01  1.3070902545563767e-01  1.1588306177847318e-01  1.0232061209529715e-01  9.0205638402396163e-02  7.9593260693288870e-02  7.0450600706865041e-02  6.2666230802455661e-02  5.6098880736301371e-02  5.0628707059996586e-02  4.6213441413784126e-02  4.2891834036833797e-02  4.0309413491789042e-02  7.6386349395220376e-02  7.7989235410906077e-02  4.7686294510282723e-02  6.0697080060505317e-02  7.3931305574419015e-02  8.9135420531039705e-02  1.0638942212993129e-01  1.2555879218356916e-01  1.4637481552341680e-01  1.6840786992798373e-01  1.9109121889398356e-01  2.1375854907384101e-01  2.3569912304197146e-01  2.5624801215635118e-01  2.7487081536314328e-01  2.9120606488062806e-01  3.0506165019082077e-01  3.1638022917098285e-01  3.2518991964020955e-01  3.3155105011218250e-01  3.3550448025655283e-01  3.3702416556492532e-01  3.3597649871971513e-01  3.3209203935306797e-01  3.2496247935605949e-01  3.1408631413377780e-01  2.9899437104562676e-01  2.7947473456945987e-01  2.5586025414581531e-01  2.2923488959465327e-01  2.0134246586629567e-01  1.7411566158410446e-01  1.4907990581384323e-01  1.2704066038204015e-01  1.0819009104962399e-01  9.2380072433180832e-02  7.9361919250807503e-02  6.8614380874350955e-02  5.8978030033261838e-02  4.9500200671891287e-02  4.1449322317579779e-02  7.6241249062977023e-02  8.5753554673651713e-02  6.3303242148414984e-02  1.0553067617334003e-01  1.5662724961526459e-01  2.1449736799703562e-01  2.6594773033158348e-01  3.0764520867366746e-01  3.4237981739785772e-01  3.7144353680472741e-01  3.9492071549170660e-01  4.1307349119186365e-01  4.2666690269251367e-01  4.3673119568260677e-01  4.4428302880120052e-01  4.5018552886659879e-01  4.5512547025934447e-01  4.5963930028374889e-01  4.6414178209267098e-01  4.6894033601576879e-01  4.7423342687952547e-01  4.8009425906669567e-01  4.8643914961644863e-01  4.9297962562479442e-01  4.9916283848994158e-01  5.0411733068529607e-01  5.0663595368312897e-01  5.0523582567140046e-01  4.9833046649165152e-01  4.8453507957219022e-01  4.6310901738987337e-01  4.3450489245752993e-01  4.0088064676359952e-01  3.6617369740139427e-01  3.3510621613476871e-01  3.1065238745796259e-01  2.9107524108561855e-01  2.6606257005332212e-01  2.1474836985024054e-01  1.2008119058474011e-01  5.7271561775037005e-02  7.8509305992662093e-02  2.8318433498998974e-01  3.0627464566802604e-01  5.9834256433311250e-01  6.7478671195817552e-01  7.0771613078548556e-01  7.1102900282385439e-01  7.0268208078951166e-01  6.9121803213612365e-01  6.7925668213262336e-01  6.6686428283358423e-01  6.5377869777100661e-01  6.4030878239439937e-01  6.2726541823043547e-01  6.1556697725287024e-01  6.0596712010071363e-01  5.9900783434352900e-01  5.9509418542444648e-01  5.9456601121026564e-01  5.9771106340244784e-01  6.0472483124297571e-01  6.1564334796098208e-01  6.3027245598174819e-01  6.4813073123864995e-01  6.6842160709997911e-01  6.9005183965476169e-01  7.1171357270997770e-01  7.3204323196722143e-01  7.4986899034825816e-01  7.6457231888320287e-01  7.7659359953097040e-01  7.8796108386804553e-01  8.0219040532635733e-01  8.2237676795298464e-01  8.4796532492750154e-01  8.7458472168386447e-01  8.9802425500815786e-01  9.1604344775847391e-01  9.2760988551686407e-01  9.3283316706372132e-01  9.2380673302102212e-01  4.8503092083049354e-01  9.1171759947987940e-01  9.3044416798680762e-01  9.2463903402862735e-01  9.1597337410193524e-01  9.0507358788629888e-01  8.9066205887915617e-01  8.7647644262329860e-01  8.6095297635912715e-01  8.4181793630903934e-01  8.1955834473221101e-01  7.9554261552758321e-01  7.7096605905710203e-01  7.4719741001789597e-01  7.2581656956932838e-01  7.0822192278911267e-01  6.9536256697935739e-01  6.8779113636532241e-01  6.8584422880394880e-01  6.8972637676686444e-01  6.9943210364813635e-01  7.1457150851239937e-01  7.3421605930191791e-01  7.5688111828191040e-01  7.8072168181365864e-01  8.0392830690154615e-01  8.2518478365958658e-01  8.4396284395391474e-01  8.6048647415198365e-01  8.7540311818944461e-01  8.8939370963981979e-01  9.0294190323063139e-01  9.1617128896303379e-01  9.2849946754028290e-01  9.3885611081205889e-01  9.4722226971416379e-01  9.5464948352659373e-01  9.6212617859768612e-01  9.6989257792971428e-01  9.7700962567512872e-01  9.8255896172606527e-01  9.6637816312986058e-01  9.4658949804115966e-01  9.5890588381590258e-01  9.4972593385636439e-01  9.4538148249901099e-01  9.3948331288454423e-01  9.2671148391707492e-01  9.1082936118344948e-01  8.9655002979312037e-01  8.8194269294788663e-01  8.6427913517406119e-01  8.4328009249268532e-01  8.1996760439937844e-01  7.9602164788633067e-01  7.7364967591610689e-01  7.5506402505263548e-01  7.4191054339104712e-01  7.3513782771999092e-01  7.3519274694612124e-01  7.4215201303636291e-01  7.5559801008074012e-01  7.7435502913234644e-01  7.9639315072575134e-01  8.1919007821706669e-01  8.4053555806162239e-01  8.5929877703758328e-01  8.7556673630774717e-01  8.9009446016266736e-01  9.0359590996723416e-01  9.1635439513289141e-01  9.2815013916130273e-01  9.3828837377581353e-01  9.4600130036047436e-01  9.5165954801470276e-01  9.5663532934482809e-01  9.6144978631984868e-01  9.6793195714860458e-01  9.7587362514000686e-01  9.8256326542996608e-01  9.8743082406168337e-01  9.9064333208982813e-01  9.8326795543171863e-01  9.5167918737785140e-01  9.6505037857464804e-01  9.5442548879444400e-01  9.4922944728631575e-01  9.4403525276826783e-01  9.3246605077323985e-01  9.1557454921453274e-01  8.9967031180869639e-01  8.8407518529478513e-01  8.6540645422293283e-01  8.4311212751494957e-01  8.1871476110342845e-01  7.9451151726245084e-01  7.7307170241084289e-01  7.5665923068117036e-01  7.4677843957455758e-01  7.4418974735276922e-01  7.4915722579338340e-01  7.6148574810036973e-01  7.8019899838347273e-01  8.0316412128747261e-01  8.2726638672264219e-01  8.4947466332010679e-01  8.6819660082786954e-01  8.8372735718275330e-01  8.9743882514907858e-01  9.1055984021794201e-01  9.2339933614495184e-01  9.3520176353122408e-01  9.4459706515395658e-01  9.5077482204185360e-01  9.5485867151555637e-01  9.5872100773171209e-01  9.6200660661070969e-01  9.6612353745894330e-01  9.7316645698687820e-01  9.8028696251128788e-01  9.8590295305314601e-01  9.8985165629078553e-01  9.9236205963720447e-01  9.8692369447933004e-01  9.4423510441064751e-01  9.5910976436157214e-01  9.4741144681978307e-01  9.4010835288703842e-01  9.3092030676105386e-01  9.1457319317300734e-01  8.9518848938578854e-01  8.7571622511329572e-01  8.5203300979294572e-01  8.2286547379831987e-01  7.9188269400095801e-01  7.6310085665420613e-01  7.3926200901343675e-01  7.2208962575950841e-01  7.1247074505245478e-01  7.1065706248226790e-01  7.1662049809562278e-01  7.3027383885381414e-01  7.5122922127601499e-01  7.7808956827379516e-01  8.0783731381722246e-01  8.3632223753550683e-01  8.6016555851640120e-01  8.7856520189430021e-01  8.9315704686928932e-01  9.0628513256342014e-01  9.1936279631930917e-01  9.3216338680826005e-01  9.4308289243672583e-01  9.5044447944978561e-01  9.5447305514978931e-01  9.5758894240149461e-01  9.6078002092726467e-01  9.6293958607981678e-01  9.6658907666625860e-01  9.7304549398067419e-01  9.7956483491949009e-01  9.8476535422595435e-01  9.8844945979281995e-01  9.9089819242618615e-01  9.8524523955207610e-01  8.9433196955935845e-01  9.3095732373357520e-01  9.0649045373055825e-01  8.8907374616407231e-01  8.6722659013665937e-01  8.3873181806704356e-01  7.9932638690278368e-01  7.4999047828829657e-01  7.0095590666755669e-01  6.6115593934330630e-01  6.3272812652426225e-01  6.1476120606647677e-01  6.0610351488725034e-01  6.0585309847183622e-01  6.1321248179236987e-01  6.2751809828861393e-01  6.4842504024530079e-01  6.7592655250312961e-01  7.0989080057358955e-01  7.4902866337817720e-01  7.8986606652318680e-01  8.2719314941262656e-01  8.5677815544160096e-01  8.7803270239046072e-01  8.9364563438578293e-01  9.0701899351005333e-01  9.2015500636041725e-01  9.3294678407057308e-01  9.4370080853108529e-01  9.5076732680499132e-01  9.5450490859016690e-01  9.5716982704205011e-01  9.5968759959244021e-01  9.6124697984411867e-01  9.6353671254399043e-01  9.6821201109596478e-01  9.7369491310216683e-01  9.7836731850753078e-01  9.8190640793857553e-01  9.8369592282593632e-01  9.7404881037836732e-01  1.5795686505920029e-01  2.9033039244829295e-01  3.8202319892508163e-01  4.3685708736529710e-01  4.5206397100925261e-01  4.4424998702433788e-01  4.2307529901888252e-01  4.0270201919195486e-01  3.8938373206942850e-01  3.8453485570950879e-01  3.8758932746072966e-01  3.9778862029130135e-01  4.1458313472475661e-01  4.3752597428385243e-01  4.6618534727981975e-01  5.0023498658449950e-01  5.3960385062122329e-01  5.8446230999838189e-01  6.3484099336116906e-01  6.8972861984150757e-01  7.4581470637276359e-01  7.9720859129349531e-01  8.3809114969788423e-01  8.6674137811655316e-01  8.8612046158436297e-01  9.0077751624613378e-01  9.1395682695829772e-01  9.2660233976648876e-01  9.3778740159175977e-01  9.4604768143868156e-01  9.5097699184596829e-01  9.5371320566274476e-01  9.5548794605605913e-01  9.5646828081272550e-01  9.5710688178864778e-01  9.5840894923554110e-01  9.6006588181227226e-01  9.6044426379174808e-01  9.5799559599098238e-01  9.4089433745418460e-01  8.7609103735246818e-01  7.9536870021388817e-02  5.6135636917709002e-02  8.3473823171236264e-02  1.0873495944514736e-01  1.3372494210838565e-01  1.5592529250092668e-01  1.7287477213147887e-01  1.8584102880146475e-01  1.9689332080134381e-01  2.0821319323153450e-01  2.2162337983162747e-01  2.3863554010089702e-01  2.6049140276388483e-01  2.8814805422028028e-01  3.2228815758859169e-01  3.6342774712359704e-01  4.1199361765062203e-01  4.6818341286142345e-01  5.3159325638403154e-01  6.0069839967092042e-01  6.7212772814429611e-01  7.4001192204814203e-01  7.9715422316467699e-01  8.3910664223901410e-01  8.6708294414814369e-01  8.8592423147981481e-01  9.0030069149164826e-01  9.1282531394622557e-01  9.2406438646490263e-01  9.3340284971968968e-01  9.4011335212791891e-01  9.4406730637435643e-01  9.4567040727040741e-01  9.4531826327564650e-01  9.4310259582272771e-01  9.3856047419375754e-01  9.2977638834284815e-01  9.0836967052977047e-01  8.0646235024341062e-01  1.3219603121421780e-01  9.5466302896353619e-02  7.8210004823912743e-02  4.6250423154841618e-02  5.6844836798361220e-02  6.7919299807369354e-02  8.0692044395591425e-02  9.3999876361399504e-02  1.0701736665472644e-01  1.1976830147651368e-01  1.3265660736006199e-01  1.4628902437270921e-01  1.6123660790079300e-01  1.7793840711181097e-01  1.9670993433835002e-01  2.1797929400098154e-01  2.4277957408001877e-01  2.7318819464783950e-01  3.1206793471229438e-01  3.6191256202358307e-01  4.2353142767648921e-01  4.9540934269476367e-01  5.7376079668240476e-01  6.5275020167325393e-01  7.2501208861456357e-01  7.8376632391118051e-01  8.2624623087190818e-01  8.5476690287990409e-01  8.7405686544409988e-01  8.8818898875282959e-01  8.9941887939455634e-01  9.0843589575068973e-01  9.1502419876950758e-01  9.1859878876467460e-01  9.1839355527513256e-01  9.1320130015388701e-01  9.0029027273906215e-01  8.7100184707336137e-01  7.8924878535874210e-01  5.1989867963675074e-01  1.5770896762259598e-01  6.0329995066554766e-02  8.0349189891261885e-02  7.8170671427848587e-02  4.4499181199032706e-02  4.9637293538296337e-02  5.5548238055405617e-02  6.3598069643904048e-02  7.3054528926543127e-02  8.3376216855533009e-02  9.4433214062180415e-02  1.0644424850837088e-01  1.1987109404151705e-01  1.3524026814916132e-01  1.5294681559334869e-01  1.7298832605257944e-01  1.9474030201484155e-01  2.1716827265896035e-01  2.4001193479614402e-01  2.6543601532129851e-01  2.9804934695921614e-01  3.4238237650167680e-01  4.0011988560824940e-01  4.6928944624139979e-01  5.4504519710880073e-01  6.2087009089635758e-01  6.8994408027718079e-01  7.4696411853043987e-01  7.8982976270224192e-01  8.1979946935390646e-01  8.3991658876691677e-01  8.5311678001813052e-01  8.6115813097072635e-01  8.6433068107029609e-01  8.6130212778001847e-01  8.4821310270236960e-01  8.1515471399004680e-01  7.3672052325840953e-01  5.6931735099297687e-01  3.2402775968932257e-01  1.5016448451443734e-01  8.3674457800734972e-02  5.3005853496127874e-02  7.9626731796220346e-02  7.8283661943213095e-02  4.4125263375866107e-02  4.7694663937053065e-02  5.1744478047495074e-02  5.7689832091349272e-02  6.5227956064769901e-02  7.4003233087455267e-02  8.3872075238626970e-02  9.4997806353555009e-02  1.0780189774661293e-01  1.2285756934331155e-01  1.4072122364782380e-01  1.6164510539055946e-01  1.8514238653888404e-01  2.0961075949765151e-01  2.3275855298352088e-01  2.5351357491062304e-01  2.7415335037818422e-01  2.9981185803474314e-01  3.3526886169860692e-01  3.8221976763457766e-01  4.3884826178629710e-01  5.0090919708041892e-01  5.6316094235655934e-01  6.2065991606552484e-01  6.6972559521888397e-01  7.0835160821673149e-01  7.3591723808708120e-01  7.5227545492289782e-01  7.5637729239312179e-01  7.4448729676159808e-01  7.0836296185697900e-01  6.3576619051786665e-01  5.1844014450601927e-01  3.6851055487969481e-01  2.2917592098089845e-01  1.4181864491293644e-01  9.6029992479190945e-02  7.0262447799420327e-02  5.1414529200563101e-02  7.9570060339345383e-02  7.8566295298170552e-02  4.4554756345118324e-02  4.7950645427802287e-02  5.1521301299914848e-02  5.6853623705577810e-02  6.3869269225262246e-02  7.2343169884453468e-02  8.2144758327891657e-02  9.3359566043545270e-02  1.0631971005923946e-01  1.2156557012769401e-01  1.3970707224008005e-01  1.6113042559322477e-01  1.8549255164694628e-01  2.1115109674112104e-01  2.3518925337212235e-01  2.5486842706651486e-01  2.6996144192282034e-01  2.8359868804503213e-01  3.0043223199232172e-01  3.2393413785756769e-01  3.5498073898017418e-01  3.9199594802660331e-01  4.3184142710152262e-01  4.7075151766054352e-01  5.0497655374014738e-01  5.3101959451974357e-01  5.4548868432598674e-01  5.4474807407189907e-01  5.2480010074479289e-01  4.8211758411266137e-01  4.1614212693587138e-01  3.3322370921699496e-01  2.4866603893238989e-01  1.7951113895462753e-01  1.3165360555017114e-01  1.0031993347186745e-01  7.9477515286095313e-02  6.5138813270260484e-02  5.0667802141090401e-02  7.9559825821435323e-02  7.8983966749516660e-02  4.5627326504601010e-02  4.9658490831491958e-02  5.3426919960465273e-02  5.9025420014856680e-02  6.6539770366006556e-02  7.5845473992090656e-02  8.6825058191660365e-02  9.9490739712226328e-02  1.1406217964919846e-01  1.3096378569598105e-01  1.5067754593420588e-01  1.7338430448228387e-01  1.9839805554986598e-01  2.2367970125472669e-01  2.4608430438764661e-01  2.6277004501247303e-01  2.7297788374696930e-01  2.7859599674233704e-01  2.8301900017386411e-01  2.8938283141232307e-01  2.9936935886437999e-01  3.1290293967371852e-01  3.2844322077543198e-01  3.4348493782786049e-01  3.5502292843995326e-01  3.5991926782544126e-01  3.5525577470641873e-01  3.3885153602756096e-01  3.1011854709190828e-01  2.7113755530241906e-01  2.2705765383424803e-01  1.8446461804042100e-01  1.4824849409907476e-01  1.1996501196632253e-01  9.8807438515251172e-02  8.3202572800788827e-02  7.1530873732622097e-02  6.2190331886738941e-02  5.0074457139132660e-02  7.9500063850671807e-02  7.9491742621999067e-02  4.7248506694928395e-02  5.2677292454830611e-02  5.7198860329974587e-02  6.3793238264488308e-02  7.2756961797540709e-02  8.4076843589447475e-02  9.7682435263165029e-02  1.135633010