<?xml version="1.0"?>
<VTKFile type="UnstructuredGrid"  version="0.1"  >
<UnstructuredGrid>
<Piece  NumberOfPoints="1681" NumberOfCells="3200">
<Points>
<DataArray  type="Float64"  NumberOfComponents="3"  format="ascii">0 0 0  0.025 0 0  0.05 0 0  0.075 0 0  0.1 0 0  0.125 0 0  0.15 0 0  0.175 0 0  0.2 0 0  0.225 0 0  0.25 0 0  0.275 0 0  0.3 0 0  0.325 0 0  0.35 0 0  0.375 0 0  0.4 0 0  0.425 0 0  0.45 0 0  0.475 0 0  0.5 0 0  0.525 0 0  0.55 0 0  0.575 0 0  0.6 0 0  0.625 0 0  0.65 0 0  0.675 0 0  0.7 0 0  0.725 0 0  0.75 0 0  0.775 0 0  0.8 0 0  0.825 0 0  0.85 0 0  0.875 0 0  0.9 0 0  0.925 0 0  0.95 0 0  0.975 0 0  1 0 0  0 0.025 0  0.025 0.025 0  0.05 0.025 0  0.075 0.025 0  0.1 0.025 0  0.125 0.025 0  0.15 0.025 0  0.175 0.025 0  0.2 0.025 0  0.225 0.025 0  0.25 0.025 0  0.275 0.025 0  0.3 0.025 0  0.325 0.025 0  0.35 0.025 0  0.375 0.025 0  0.4 0.025 0  0.425 0.025 0  0.45 0.025 0  0.475 0.025 0  0.5 0.025 0  0.525 0.025 0  0.55 0.025 0  0.575 0.025 0  0.6 0.025 0  0.625 0.025 0  0.65 0.025 0  0.675 0.025 0  0.7 0.025 0  0.725 0.025 0  0.75 0.025 0  0.775 0.025 0  0.8 0.025 0  0.825 0.025 0  0.85 0.025 0  0.875 0.025 0  0.9 0.025 0  0.925 0.025 0  0.95 0.025 0  0.975 0.025 0  1 0.025 0  0 0.05 0  0.025 0.05 0  0.05 0.05 0  0.075 0.05 0  0.1 0.05 0  0.125 0.05 0  0.15 0.05 0  0.175 0.05 0  0.2 0.05 0  0.225 0.05 0  0.25 0.05 0  0.275 0.05 0  0.3 0.05 0  0.325 0.05 0  0.35 0.05 0  0.375 0.05 0  0.4 0.05 0  0.425 0.05 0  0.45 0.05 0  0.475 0.05 0  0.5 0.05 0  0.525 0.05 0  0.55 0.05 0  0.575 0.05 0  0.6 0.05 0  0.625 0.05 0  0.65 0.05 0  0.675 0.05 0  0.7 0.05 0  0.725 0.05 0  0.75 0.05 0  0.775 0.05 0  0.8 0.05 0  0.825 0.05 0  0.85 0.05 0  0.875 0.05 0  0.9 0.05 0  0.925 0.05 0  0.95 0.05 0  0.975 0.05 0  1 0.05 0  0 0.075 0  0.025 0.075 0  0.05 0.075 0  0.075 0.075 0  0.1 0.075 0  0.125 0.075 0  0.15 0.075 0  0.175 0.075 0  0.2 0.075 0  0.225 0.075 0  0.25 0.075 0  0.275 0.075 0  0.3 0.075 0  0.325 0.075 0  0.35 0.075 0  0.375 0.075 0  0.4 0.075 0  0.425 0.075 0  0.45 0.075 0  0.475 0.075 0  0.5 0.075 0  0.525 0.075 0  0.55 0.075 0  0.575 0.075 0  0.6 0.075 0  0.625 0.075 0  0.65 0.075 0  0.675 0.075 0  0.7 0.075 0  0.725 0.075 0  0.75 0.075 0  0.775 0.075 0  0.8 0.075 0  0.825 0.075 0  0.85 0.075 0  0.875 0.075 0  0.9 0.075 0  0.925 0.075 0  0.95 0.075 0  0.975 0.075 0  1 0.075 0  0 0.1 0  0.025 0.1 0  0.05 0.1 0  0.075 0.1 0  0.1 0.1 0  0.125 0.1 0  0.15 0.1 0  0.175 0.1 0  0.2 0.1 0  0.225 0.1 0  0.25 0.1 0  0.275 0.1 0  0.3 0.1 0  0.325 0.1 0  0.35 0.1 0  0.375 0.1 0  0.4 0.1 0  0.425 0.1 0  0.45 0.1 0  0.475 0.1 0  0.5 0.1 0  0.525 0.1 0  0.55 0.1 0  0.575 0.1 0  0.6 0.1 0  0.625 0.1 0  0.65 0.1 0  0.675 0.1 0  0.7 0.1 0  0.725 0.1 0  0.75 0.1 0  0.775 0.1 0  0.8 0.1 0  0.825 0.1 0  0.85 0.1 0  0.875 0.1 0  0.9 0.1 0  0.925 0.1 0  0.95 0.1 0  0.975 0.1 0  1 0.1 0  0 0.125 0  0.025 0.125 0  0.05 0.125 0  0.075 0.125 0  0.1 0.125 0  0.125 0.125 0  0.15 0.125 0  0.175 0.125 0  0.2 0.125 0  0.225 0.125 0  0.25 0.125 0  0.275 0.125 0  0.3 0.125 0  0.325 0.125 0  0.35 0.125 0  0.375 0.125 0  0.4 0.125 0  0.425 0.125 0  0.45 0.125 0  0.475 0.125 0  0.5 0.125 0  0.525 0.125 0  0.55 0.125 0  0.575 0.125 0  0.6 0.125 0  0.625 0.125 0  0.65 0.125 0  0.675 0.125 0  0.7 0.125 0  0.725 0.125 0  0.75 0.125 0  0.775 0.125 0  0.8 0.125 0  0.825 0.125 0  0.85 0.125 0  0.875 0.125 0  0.9 0.125 0  0.925 0.125 0  0.95 0.125 0  0.975 0.125 0  1 0.125 0  0 0.15 0  0.025 0.15 0  0.05 0.15 0  0.075 0.15 0  0.1 0.15 0  0.125 0.15 0  0.15 0.15 0  0.175 0.15 0  0.2 0.15 0  0.225 0.15 0  0.25 0.15 0  0.275 0.15 0  0.3 0.15 0  0.325 0.15 0  0.35 0.15 0  0.375 0.15 0  0.4 0.15 0  0.425 0.15 0  0.45 0.15 0  0.475 0.15 0  0.5 0.15 0  0.525 0.15 0  0.55 0.15 0  0.575 0.15 0  0.6 0.15 0  0.625 0.15 0  0.65 0.15 0  0.675 0.15 0  0.7 0.15 0  0.725 0.15 0  0.75 0.15 0  0.775 0.15 0  0.8 0.15 0  0.825 0.15 0  0.85 0.15 0  0.875 0.15 0  0.9 0.15 0  0.925 0.15 0  0.95 0.15 0  0.975 0.15 0  1 0.15 0  0 0.175 0  0.025 0.175 0  0.05 0.175 0  0.075 0.175 0  0.1 0.175 0  0.125 0.175 0  0.15 0.175 0  0.175 0.175 0  0.2 0.175 0  0.225 0.175 0  0.25 0.175 0  0.275 0.175 0  0.3 0.175 0  0.325 0.175 0  0.35 0.175 0  0.375 0.175 0  0.4 0.175 0  0.425 0.175 0  0.45 0.175 0  0.475 0.175 0  0.5 0.175 0  0.525 0.175 0  0.55 0.175 0  0.575 0.175 0  0.6 0.175 0  0.625 0.175 0  0.65 0.175 0  0.675 0.175 0  0.7 0.175 0  0.725 0.175 0  0.75 0.175 0  0.775 0.175 0  0.8 0.175 0  0.825 0.175 0  0.85 0.175 0  0.875 0.175 0  0.9 0.175 0  0.925 0.175 0  0.95 0.175 0  0.975 0.175 0  1 0.175 0  0 0.2 0  0.025 0.2 0  0.05 0.2 0  0.075 0.2 0  0.1 0.2 0  0.125 0.2 0  0.15 0.2 0  0.175 0.2 0  0.2 0.2 0  0.225 0.2 0  0.25 0.2 0  0.275 0.2 0  0.3 0.2 0  0.325 0.2 0  0.35 0.2 0  0.375 0.2 0  0.4 0.2 0  0.425 0.2 0  0.45 0.2 0  0.475 0.2 0  0.5 0.2 0  0.525 0.2 0  0.55 0.2 0  0.575 0.2 0  0.6 0.2 0  0.625 0.2 0  0.65 0.2 0  0.675 0.2 0  0.7 0.2 0  0.725 0.2 0  0.75 0.2 0  0.775 0.2 0  0.8 0.2 0  0.825 0.2 0  0.85 0.2 0  0.875 0.2 0  0.9 0.2 0  0.925 0.2 0  0.95 0.2 0  0.975 0.2 0  1 0.2 0  0 0.225 0  0.025 0.225 0  0.05 0.225 0  0.075 0.225 0  0.1 0.225 0  0.125 0.225 0  0.15 0.225 0  0.175 0.225 0  0.2 0.225 0  0.225 0.225 0  0.25 0.225 0  0.275 0.225 0  0.3 0.225 0  0.325 0.225 0  0.35 0.225 0  0.375 0.225 0  0.4 0.225 0  0.425 0.225 0  0.45 0.225 0  0.475 0.225 0  0.5 0.225 0  0.525 0.225 0  0.55 0.225 0  0.575 0.225 0  0.6 0.225 0  0.625 0.225 0  0.65 0.225 0  0.675 0.225 0  0.7 0.225 0  0.725 0.225 0  0.75 0.225 0  0.775 0.225 0  0.8 0.225 0  0.825 0.225 0  0.85 0.225 0  0.875 0.225 0  0.9 0.225 0  0.925 0.225 0  0.95 0.225 0  0.975 0.225 0  1 0.225 0  0 0.25 0  0.025 0.25 0  0.05 0.25 0  0.075 0.25 0  0.1 0.25 0  0.125 0.25 0  0.15 0.25 0  0.175 0.25 0  0.2 0.25 0  0.225 0.25 0  0.25 0.25 0  0.275 0.25 0  0.3 0.25 0  0.325 0.25 0  0.35 0.25 0  0.375 0.25 0  0.4 0.25 0  0.425 0.25 0  0.45 0.25 0  0.475 0.25 0  0.5 0.25 0  0.525 0.25 0  0.55 0.25 0  0.575 0.25 0  0.6 0.25 0  0.625 0.25 0  0.65 0.25 0  0.675 0.25 0  0.7 0.25 0  0.725 0.25 0  0.75 0.25 0  0.775 0.25 0  0.8 0.25 0  0.825 0.25 0  0.85 0.25 0  0.875 0.25 0  0.9 0.25 0  0.925 0.25 0  0.95 0.25 0  0.975 0.25 0  1 0.25 0  0 0.275 0  0.025 0.275 0  0.05 0.275 0  0.075 0.275 0  0.1 0.275 0  0.125 0.275 0  0.15 0.275 0  0.175 0.275 0  0.2 0.275 0  0.225 0.275 0  0.25 0.275 0  0.275 0.275 0  0.3 0.275 0  0.325 0.275 0  0.35 0.275 0  0.375 0.275 0  0.4 0.275 0  0.425 0.275 0  0.45 0.275 0  0.475 0.275 0  0.5 0.275 0  0.525 0.275 0  0.55 0.275 0  0.575 0.275 0  0.6 0.275 0  0.625 0.275 0  0.65 0.275 0  0.675 0.275 0  0.7 0.275 0  0.725 0.275 0  0.75 0.275 0  0.775 0.275 0  0.8 0.275 0  0.825 0.275 0  0.85 0.275 0  0.875 0.275 0  0.9 0.275 0  0.925 0.275 0  0.95 0.275 0  0.975 0.275 0  1 0.275 0  0 0.3 0  0.025 0.3 0  0.05 0.3 0  0.075 0.3 0  0.1 0.3 0  0.125 0.3 0  0.15 0.3 0  0.175 0.3 0  0.2 0.3 0  0.225 0.3 0  0.25 0.3 0  0.275 0.3 0  0.3 0.3 0  0.325 0.3 0  0.35 0.3 0  0.375 0.3 0  0.4 0.3 0  0.425 0.3 0  0.45 0.3 0  0.475 0.3 0  0.5 0.3 0  0.525 0.3 0  0.55 0.3 0  0.575 0.3 0  0.6 0.3 0  0.625 0.3 0  0.65 0.3 0  0.675 0.3 0  0.7 0.3 0  0.725 0.3 0  0.75 0.3 0  0.775 0.3 0  0.8 0.3 0  0.825 0.3 0  0.85 0.3 0  0.875 0.3 0  0.9 0.3 0  0.925 0.3 0  0.95 0.3 0  0.975 0.3 0  1 0.3 0  0 0.325 0  0.025 0.325 0  0.05 0.325 0  0.075 0.325 0  0.1 0.325 0  0.125 0.325 0  0.15 0.325 0  0.175 0.325 0  0.2 0.325 0  0.225 0.325 0  0.25 0.325 0  0.275 0.325 0  0.3 0.325 0  0.325 0.325 0  0.35 0.325 0  0.375 0.325 0  0.4 0.325 0  0.425 0.325 0  0.45 0.325 0  0.475 0.325 0  0.5 0.325 0  0.525 0.325 0  0.55 0.325 0  0.575 0.325 0  0.6 0.325 0  0.625 0.325 0  0.65 0.325 0  0.675 0.325 0  0.7 0.325 0  0.725 0.325 0  0.75 0.325 0  0.775 0.325 0  0.8 0.325 0  0.825 0.325 0  0.85 0.325 0  0.875 0.325 0  0.9 0.325 0  0.925 0.325 0  0.95 0.325 0  0.975 0.325 0  1 0.325 0  0 0.35 0  0.025 0.35 0  0.05 0.35 0  0.075 0.35 0  0.1 0.35 0  0.125 0.35 0  0.15 0.35 0  0.175 0.35 0  0.2 0.35 0  0.225 0.35 0  0.25 0.35 0  0.275 0.35 0  0.3 0.35 0  0.325 0.35 0  0.35 0.35 0  0.375 0.35 0  0.4 0.35 0  0.425 0.35 0  0.45 0.35 0  0.475 0.35 0  0.5 0.35 0  0.525 0.35 0  0.55 0.35 0  0.575 0.35 0  0.6 0.35 0  0.625 0.35 0  0.65 0.35 0  0.675 0.35 0  0.7 0.35 0  0.725 0.35 0  0.75 0.35 0  0.775 0.35 0  0.8 0.35 0  0.825 0.35 0  0.85 0.35 0  0.875 0.35 0  0.9 0.35 0  0.925 0.35 0  0.95 0.35 0  0.975 0.35 0  1 0.35 0  0 0.375 0  0.025 0.375 0  0.05 0.375 0  0.075 0.375 0  0.1 0.375 0  0.125 0.375 0  0.15 0.375 0  0.175 0.375 0  0.2 0.375 0  0.225 0.375 0  0.25 0.375 0  0.275 0.375 0  0.3 0.375 0  0.325 0.375 0  0.35 0.375 0  0.375 0.375 0  0.4 0.375 0  0.425 0.375 0  0.45 0.375 0  0.475 0.375 0  0.5 0.375 0  0.525 0.375 0  0.55 0.375 0  0.575 0.375 0  0.6 0.375 0  0.625 0.375 0  0.65 0.375 0  0.675 0.375 0  0.7 0.375 0  0.725 0.375 0  0.75 0.375 0  0.775 0.375 0  0.8 0.375 0  0.825 0.375 0  0.85 0.375 0  0.875 0.375 0  0.9 0.375 0  0.925 0.375 0  0.95 0.375 0  0.975 0.375 0  1 0.375 0  0 0.4 0  0.025 0.4 0  0.05 0.4 0  0.075 0.4 0  0.1 0.4 0  0.125 0.4 0  0.15 0.4 0  0.175 0.4 0  0.2 0.4 0  0.225 0.4 0  0.25 0.4 0  0.275 0.4 0  0.3 0.4 0  0.325 0.4 0  0.35 0.4 0  0.375 0.4 0  0.4 0.4 0  0.425 0.4 0  0.45 0.4 0  0.475 0.4 0  0.5 0.4 0  0.525 0.4 0  0.55 0.4 0  0.575 0.4 0  0.6 0.4 0  0.625 0.4 0  0.65 0.4 0  0.675 0.4 0  0.7 0.4 0  0.725 0.4 0  0.75 0.4 0  0.775 0.4 0  0.8 0.4 0  0.825 0.4 0  0.85 0.4 0  0.875 0.4 0  0.9 0.4 0  0.925 0.4 0  0.95 0.4 0  0.975 0.4 0  1 0.4 0  0 0.425 0  0.025 0.425 0  0.05 0.425 0  0.075 0.425 0  0.1 0.425 0  0.125 0.425 0  0.15 0.425 0  0.175 0.425 0  0.2 0.425 0  0.225 0.425 0  0.25 0.425 0  0.275 0.425 0  0.3 0.425 0  0.325 0.425 0  0.35 0.425 0  0.375 0.425 0  0.4 0.425 0  0.425 0.425 0  0.45 0.425 0  0.475 0.425 0  0.5 0.425 0  0.525 0.425 0  0.55 0.425 0  0.575 0.425 0  0.6 0.425 0  0.625 0.425 0  0.65 0.425 0  0.675 0.425 0  0.7 0.425 0  0.725 0.425 0  0.75 0.425 0  0.775 0.425 0  0.8 0.425 0  0.825 0.425 0  0.85 0.425 0  0.875 0.425 0  0.9 0.425 0  0.925 0.425 0  0.95 0.425 0  0.975 0.425 0  1 0.425 0  0 0.45 0  0.02
[...]
<PointData  Scalars="ControlVisualisation"> 
<DataArray  type="Float64"  Name="ControlVisualisation"  format="ascii">2.1978718504390343e-02  1.4762154263181722e-02  1.4827905731733275e-02  1.4930935682229257e-02  1.5054983683082822e-02  1.5184378862525109e-02  1.5306582001612081e-02  1.5413621017587441e-02  1.5501695604414688e-02  1.5570032105103869e-02  1.5619704832489058e-02  1.5652730528082828e-02  1.5671480265833392e-02  1.5678337139987227e-02  1.5675517080856315e-02  1.5664992660240025e-02  1.5648477822069354e-02  1.5627440635764996e-02  1.5603119251279877e-02  1.5576527203851408e-02  1.5548447502632148e-02  1.5519426856973296e-02  1.5489783945609421e-02  1.5459633889207906e-02  1.5428913607883635e-02  1.5397387797399045e-02  1.5364636869260789e-02  1.5330056727063786e-02  1.5292895520044562e-02  1.5252313016465997e-02  1.5207438880821468e-02  1.5157457660738836e-02  1.5101820237427609e-02  1.5040663192558886e-02  1.4975401958066438e-02  1.4909242191257069e-02  1.4847171226136340e-02  1.4795150115743168e-02  1.4758866475363777e-02  1.4740818259759326e-02  4.3339080112551172e-02  1.4763110455883750e-02  7.4620435692019987e-03  7.5489561915888497e-03  7.6923500784197470e-03  7.8759463797446454e-03  8.0776609274146802e-03  8.2771344297193697e-03  8.4589427485944942e-03  8.6134299724359969e-03  8.7361186062354674e-03  8.8264186983005137e-03  8.8862794831636345e-03  8.9190881836327500e-03  8.9288740682991370e-03  8.9197792032456504e-03  8.8957412975665083e-03  8.8603310237438688e-03  8.8166829055513485e-03  8.7674673241370498e-03  8.7148714848681429e-03  8.6605805428891392e-03  8.6057713597984392e-03  8.5511403942533284e-03  8.4969724239768989e-03  8.4432224333618727e-03  8.3895644368191212e-03  8.3353980663305235e-03  8.2798618767483505e-03  8.2218996943886572e-03  8.1603664238472217e-03  8.0941180383815505e-03  8.0220918008756716e-03  7.9435202522962038e-03  7.8584208909165919e-03  7.7683342594711520e-03  7.6769694860271851e-03  7.5903717158681315e-03  7.5162547034125600e-03  7.4618950063368673e-03  7.4296597189573762e-03  1.4740833158708375e-02  1.4839908684611854e-02  7.5615423139696733e-03  7.6900758375840319e-03  7.8723228408740624e-03  8.1055690301653372e-03  8.3622357814799337e-03  8.6166109712829744e-03  8.8489445208317884e-03  9.0464682907372782e-03  9.2027666398565681e-03  9.3163706248677175e-03  9.3892663991115358e-03  9.4256074703191906e-03  9.4306754682788353e-03  9.4100982668205314e-03  9.3693456249624111e-03  9.3134653752288202e-03  9.2469618731956509e-03  9.1737255177411926e-03  9.0969675504469320e-03  9.0191512642707888e-03  8.9419476947654210e-03  8.8662725648443481e-03  8.7924326092841086e-03  8.7203155557454629e-03  8.6494996259628611e-03  8.5792321544402046e-03  8.5083979886013336e-03  8.4356275703274461e-03  8.3595449434208519e-03  8.2788962778269724e-03  8.1924724702758852e-03  8.0991355582331389e-03  7.9983279705818904e-03  7.8910627265780849e-03  7.7809782198308758e-03  7.6750137321235905e-03  7.5825871571951753e-03  7.5124552977928923e-03  7.4628737958562638e-03  1.4759097020665675e-02  1.4994385221488096e-02  7.7693515416512558e-03  7.9508461092811667e-03  8.1394576832930568e-03  8.3694091142344478e-03  8.6143422940401383e-03  8.8504107438185462e-03  9.0607911132299015e-03  9.2354068278555738e-03  9.3696336102661003e-03  9.4628249438814087e-03  9.5171698713442249e-03  9.5368142467165060e-03  9.5269764383634960e-03  9.4931388124218780e-03  9.4405595756886004e-03  9.3741113542974881e-03  9.2982457086028900e-03  9.2169296630569934e-03  9.1335262175804236e-03  9.0506328806977000e-03  8.9699258486458187e-03  8.8921459944789026e-03  8.8173293187175823e-03  8.7451975967263503e-03  8.6754060133401659e-03  8.6073421146615915e-03  8.5398128705945920e-03  8.4712220106784794e-03  8.4002554635585862e-03  8.3261465625986426e-03  8.2481950263423118e-03  8.1650461725403713e-03  8.0749846374283084e-03  7.9772158531745425e-03  7.8737877850017877e-03  7.7696894357140583e-03  7.6723066161590971e-03  7.5917857004274992e-03  7.5217658874384089e-03  1.4797731046728808e-02  1.5261500993419289e-02  8.1460246554283435e-03  8.4507299126716593e-03  8.6287788984885355e-03  8.8237288152395645e-03  9.0213739814023301e-03  9.2057998908753897e-03  9.3651137557916441e-03  9.4925045580071671e-03  9.5849821615124967e-03  9.6418636647028592e-03  9.6646493585481642e-03  9.6570856926401910e-03  9.6241674355225619e-03  9.5708976922611322e-03  9.5018076965392544e-03  9.4211451468739250e-03  9.3330858228987800e-03  9.2416349886834497e-03  9.1503685825478267e-03  9.0621260555192370e-03  8.9786055329204514e-03  8.9001492960992783e-03  8.8261046230221803e-03  8.7557956331700670e-03  8.6892080739221431e-03  8.6262399849655388e-03  8.5654980141656560e-03  8.5046444057211030e-03  8.4421680346542603e-03  8.3786448605284742e-03  8.3154226016510444e-03  8.2517117620394889e-03  8.1844052239013025e-03  8.1095508015783958e-03  8.0262712552108956e-03  7.9346600275634980e-03  7.8412880858606277e-03  7.7492607244590344e-03  7.6205358336270106e-03  1.4857412070842201e-02  1.5628139137844728e-02  8.9925874722778312e-03  9.5033339406048051e-03  9.5649565049081755e-03  9.6088128130284323e-03  9.6721071934122820e-03  9.7423091509473373e-03  9.8047447213110706e-03  9.8521580601350339e-03  9.8802341459374859e-03  9.8838979762747286e-03  9.8611486220117443e-03  9.8148974930632477e-03  9.7500821192854237e-03  9.6707513159294371e-03  9.5797285934068610e-03  9.4798708365340482e-03  9.3749494428444595e-03  9.2692518250758089e-03  9.1669118342762208e-03  9.0714116490215983e-03  8.9846830800206796e-03  8.9062820675994796e-03  8.8339693574481012e-03  8.7660243518974772e-03  8.7032864845729419e-03  8.6479888134078850e-03  8.5990657003956368e-03  8.5517313584133284e-03  8.5024121812787637e-03  8.4560343998216179e-03  8.4209177958281204e-03  8.4013766068237877e-03  8.3947939476350878e-03  8.3921598804279733e-03  8.3877217973025980e-03  8.3713241152173698e-03  8.3173608127634618e-03  8.1073798877105523e-03  7.7150773293783691e-03  1.4852395013318559e-02  1.8267799692718033e-02  1.1856155999494949e-02  1.2750066313308708e-02  1.1924883479871109e-02  1.1310018810264132e-02  1.0931921492594176e-02  1.0687886449417745e-02  1.0516988351812520e-02  1.0395592358156297e-02  1.0305458213099021e-02  1.0221319956710656e-02  1.0127185122580788e-02  1.0022738540494420e-02  9.9128604714258384e-03  9.7992374935917097e-03  9.6803688085138843e-03  9.5554911478621767e-03  9.4276528842873533e-03  9.3021156071238856e-03  9.1842802920079382e-03  9.0790606419970596e-03  8.9897686444791701e-03  8.9152652965558861e-03  8.8502675904292370e-03  8.7897370142779457e-03  8.7367977368880967e-03  8.7045547416439717e-03  8.6973373955151062e-03  8.7062287902813888e-03  8.7265408150519336e-03  8.7900653872344595e-03  8.9442297320366966e-03  9.2387831886336820e-03  9.6934519072439003e-03  1.0277920155276361e-02  1.0956707606710903e-02  1.1680051979556141e-02  1.2228506224986360e-02  1.1560714068267069e-02  9.5883686299525466e-03  1.5387008812288681e-02  8.4166243894398557e-02  6.1425236415912139e-02  4.5294215586881348e-02  2.7270360249110601e-02  1.9874043087112575e-02  1.6194206164164050e-02  1.4052521992005526e-02  1.2679920989488750e-02  1.1823901105014908e-02  1.1295532774900597e-02  1.0918592894714205e-02  1.0618764998153608e-02  1.0374517550335780e-02  1.0171277884616857e-02  9.9957143426045534e-03  9.8324735189736223e-03  9.6699970657023425e-03  9.5093706162358207e-03  9.3583167073236877e-03  9.2234407017892182e-03  9.1126688856469264e-03  9.0362694530769835e-03  8.9968178539709034e-03  8.9873365171800595e-03  9.0001905569107570e-03  9.0591030996329917e-03  9.2463676366863444e-03  9.6385384323271241e-03  1.0261727035344769e-02  1.1150145702539267e-02  1.2564013786449425e-02  1.5111451633313122e-02  2.0581396638540479e-02  3.4544665094236052e-02  6.9857573306327470e-02  1.3305190440923437e-01  2.2603823213330410e-01  2.9437785752574436e-01  3.3704059782055679e-01  3.6549885994579701e-01  1.5129450793276758e-01  5.8424683458175886e-01  5.4496629872246138e-01  4.0615813073831170e-01  2.6921355390248569e-01  1.6265134127596093e-01  8.2925931376349488e-02  4.0756082326147677e-02  2.5371239143941262e-02  1.9476796651710662e-02  1.6307115708696761e-02  1.4215542963578289e-02  1.2637743354866018e-02  1.1596701979934993e-02  1.0969064772404582e-02  1.0571163498076210e-02  1.0279403637453454e-02  1.0030487361431455e-02  9.8238230836403401e-03  9.6699731750308562e-03  9.5732124248885490e-03  9.5593838564045751e-03  9.6949352388643918e-03  1.0058850282723485e-02  1.0718907945304718e-02  1.1712507017630124e-02  1.3198612499806294e-02  1.6069605975994144e-02  2.3270734793065104e-02  4.2558580429608736e-02  9.0833995510872040e-02  1.9042998348617976e-01  3.3474637632325249e-01  4.3811728424744190e-01  5.6425560533542185e-01  7.4831342317375271e-01  8.7087773580062988e-01  9.4367957748888653e-01  9.7045432714340552e-01  9.7938290716879406e-01  9.8517059517801486e-01  9.7361555815102940e-01  8.2183387035172040e-01  7.9148725246544405e-01  7.2170055441076963e-01  6.4189756052884128e-01  5.4940334415178815e-01  4.4989158258451822e-01  3.3177127157210790e-01  2.1130419879777376e-01  1.0901465599103365e-01  4.8484058707480501e-02  2.7909181839924073e-02  2.1818648697560651e-02  1.8159046838576599e-02  1.5434576581857970e-02  1.3844238661862157e-02  1.3003315018285940e-02  1.2507396438056597e-02  1.2311931738366371e-02  1.2588068454268285e-02  1.3370613522479041e-02  1.4891443812041463e-02  1.7980246552338104e-02  2.5691900014911465e-02  4.8945181491028646e-02  1.1545320990968126e-01  2.5294554501880828e-01  4.8515302711251607e-01  5.9824169008637929e-01  6.7500852675981438e-01  7.8270890905331525e-01  8.8790793579729965e-01  9.4503895497729073e-01  9.6625803665563659e-01  9.7661019737234711e-01  9.8170305911526723e-01  9.8530735891722776e-01  9.8843817444803173e-01  9.9115849504084097e-01  9.9331806327296102e-01  9.9481182899741150e-01  9.8996768372690336e-01  8.7551324297909550e-01  8.8810043775998759e-01  8.5383469399255019e-01  8.2111309522117970e-01  7.7822113535493320e-01  7.2501659411349284e-01  6.5449954052242887e-01  5.6837615533950270e-01  4.7000698961460952e-01  3.5884595593298829e-01  2.5130550208484592e-01  1.5761164099450115e-01  8.9729643861717112e-02  5.1760877058812424e-02  3.9749558066308768e-02  4.0146708785352578e-02  4.3735131331830615e-02  5.0372618365933514e-02  6.9654921123379107e-02  1.1515442851126045e-01  1.9334055566127559e-01  3.2198887706196733e-01  4.8472820960389129e-01  6.3690966202826349e-01  7.7057015163812481e-01  8.7307939963868497e-01  9.3358263202370850e-01  9.5984446907336674e-01  9.7100476089243071e-01  9.7790757025405517e-01  9.8194534317690252e-01  9.8477896554493716e-01  9.8707737113484040e-01  9.8894455128639536e-01  9.9043208458007248e-01  9.9169270913149610e-01  9.9290136067259716e-01  9.9411183069164288e-01  9.9525890086001212e-01  9.9615618875557055e-01  9.9307957823648696e-01  8.1987502761835485e-01  8.3564802982796049e-01  8.2953254016594302e-01  8.2492185174587174e-01  8.2216958388143568e-01  8.1721174268459829e-01  7.9374164095877109e-01  7.5588461127957696e-01  7.1004310191437192e-01  6.5432203088110930e-01  5.8743221390037337e-01  5.1776374418957671e-01  4.5856565281286560e-01  4.1868676165421104e-01  4.0206136505606810e-01  4.1271034414314089e-01  4.5261369629650533e-01  5.2426671309742234e-01  6.2457607431891171e-01  7.3801998131960500e-01  8.4210057449050268e-01  9.1672828569522891e-01  9.5345312934396753e-01  9.6785498129880754e-01  9.7504668322605437e-01  9.7951048077037961e-01  9.8259067029380232e-01  9.8502200210342594e-01  9.8691750694493197e-01  9.8830928114432848e-01  9.8930251597108032e-01  9.8999717337982818e-01  9.9051486924499976e-01  9.9095111874161046e-01  9.9136954648500164e-01  9.9182652994705545e-01  9.9240203270862581e-01  9.9316441291407309e-01  9.9409117293902605e-01  9.9500714504930909e-01  9.9178526679943046e-01  5.9705814325234408e-01  6.2149987049587474e-01  6.7848701674808476e-01  6.9920066087330435e-01  7.1499655311792021e-01  7.5906215975326208e-01  7.8200865545620868e-01  7.8500289463534645e-01  7.8177048140068217e-01  7.7518462629711937e-01  7.6208179004716037e-01  7.4713534030940720e-01  7.4073552957260480e-01  7.4695920310749075e-01  7.7257998853304943e-01  8.2176168746128420e-01  8.8238864383755933e-01  9.3057143815356391e-01  9.5695181368989379e-01  9.6937912052237296e-01  9.7558613164763441e-01  9.7950302976345549e-01  9.8247970636965609e-01  9.8478369799319132e-01  9.8642734242262686e-01  9.8755958229368379e-01  9.8832236342878454e-01  9.8881911856117310e-01  9.8911462536985628e-01  9.8922888717999669e-01  9.8916719435226386e-01  9.8894914302405279e-01  9.8858456524723870e-01  9.8801769682633878e-01  9.8722256719892043e-01  9.8640755807769454e-01  9.8586628569389401e-01  9.8581363888293860e-01  9.8661260312442745e-01  9.8709937101544976e-01  9.8033977070074818e-01  4.5779523475128862e-02  9.3281349804392899e-02  1.7295944539036279e-01  2.5152092240057022e-01  3.6887754611104240e-01  4.9235478176541791e-01  5.5025384130179567e-01  5.8731985128279418e-01  6.3474934742748979e-01  6.8359536259478870e-01  7.3952268288046774e-01  7.6684557282174559e-01  7.9830628232708156e-01  8.4720167201706142e-01  8.9752160227194977e-01  9.3841929313498484e-01  9.6251121632529524e-01  9.7263459283605647e-01  9.7795082650551302e-01  9.8176878761079911e-01  9.8421461571314717e-01  9.8567916535670741e-01  9.8655886197599141e-01  9.8703758588954038e-01  9.8719043397230599e-01  9.8705148128428222e-01  9.8661647208826464e-01  9.8581572731308575e-01  9.8459492409938465e-01  9.8301244748278749e-01  9.8108612419427343e-01  9.7882148036676353e-01  9.7636225841713453e-01  9.7277103555461775e-01  9.6441004952604914e-01  9.4373060046830148e-01  8.9478014802057670e-01  7.8709525565756422e-01  5.9191433261639237e-01  4.0416427243380393e-01  3.4966331000307516e-01  1.5342638900924261e-02  9.5427633691678067e-03  1.2327583230527578e-02  1.7616944956015460e-02  3.1824943534641506e-02  7.8909059909490473e-02  2.1221324357356378e-01  3.6980118151482438e-01  4.8954659164504238e-01  5.0617905183875023e-01  5.6670313912389780e-01  6.9564556592267968e-01  7.5416446587873698e-01  8.1086635527839512e-01  8.8853551954024090e-01  9.4061217116589801e-01  9.7161808536195649e-01  9.8190268923222002e-01  9.8125229141670478e-01  9.8205834946230630e-01  9.8279909711128932e-01  9.8278064789531350e-01  9.8207135095612741e-01  9.8086333952630900e-01  9.7928588368187808e-01  9.7695204477576103e-01  9.7368167424584007e-01  9.6866244403486146e-01  9.5846020868624782e-01  9.3866356822725983e-01  9.0892258224433753e-01  8.5098943414587158e-01  7.1689062382748547e-01  5.4841610478280889e-01  4.0930196850615846e-01  3.1529099451713360e-01  1.8890815614827094e-01  7.5290243175558491e-02  2.8104424311104367e-02  1.2861680783655486e-02  1.7612160161813238e-02  1.4764901883563390e-02  7.6148892956001525e-03  8.1712322100310677e-03  9.1703594958265598e-03  1.0847925860873785e-02  1.3839337280423683e-02  1.9985067061519892e-02  3.5941095473816319e-02  8.6052176694097232e-02  2.1393256548892944e-01  4.9489699483063954e-01  4.2507506571076703e-01  8.0809406083088864e-01  7.9685624824802570e-01  8.5146912579329437e-01  9.0079305891895689e-01  9.4116322635337790e-01  9.6616832205023129e-01  9.7260219385018432e-01  9.7243514336410419e-01  9.7026640996591362e-01  9.6484984501348892e-01  9.5845909121753503e-01  9.3807744335000542e-01  8.9732679814902838e-01  8.3116006782811047e-01  7.1769291877243746e-01  5.7063975630103336e-01  4.3717618953977361e-01  3.2862334666255449e-01  2.1900153381928619e-01  1.1558532108026009e-01  5.6169161026239797e-02  3.1089999387145847e-02  2.1242290941407227e-02  1.6803632597695167e-02  1.4688859825568681e-02  1.3537559229909719e-02  1.2372831494298547e-02  1.0108356872082098e-02  1.5814559551365310e-02  1.4731262298970023e-02  7.4816461716552913e-03  7.7909865085917657e-03  8.3991184949642004e-03  9.3283079256550241e-03  1.0633288311704681e-02  1.2509091918481426e-02  1.5666441934231421e-02  2.2724517342388884e-02  4.1515336076962409e-02  1.0375331327968565e-01  3.7727771102114616e-01  4.4052326821585447e-01  7.3231866270366686e-01  7.9998538665980801e-01  8.2977253911228388e-01  8.4490842746807560e-01  8.5383669461001988e-01  8.4617009018979328e-01  8.1174719260822825e-01  7.5299980019313184e-01  6.7623080974622218e-01  6.1843900872386559e-01  5.6489431591939321e-01  3.2931666980203994e-01  1.6822781282664268e-01  7.5207993776006565e-02  3.5844932885616340e-02  2.2175037469402609e-02  1.6681968369724756e-02  1.4132794796790143e-02  1.2830442129499364e-02  1.2092796652101861e-02  1.1658960645191908e-02  1.1421631656584604e-02  1.1297147755705615e-02  1.1209863633664812e-02  1.1068290121135530e-02  1.0701858917383993e-02  9.5650008749922997e-03  1.5978403623716962e-02  1.4804139162363703e-02  7.5698115780511444e-03  7.8639132609230212e-03  8.3959440054611929e-03  9.2139331227220379e-03  1.0354518444742779e-02  1.1933474980987371e-02  1.4409979391273980e-02  2.0033253393729116e-02  4.1897263906566291e-02  1.5887264057049974e-01  3.8597831552605411e-01  6.0900666927924163e-01  6.1820176069460697e-01  6.7007197410156283e-01  6.7280020423027465e-01  6.1389351362042810e-01  4.9262275689538321e-01  3.3388473561351678e-01  2.1623715332679494e-01  1.3511503787184106e-01  7.0212699634142922e-02  3.4510696659710426e-02  2.0395495430747902e-02  1.5481688526170221e-02  1.3521805672733039e-02  1.2213652660200436e-02  1.1343090599535050e-02  1.0783203044617799e-02  1.0430852480409040e-02  1.0233254559376334e-02  1.0162664742458517e-02  1.0177652302560177e-02  1.0232068239563243e-02  1.0294401709751383e-02  1.0346379007521252e-02  1.0365678272337163e-02  1.0317474777620586e-02  1.0151612320969196e-02  9.4179629481072370e-03  1.5978903511552390e-02  1.4967688805840484e-02  7.8094373554304132e-03  8.1638500850438906e-03  8.6770302878831640e-03  9.4702333212478857e-03  1.0610558312759141e-02  1.2310017459248788e-02  1.5574934845595715e-02  2.6036954233720964e-02  8.8404119641399215e-02  3.7003890683040941e-01  5.4935657106948921e-01  5.4414310874892102e-01  5.6201879767372442e-01  5.2736179826926100e-01  4.3630489797832428e-01  2.8044197420248385e-01  1.0424728891495563e-01  3.5822123715623329e-02  2.3338851353337547e-02  1.6530358221807286e-02  1.3513698273581081e-02  1.1997888682379429e-02  1.1049082548301351e-02  1.0435773270629606e-02  1.0129159323055803e-02  9.9783061721505154e-03  9.8855867317692928e-03  9.8195752221332793e-03  9.7780664440610052e-03  9.7633774646437334e-03  9.7749385181674191e-03  9.8057236564706093e-03  9.8445630407238277e-03  9.8805186137171739e-03  9.9036960856857328e-03  9.9038100641561776e-03  9.8702910234873941e-03  9.7778032239639236e-03  9.1978768180814487e-03  1.5877542979375336e-02  1.5196155464558856e-02  8.1771889714101851e-03  8.6570414291144114e-03  9.1875962998932935e-03  1.0011460679759726e-02  1.1274691193625497e-02  1.3607701091114231e-02  2.0112225446576436e-02  5.4264148291951628e-02  2.5958870019221397e-01  5.9482904957459293e-01  5.8250613529027384e-01  5.5558511967772473e-01  5.0086101471029232e-01  3.7909534888632451e-01  1.9126951454689367e-01  4.9017066126768677e-02  2.1728752078633687e-02  1.6413486206557623e-02  1.3182965101572587e-02  1.1658096965138960e-02  1.0863876035301832e-02  1.0429331355634702e-02  1.0153895288926603e-02  9.9545690445704219e-03  9.8205471888306497e-03  9.7345983180102437e-03  9.6736385802071966e-03  9.6253726037485131e-03  9.5884418355127021e-03  9.5644546697101502e-03  9.5535902222924993e-03  9.5529547158899383e-03  9.5573299961804921e-03  9.5609037366354340e-03  9.5584416805447412e-03  9.5458156853914702e-03  9.5195470756854021e-03  9.4585508199926931e-03  8.9831655334371950e-03  1.5764040872015061e-02  1.5473043080078845e-02  8.6639893766103041e-03  9.3470588239966054e-03  9.9426595427318971e-03  1.0903650695568904e-02  1.2714238970935175e-02  1.7503836515410869e-02  3.9558947711678331e-02  1.862081834