<?xml version="1.0"?>
<VTKFile type="UnstructuredGrid"  version="0.1"  >
<UnstructuredGrid>
<Piece  NumberOfPoints="1681" NumberOfCells="3200">
<Points>
<DataArray  type="Float64"  NumberOfComponents="3"  format="ascii">0 0 0  0.025 0 0  0.05 0 0  0.075 0 0  0.1 0 0  0.125 0 0  0.15 0 0  0.175 0 0  0.2 0 0  0.225 0 0  0.25 0 0  0.275 0 0  0.3 0 0  0.325 0 0  0.35 0 0  0.375 0 0  0.4 0 0  0.425 0 0  0.45 0 0  0.475 0 0  0.5 0 0  0.525 0 0  0.55 0 0  0.575 0 0  0.6 0 0  0.625 0 0  0.65 0 0  0.675 0 0  0.7 0 0  0.725 0 0  0.75 0 0  0.775 0 0  0.8 0 0  0.825 0 0  0.85 0 0  0.875 0 0  0.9 0 0  0.925 0 0  0.95 0 0  0.975 0 0  1 0 0  0 0.025 0  0.025 0.025 0  0.05 0.025 0  0.075 0.025 0  0.1 0.025 0  0.125 0.025 0  0.15 0.025 0  0.175 0.025 0  0.2 0.025 0  0.225 0.025 0  0.25 0.025 0  0.275 0.025 0  0.3 0.025 0  0.325 0.025 0  0.35 0.025 0  0.375 0.025 0  0.4 0.025 0  0.425 0.025 0  0.45 0.025 0  0.475 0.025 0  0.5 0.025 0  0.525 0.025 0  0.55 0.025 0  0.575 0.025 0  0.6 0.025 0  0.625 0.025 0  0.65 0.025 0  0.675 0.025 0  0.7 0.025 0  0.725 0.025 0  0.75 0.025 0  0.775 0.025 0  0.8 0.025 0  0.825 0.025 0  0.85 0.025 0  0.875 0.025 0  0.9 0.025 0  0.925 0.025 0  0.95 0.025 0  0.975 0.025 0  1 0.025 0  0 0.05 0  0.025 0.05 0  0.05 0.05 0  0.075 0.05 0  0.1 0.05 0  0.125 0.05 0  0.15 0.05 0  0.175 0.05 0  0.2 0.05 0  0.225 0.05 0  0.25 0.05 0  0.275 0.05 0  0.3 0.05 0  0.325 0.05 0  0.35 0.05 0  0.375 0.05 0  0.4 0.05 0  0.425 0.05 0  0.45 0.05 0  0.475 0.05 0  0.5 0.05 0  0.525 0.05 0  0.55 0.05 0  0.575 0.05 0  0.6 0.05 0  0.625 0.05 0  0.65 0.05 0  0.675 0.05 0  0.7 0.05 0  0.725 0.05 0  0.75 0.05 0  0.775 0.05 0  0.8 0.05 0  0.825 0.05 0  0.85 0.05 0  0.875 0.05 0  0.9 0.05 0  0.925 0.05 0  0.95 0.05 0  0.975 0.05 0  1 0.05 0  0 0.075 0  0.025 0.075 0  0.05 0.075 0  0.075 0.075 0  0.1 0.075 0  0.125 0.075 0  0.15 0.075 0  0.175 0.075 0  0.2 0.075 0  0.225 0.075 0  0.25 0.075 0  0.275 0.075 0  0.3 0.075 0  0.325 0.075 0  0.35 0.075 0  0.375 0.075 0  0.4 0.075 0  0.425 0.075 0  0.45 0.075 0  0.475 0.075 0  0.5 0.075 0  0.525 0.075 0  0.55 0.075 0  0.575 0.075 0  0.6 0.075 0  0.625 0.075 0  0.65 0.075 0  0.675 0.075 0  0.7 0.075 0  0.725 0.075 0  0.75 0.075 0  0.775 0.075 0  0.8 0.075 0  0.825 0.075 0  0.85 0.075 0  0.875 0.075 0  0.9 0.075 0  0.925 0.075 0  0.95 0.075 0  0.975 0.075 0  1 0.075 0  0 0.1 0  0.025 0.1 0  0.05 0.1 0  0.075 0.1 0  0.1 0.1 0  0.125 0.1 0  0.15 0.1 0  0.175 0.1 0  0.2 0.1 0  0.225 0.1 0  0.25 0.1 0  0.275 0.1 0  0.3 0.1 0  0.325 0.1 0  0.35 0.1 0  0.375 0.1 0  0.4 0.1 0  0.425 0.1 0  0.45 0.1 0  0.475 0.1 0  0.5 0.1 0  0.525 0.1 0  0.55 0.1 0  0.575 0.1 0  0.6 0.1 0  0.625 0.1 0  0.65 0.1 0  0.675 0.1 0  0.7 0.1 0  0.725 0.1 0  0.75 0.1 0  0.775 0.1 0  0.8 0.1 0  0.825 0.1 0  0.85 0.1 0  0.875 0.1 0  0.9 0.1 0  0.925 0.1 0  0.95 0.1 0  0.975 0.1 0  1 0.1 0  0 0.125 0  0.025 0.125 0  0.05 0.125 0  0.075 0.125 0  0.1 0.125 0  0.125 0.125 0  0.15 0.125 0  0.175 0.125 0  0.2 0.125 0  0.225 0.125 0  0.25 0.125 0  0.275 0.125 0  0.3 0.125 0  0.325 0.125 0  0.35 0.125 0  0.375 0.125 0  0.4 0.125 0  0.425 0.125 0  0.45 0.125 0  0.475 0.125 0  0.5 0.125 0  0.525 0.125 0  0.55 0.125 0  0.575 0.125 0  0.6 0.125 0  0.625 0.125 0  0.65 0.125 0  0.675 0.125 0  0.7 0.125 0  0.725 0.125 0  0.75 0.125 0  0.775 0.125 0  0.8 0.125 0  0.825 0.125 0  0.85 0.125 0  0.875 0.125 0  0.9 0.125 0  0.925 0.125 0  0.95 0.125 0  0.975 0.125 0  1 0.125 0  0 0.15 0  0.025 0.15 0  0.05 0.15 0  0.075 0.15 0  0.1 0.15 0  0.125 0.15 0  0.15 0.15 0  0.175 0.15 0  0.2 0.15 0  0.225 0.15 0  0.25 0.15 0  0.275 0.15 0  0.3 0.15 0  0.325 0.15 0  0.35 0.15 0  0.375 0.15 0  0.4 0.15 0  0.425 0.15 0  0.45 0.15 0  0.475 0.15 0  0.5 0.15 0  0.525 0.15 0  0.55 0.15 0  0.575 0.15 0  0.6 0.15 0  0.625 0.15 0  0.65 0.15 0  0.675 0.15 0  0.7 0.15 0  0.725 0.15 0  0.75 0.15 0  0.775 0.15 0  0.8 0.15 0  0.825 0.15 0  0.85 0.15 0  0.875 0.15 0  0.9 0.15 0  0.925 0.15 0  0.95 0.15 0  0.975 0.15 0  1 0.15 0  0 0.175 0  0.025 0.175 0  0.05 0.175 0  0.075 0.175 0  0.1 0.175 0  0.125 0.175 0  0.15 0.175 0  0.175 0.175 0  0.2 0.175 0  0.225 0.175 0  0.25 0.175 0  0.275 0.175 0  0.3 0.175 0  0.325 0.175 0  0.35 0.175 0  0.375 0.175 0  0.4 0.175 0  0.425 0.175 0  0.45 0.175 0  0.475 0.175 0  0.5 0.175 0  0.525 0.175 0  0.55 0.175 0  0.575 0.175 0  0.6 0.175 0  0.625 0.175 0  0.65 0.175 0  0.675 0.175 0  0.7 0.175 0  0.725 0.175 0  0.75 0.175 0  0.775 0.175 0  0.8 0.175 0  0.825 0.175 0  0.85 0.175 0  0.875 0.175 0  0.9 0.175 0  0.925 0.175 0  0.95 0.175 0  0.975 0.175 0  1 0.175 0  0 0.2 0  0.025 0.2 0  0.05 0.2 0  0.075 0.2 0  0.1 0.2 0  0.125 0.2 0  0.15 0.2 0  0.175 0.2 0  0.2 0.2 0  0.225 0.2 0  0.25 0.2 0  0.275 0.2 0  0.3 0.2 0  0.325 0.2 0  0.35 0.2 0  0.375 0.2 0  0.4 0.2 0  0.425 0.2 0  0.45 0.2 0  0.475 0.2 0  0.5 0.2 0  0.525 0.2 0  0.55 0.2 0  0.575 0.2 0  0.6 0.2 0  0.625 0.2 0  0.65 0.2 0  0.675 0.2 0  0.7 0.2 0  0.725 0.2 0  0.75 0.2 0  0.775 0.2 0  0.8 0.2 0  0.825 0.2 0  0.85 0.2 0  0.875 0.2 0  0.9 0.2 0  0.925 0.2 0  0.95 0.2 0  0.975 0.2 0  1 0.2 0  0 0.225 0  0.025 0.225 0  0.05 0.225 0  0.075 0.225 0  0.1 0.225 0  0.125 0.225 0  0.15 0.225 0  0.175 0.225 0  0.2 0.225 0  0.225 0.225 0  0.25 0.225 0  0.275 0.225 0  0.3 0.225 0  0.325 0.225 0  0.35 0.225 0  0.375 0.225 0  0.4 0.225 0  0.425 0.225 0  0.45 0.225 0  0.475 0.225 0  0.5 0.225 0  0.525 0.225 0  0.55 0.225 0  0.575 0.225 0  0.6 0.225 0  0.625 0.225 0  0.65 0.225 0  0.675 0.225 0  0.7 0.225 0  0.725 0.225 0  0.75 0.225 0  0.775 0.225 0  0.8 0.225 0  0.825 0.225 0  0.85 0.225 0  0.875 0.225 0  0.9 0.225 0  0.925 0.225 0  0.95 0.225 0  0.975 0.225 0  1 0.225 0  0 0.25 0  0.025 0.25 0  0.05 0.25 0  0.075 0.25 0  0.1 0.25 0  0.125 0.25 0  0.15 0.25 0  0.175 0.25 0  0.2 0.25 0  0.225 0.25 0  0.25 0.25 0  0.275 0.25 0  0.3 0.25 0  0.325 0.25 0  0.35 0.25 0  0.375 0.25 0  0.4 0.25 0  0.425 0.25 0  0.45 0.25 0  0.475 0.25 0  0.5 0.25 0  0.525 0.25 0  0.55 0.25 0  0.575 0.25 0  0.6 0.25 0  0.625 0.25 0  0.65 0.25 0  0.675 0.25 0  0.7 0.25 0  0.725 0.25 0  0.75 0.25 0  0.775 0.25 0  0.8 0.25 0  0.825 0.25 0  0.85 0.25 0  0.875 0.25 0  0.9 0.25 0  0.925 0.25 0  0.95 0.25 0  0.975 0.25 0  1 0.25 0  0 0.275 0  0.025 0.275 0  0.05 0.275 0  0.075 0.275 0  0.1 0.275 0  0.125 0.275 0  0.15 0.275 0  0.175 0.275 0  0.2 0.275 0  0.225 0.275 0  0.25 0.275 0  0.275 0.275 0  0.3 0.275 0  0.325 0.275 0  0.35 0.275 0  0.375 0.275 0  0.4 0.275 0  0.425 0.275 0  0.45 0.275 0  0.475 0.275 0  0.5 0.275 0  0.525 0.275 0  0.55 0.275 0  0.575 0.275 0  0.6 0.275 0  0.625 0.275 0  0.65 0.275 0  0.675 0.275 0  0.7 0.275 0  0.725 0.275 0  0.75 0.275 0  0.775 0.275 0  0.8 0.275 0  0.825 0.275 0  0.85 0.275 0  0.875 0.275 0  0.9 0.275 0  0.925 0.275 0  0.95 0.275 0  0.975 0.275 0  1 0.275 0  0 0.3 0  0.025 0.3 0  0.05 0.3 0  0.075 0.3 0  0.1 0.3 0  0.125 0.3 0  0.15 0.3 0  0.175 0.3 0  0.2 0.3 0  0.225 0.3 0  0.25 0.3 0  0.275 0.3 0  0.3 0.3 0  0.325 0.3 0  0.35 0.3 0  0.375 0.3 0  0.4 0.3 0  0.425 0.3 0  0.45 0.3 0  0.475 0.3 0  0.5 0.3 0  0.525 0.3 0  0.55 0.3 0  0.575 0.3 0  0.6 0.3 0  0.625 0.3 0  0.65 0.3 0  0.675 0.3 0  0.7 0.3 0  0.725 0.3 0  0.75 0.3 0  0.775 0.3 0  0.8 0.3 0  0.825 0.3 0  0.85 0.3 0  0.875 0.3 0  0.9 0.3 0  0.925 0.3 0  0.95 0.3 0  0.975 0.3 0  1 0.3 0  0 0.325 0  0.025 0.325 0  0.05 0.325 0  0.075 0.325 0  0.1 0.325 0  0.125 0.325 0  0.15 0.325 0  0.175 0.325 0  0.2 0.325 0  0.225 0.325 0  0.25 0.325 0  0.275 0.325 0  0.3 0.325 0  0.325 0.325 0  0.35 0.325 0  0.375 0.325 0  0.4 0.325 0  0.425 0.325 0  0.45 0.325 0  0.475 0.325 0  0.5 0.325 0  0.525 0.325 0  0.55 0.325 0  0.575 0.325 0  0.6 0.325 0  0.625 0.325 0  0.65 0.325 0  0.675 0.325 0  0.7 0.325 0  0.725 0.325 0  0.75 0.325 0  0.775 0.325 0  0.8 0.325 0  0.825 0.325 0  0.85 0.325 0  0.875 0.325 0  0.9 0.325 0  0.925 0.325 0  0.95 0.325 0  0.975 0.325 0  1 0.325 0  0 0.35 0  0.025 0.35 0  0.05 0.35 0  0.075 0.35 0  0.1 0.35 0  0.125 0.35 0  0.15 0.35 0  0.175 0.35 0  0.2 0.35 0  0.225 0.35 0  0.25 0.35 0  0.275 0.35 0  0.3 0.35 0  0.325 0.35 0  0.35 0.35 0  0.375 0.35 0  0.4 0.35 0  0.425 0.35 0  0.45 0.35 0  0.475 0.35 0  0.5 0.35 0  0.525 0.35 0  0.55 0.35 0  0.575 0.35 0  0.6 0.35 0  0.625 0.35 0  0.65 0.35 0  0.675 0.35 0  0.7 0.35 0  0.725 0.35 0  0.75 0.35 0  0.775 0.35 0  0.8 0.35 0  0.825 0.35 0  0.85 0.35 0  0.875 0.35 0  0.9 0.35 0  0.925 0.35 0  0.95 0.35 0  0.975 0.35 0  1 0.35 0  0 0.375 0  0.025 0.375 0  0.05 0.375 0  0.075 0.375 0  0.1 0.375 0  0.125 0.375 0  0.15 0.375 0  0.175 0.375 0  0.2 0.375 0  0.225 0.375 0  0.25 0.375 0  0.275 0.375 0  0.3 0.375 0  0.325 0.375 0  0.35 0.375 0  0.375 0.375 0  0.4 0.375 0  0.425 0.375 0  0.45 0.375 0  0.475 0.375 0  0.5 0.375 0  0.525 0.375 0  0.55 0.375 0  0.575 0.375 0  0.6 0.375 0  0.625 0.375 0  0.65 0.375 0  0.675 0.375 0  0.7 0.375 0  0.725 0.375 0  0.75 0.375 0  0.775 0.375 0  0.8 0.375 0  0.825 0.375 0  0.85 0.375 0  0.875 0.375 0  0.9 0.375 0  0.925 0.375 0  0.95 0.375 0  0.975 0.375 0  1 0.375 0  0 0.4 0  0.025 0.4 0  0.05 0.4 0  0.075 0.4 0  0.1 0.4 0  0.125 0.4 0  0.15 0.4 0  0.175 0.4 0  0.2 0.4 0  0.225 0.4 0  0.25 0.4 0  0.275 0.4 0  0.3 0.4 0  0.325 0.4 0  0.35 0.4 0  0.375 0.4 0  0.4 0.4 0  0.425 0.4 0  0.45 0.4 0  0.475 0.4 0  0.5 0.4 0  0.525 0.4 0  0.55 0.4 0  0.575 0.4 0  0.6 0.4 0  0.625 0.4 0  0.65 0.4 0  0.675 0.4 0  0.7 0.4 0  0.725 0.4 0  0.75 0.4 0  0.775 0.4 0  0.8 0.4 0  0.825 0.4 0  0.85 0.4 0  0.875 0.4 0  0.9 0.4 0  0.925 0.4 0  0.95 0.4 0  0.975 0.4 0  1 0.4 0  0 0.425 0  0.025 0.425 0  0.05 0.425 0  0.075 0.425 0  0.1 0.425 0  0.125 0.425 0  0.15 0.425 0  0.175 0.425 0  0.2 0.425 0  0.225 0.425 0  0.25 0.425 0  0.275 0.425 0  0.3 0.425 0  0.325 0.425 0  0.35 0.425 0  0.375 0.425 0  0.4 0.425 0  0.425 0.425 0  0.45 0.425 0  0.475 0.425 0  0.5 0.425 0  0.525 0.425 0  0.55 0.425 0  0.575 0.425 0  0.6 0.425 0  0.625 0.425 0  0.65 0.425 0  0.675 0.425 0  0.7 0.425 0  0.725 0.425 0  0.75 0.425 0  0.775 0.425 0  0.8 0.425 0  0.825 0.425 0  0.85 0.425 0  0.875 0.425 0  0.9 0.425 0  0.925 0.425 0  0.95 0.425 0  0.975 0.425 0  1 0.425 0  0 0.45 0  0.02
[...]
<PointData  Scalars="ControlVisualisation"> 
<DataArray  type="Float64"  Name="ControlVisualisation"  format="ascii">3.3931459187160679e-01  2.8523839435724402e-01  2.8525612164007763e-01  2.8531552367962820e-01  2.8541980234982595e-01  2.8556687421170496e-01  2.8575425931545012e-01  2.8597920561848134e-01  2.8623855063963660e-01  2.8652868707669210e-01  2.8684564079524844e-01  2.8718516877910089e-01  2.8754284959777598e-01  2.8791415278073390e-01  2.8829448054029055e-01  2.8867917930424131e-01  2.8906352038319993e-01  2.8944265018669674e-01  2.8981151087168289e-01  2.9016473242093127e-01  2.9049649723890519e-01  2.9080037880567688e-01  2.9106915720135840e-01  2.9129461688529606e-01  2.9146733646233036e-01  2.9157648706074746e-01  2.9160966726043253e-01  2.9155282561222728e-01  2.9139037163077630e-01  2.9110569866192310e-01  2.9068259000735264e-01  2.9010837203086848e-01  2.8938028791868420e-01  2.8851621330708899e-01  2.8756879157219778e-01  2.8663760694506668e-01  2.8585916940896267e-01  2.8536402562942725e-01  2.8519416566758871e-01  2.8522099105984455e-01  3.9768977673728417e-01  2.8523837544121888e-01  1.6102666043223013e-01  1.6125771597340754e-01  1.6175883628784571e-01  1.6257270366735932e-01  1.6369792236413849e-01  1.6512059379711605e-01  1.6682310981713480e-01  1.6878434076466972e-01  1.7097968169234637e-01  1.7338145261968180e-01  1.7595940615210839e-01  1.7868123019429150e-01  1.8151295286088079e-01  1.8441920462340150e-01  1.8736331363358871e-01  1.9030722320521723e-01  1.9321122949195801e-01  1.9603354331829737e-01  1.9872968471838295e-01  2.0125172413901699e-01  2.0354739327883378e-01  2.0555910467027377e-01  2.0722294620290971e-01  2.0846775876876023e-01  2.0921446691218262e-01  2.0937592442301564e-01  2.0885769336881294e-01  2.0756047469169292e-01  2.0538556492456800e-01  2.0224587037079300e-01  1.9808693430673485e-01  1.9292413498040539e-01  1.8689887092706400e-01  1.8034757703818094e-01  1.7384482405159171e-01  1.6814444800310846e-01  1.6398451733148936e-01  1.6169594449743424e-01  1.6094292739816593e-01  2.8522027579868742e-01  2.8525601016285318e-01  1.6125820000623320e-01  1.6192605881891295e-01  1.6302116566305169e-01  1.6469623802404607e-01  1.6699896306017445e-01  1.6992684041557257e-01  1.7346224725782383e-01  1.7757894004153391e-01  1.8224332468113424e-01  1.8741447709409231e-01  1.9304426102683714e-01  1.9907756024274018e-01  2.0545253053764195e-01  2.1210078815569544e-01  2.1894745338023611e-01  2.2591097861853665e-01  2.3290269941619118e-01  2.3982605696650822e-01  2.4657545278226933e-01  2.5303471170116293e-01  2.5907515155920124e-01  2.6455329244000625e-01  2.6930829463361838e-01  2.7315930699076563e-01  2.7590306158622091e-01  2.7731231475363149e-01  2.7713621382908793e-01  2.7510456593453081e-01  2.7093972326557869e-01  2.6438271455766515e-01  2.5524514797842990e-01  2.4350131799423019e-01  2.2943121329440397e-01  2.1379722421173003e-01  1.9794110484682886e-01  1.8364818134348493e-01  1.7258067632719112e-01  1.6535568568541525e-01  1.6158958845005400e-01  2.8517074573618306e-01  2.8531546503121402e-01  1.6176317026972858e-01  1.6302995632616757e-01  1.6452560007472133e-01  1.6660311009281570e-01  1.6941256765581955e-01  1.7299044409497422e-01  1.7733746361406169e-01  1.8243988394521127e-01  1.8827425580736945e-01  1.9480762938554808e-01  2.0199710745909355e-01  2.0978934467844296e-01  2.1812015677552604e-01  2.2691420640932972e-01  2.3608469152392597e-01  2.4553294940886702e-01  2.5514788729533983e-01  2.6480515880069860e-01  2.7436602293138879e-01  2.8367584723494615e-01  2.9256224743888226e-01  3.0083289165610605e-01  3.0827303940834738e-01  3.1464294056321812e-01  3.1967530281658996e-01  3.2307318359904946e-01  3.2450895213833397e-01  3.2362555704469675e-01  3.2004264417371991e-01  3.1337275886363247e-01  3.0325905155499772e-01  2.8945405643745509e-01  2.7197677877099674e-01  2.5136461911181290e-01  2.2896877964973217e-01  2.0706749141017100e-01  1.8808270122397144e-01  1.7337191011353842e-01  1.6356397829652874e-01  2.8520829143952775e-01  2.8542077686509876e-01  1.6259129969845282e-01  1.6473723399950591e-01  1.6664271443896148e-01  1.6897876009138929e-01  1.7205034130629937e-01  1.7594692651872962e-01  1.8069021189220433e-01  1.8627880856025647e-01  1.9269907877311754e-01  1.9992689953502224e-01  2.0792734577604172e-01  2.1665393934118227e-01  2.2604794290874569e-01  2.3603775771015192e-01  2.4653839955086154e-01  2.5745099047371284e-01  2.6866219815355274e-01  2.8004356813703291e-01  2.9145072125862426e-01  3.0272242566238117e-01  3.1367959307001603e-01  3.2412428401873161e-01  3.3383882840965745e-01  3.4258516955606255e-01  3.5010451658498004e-01  3.5611732677367602e-01  3.6032347825847433e-01  3.6240208491931897e-01  3.6200959023361717e-01  3.5877349765556110e-01  3.5227944630663827e-01  3.4205391094642773e-01  3.2757294175333029e-01  3.0834249910121053e-01  2.8421994192755845e-01  2.5583742917406155e-01  2.2476512003031504e-01  1.9371489136498218e-01  1.6862229956525548e-01  2.8542234969117591e-01  2.8557135801488731e-01  1.6375304552293227e-01  1.6712187738828049e-01  1.6955588531172552e-01  1.7216321779608595e-01  1.7546319487322903e-01  1.7961388935481851e-01  1.8465917753604791e-01  1.9060655328049428e-01  1.9744732429114997e-01  2.0516122715227286e-01  2.1371701270938920e-01  2.2307212550128530e-01  2.3317230499682903e-01  2.4395129052639999e-01  2.5533064750441981e-01  2.6721967743115660e-01  2.7951537516749259e-01  2.9210242235553219e-01  3.0485324953324761e-01  3.1762825421860741e-01  3.3027631993420348e-01  3.4263583429066197e-01  3.5453645008106838e-01  3.6580187906659534e-01  3.7625406762499813e-01  3.8571916190383970e-01  3.9403556601191903e-01  4.0106361011019437e-01  4.0669369845642295e-01  4.1084335958878099e-01  4.1342221161841969e-01  4.1422559445654628e-01  4.1270658191896226e-01  4.0755265296089627e-01  3.9611074030668558e-01  3.7321134738883549e-01  3.3050315956521575e-01  2.5867479676996991e-01  1.8230162229190927e-01  2.8566180352497111e-01  2.8576683301723438e-01  1.6525094453190647e-01  1.7021948316875091e-01  1.7335250846709194e-01  1.7630453472580820e-01  1.7987275228982702e-01  1.8430568865555866e-01  1.8967438383022694e-01  1.9599382885303529e-01  2.0325660440952364e-01  2.1144178736516200e-01  2.2051718163525569e-01  2.3043998889333089e-01  2.4115726724618014e-01  2.5260652187775179e-01  2.6471648112070922e-01  2.7740804118592355e-01  2.9059537316694611e-01  3.0418723055467539e-01  3.1808856159935278e-01  3.3220260912623972e-01  3.4643376675354631e-01  3.6069156015450426e-01  3.7489626229412643e-01  3.8898689850898543e-01  4.0293286306384579e-01  4.1675116467297080e-01  4.3053236850077792e-01  4.4447894240423397e-01  4.5895797218165268e-01  4.7456219676120459e-01  4.9215153646409909e-01  5.1279719010148039e-01  5.3746804178514584e-01  5.6619063033102579e-01  5.9649370036428251e-01  6.2026997984055599e-01  6.1752498031028369e-01  5.3001085556168936e-01  2.9758089821963862e-01  2.9251250174251331e-01  2.8600708438190392e-01  1.6708799557030360e-01  1.7406263007811018e-01  1.7810306720839492e-01  1.8150730687364608e-01  1.8541649919511899e-01  1.9019693734612234e-01  1.9595560886966340e-01  2.0271596687790239e-01  2.1046971168061610e-01  2.1919185484382450e-01  2.2884545793133448e-01  2.3938381955366000e-01  2.5075225095756531e-01  2.6289000489420267e-01  2.7573245808029317e-01  2.8921355242849256e-01  3.0326852355356060e-01  3.1783701731944175e-01  3.3286679072463732e-01  3.4831830208495279e-01  3.6417062082690854e-01  3.8042925579552528e-01  3.9713678537604785e-01  4.1438772302461008e-01  4.3235011291625380e-01  4.5129819321346398e-01  4.7166309474475482e-01  4.9411099967614053e-01  5.1965708853940729e-01  5.4980960793540434e-01  5.8668381456217955e-01  6.3287278584391427e-01  6.9059446544611325e-01  7.5962240336303521e-01  8.3475307776246810e-01  9.0527356210986598e-01  9.5854735687801007e-01  9.9081457170390763e-01  9.6360209985543255e-01  5.7275543726561773e-01  2.8629201096119306e-01  1.6926729164174453e-01  1.7868774435569756e-01  1.8388442433220456e-01  1.8788034157366243e-01  1.9222826694097400e-01  1.9744456469877836e-01  2.0368436932855893e-01  2.1098222998991442e-01  2.1932751219811669e-01  2.2868810228584749e-01  2.3901879430983136e-01  2.5026562158996879e-01  2.6236939583729624e-01  2.7526932973368817e-01  2.8890691479466046e-01  3.0323008878044161e-01  3.1819776847777193e-01  3.3378493076801058e-01  3.4998855403113793e-01  3.6683487151101191e-01  3.8438854895501184e-01  4.0276462539274005e-01  4.2214445256580080e-01  4.4279762603154948e-01  4.6511327561000104e-01  4.8964619204015758e-01  5.1718544032800473e-01  5.4885232110854765e-01  5.8622141604972122e-01  6.3140408135112547e-01  6.8685502432240952e-01  7.5423186233737316e-01  8.3121143916952867e-01  9.0662355181669219e-01  9.6046828826165187e-01  9.8084450714291938e-01  9.8179209100682796e-01  9.8473332047348949e-01  9.8706908730132092e-01  9.7410451673554699e-01  2.8662137015053590e-01  1.7179139300854468e-01  1.8413672389746755e-01  1.9078707412401480e-01  1.9555178608919971e-01  2.0046365574511843e-01  2.0622651628078478e-01  2.1305915036461820e-01  2.2101100327419254e-01  2.3006762211527160e-01  2.4018623476814527e-01  2.5130935035405910e-01  2.6337207017409081e-01  2.7630788424127739e-01  2.9005427105085413e-01  3.0455838531944979e-01  3.1978291739745801e-01  3.3571226969460655e-01  3.5235933725313701e-01  3.6977333437876070e-01  3.8804926033067766e-01  4.0733975596441296e-01  4.2787031362472749e-01  4.4995914863727449e-01  4.7404362502842473e-01  5.0071591245623415e-01  5.3077080814864197e-01  5.6526556684460583e-01  6.0557708378810815e-01  6.5339460072376920e-01  7.1044902681526867e-01  7.7743608590835611e-01  8.5111969229897366e-01  9.1969563779729602e-01  9.6371318810624751e-01  9.7648882507518331e-01  9.7918431271326101e-01  9.8557461851483996e-01  9.9331461207222960e-01  9.9701744881976317e-01  9.8794137319699749e-01  2.8699472374737528e-01  1.7466201316973429e-01  1.9045735338666783e-01  1.9891824947408099e-01  2.0467619655897129e-01  2.1031157962179803e-01  2.1675818754312617e-01  2.2431736059569962e-01  2.3305815564558488e-01  2.4296024185441331e-01  2.5396552645598036e-01  2.6599912032752260e-01  2.7898075064964861e-01  2.9283337693307765e-01  3.0749095609560223e-01  3.2290583308820786e-01  3.3905594181526566e-01  3.5595207415072261e-01  3.7364563576240073e-01  3.9223745804996002e-01  4.1188834941500785e-01  4.3283214797149466e-01  4.5539209386312446e-01  4.8000136378874181e-01  5.0722845651142201e-01  5.3780712106277517e-01  5.7266648800809838e-01  6.1294410301222468e-01  6.5992901377606838e-01  7.1479479806327495e-01  7.7778958673514509e-01  8.4625858368540285e-01  9.1126458035072799e-01  9.5682176097672289e-01  9.7343221043130168e-01  9.7661987327488620e-01  9.8287533133653149e-01  9.8923503761668341e-01  9.9493847815057224e-01  9.9862009311131983e-01  9.9571765377030164e-01  2.8741140574244617e-01  1.7787987494166885e-01  1.9770406023990028e-01  2.0840496378101608e-01  2.1544068967431873e-01  2.2200352894911432e-01  2.2930429883583589e-01  2.3774919359261110e-01  2.4743229279198886e-01  2.5832430545911228e-01  2.7034555466991528e-01  2.8339721623111935e-01  2.9737831014712690e-01  3.1219774158536168e-01  3.2778424166168774e-01  3.4409503449546841e-01  3.6112363155332516e-01  3.7890720790446170e-01  3.9753415319425178e-01  4.1715247887053619e-01  4.3797976505218322e-01  4.6031522828025145e-01  4.8455424090841070e-01  5.1120508194819836e-01  5.4090637161350841e-01  5.7444016889531613e-01  6.1272656601081910e-01  6.5676293016855125e-01  7.0742016685543763e-01  7.6490960281519116e-01  8.2759207519271827e-01  8.8986186480954665e-01  9.4038622667019212e-01  9.6696357709780778e-01  9.7272170696223992e-01  9.7623087576928202e-01  9.8276864688311816e-01  9.8802624458139510e-01  9.9292827828169006e-01  9.9686978755878686e-01  9.9326013766710675e-01  2.8787049426804784e-01  1.8144476558020312e-01  2.0593939891507757e-01  2.1939801865920797e-01  2.2807231255905996e-01  2.3582421415148880e-01  2.4419173633337998e-01  2.5371111938166363e-01  2.6450725407167297e-01  2.7653745603682295e-01  2.8969242916605786e-01  3.0384160417847056e-01  3.1885756543569160e-01  3.3463206550672098e-01  3.5108781684564078e-01  3.6818754217902339e-01  3.8594112639990269e-01  4.0441167160966252e-01  4.2372128963349737e-01  4.4405740698072699e-01  4.6568016258763917e-01  4.8893111277326651e-01  5.1424281779808723e-01  5.4214768818228409e-01  5.7328199582023553e-01  6.0837545877607579e-01  6.4820445275447569e-01  6.9346066647480820e-01  7.4443824892713750e-01  8.0037416186074528e-01  8.5826239870480980e-01  9.1137188335031727e-01  9.4954468585782648e-01  9.6614847185095831e-01  9.6904970002855417e-01  9.7245857023636750e-01  9.7814945396536901e-01  9.8271116960586891e-01  9.8598575386633225e-01  9.8915994892440695e-01  9.8182542185483179e-01  2.8837078308258113e-01  1.8535590637382646e-01  2.1523682645963227e-01  2.3207798613219482e-01  2.4284803432095714e-01  2.5212538111440352e-01  2.6182550582138586e-01  2.7264144985828576e-01  2.8473460580729210e-01  2.9804309905960596e-01  3.1241869749096746e-01  3.2769105596977760e-01  3.4370171177087655e-01  3.6032433158142108e-01  3.7747743988229682e-01  3.9513231146197941e-01  4.1331769790701672e-01  4.3212276374545505e-01  4.5169939362421518e-01  4.7226471467903675e-01  4.9410421791429887e-01  5.1757521141321416e-01  5.4310935781832126e-01  5.7121140250712799e-01  6.0244813755423476e-01  6.3741559528554759e-01  6.7666052149954392e-01  7.2051049667792344e-01  7.6873556897684248e-01  8.1994450292967325e-01  8.7070740730093965e-01  9.1488816138553575e-01  9.4498460767903913e-01  9.5792349670313326e-01  9.6090811206924176e-01  9.6408852477178986e-01  9.6968443933960424e-01  9.7650576305812031e-01  9.8494588387465365e-01  9.9790527190996681e-01  8.0805420825943886e-01  2.8891075712289299e-01  1.8961294244065258e-01  2.2568587963150175e-01  2.4666474403214689e-01  2.6010909583452230e-01  2.7134450332795179e-01  2.8270916134839685e-01  2.9507862934304258e-01  3.0865587976427122e-01  3.2335352757347124e-01  3.3897567914797938e-01  3.5530661785860962e-01  3.7215640059150368e-01  3.8938487107420927e-01  4.0691347665731986e-01  4.2472965530333689e-01  4.4288685182012499e-01  4.6150238292665896e-01  4.8075469690526906e-01  5.0088088021460764e-01  5.2217450976588464e-01  5.4498307569630444e-01  5.6970305709261826e-01  5.9676901993497999e-01  6.2663025182174281e-01  6.5970345454610246e-01  6.9628150916627030e-01  7.3636582117154092e-01  7.7937869986854080e-01  8.2372754055620001e-01  8.6630661911857043e-01  9.0238458354557249e-01  9.2698299108261561e-01  9.3863259578450942e-01  9.4233106637821284e-01  9.4524533132628086e-01  9.5064479655561918e-01  9.5886625091669897e-01  9.4169003272313279e-01  6.2061658053812196e-01  3.4880511891402433e-01  2.8948859090541296e-01  1.9421817698631511e-01  2.3740190504656306e-01  2.6343359930460791e-01  2.8028277054299860e-01  2.9403071210573184e-01  3.0747071829435424e-01  3.2168140450319838e-01  3.3691177930545324e-01  3.5304490419302648e-01  3.6983354704336024e-01  3.8701863784685980e-01  4.0438756129658354e-01  4.2180010342545432e-01  4.3919625190714168e-01  4.5659393936391962e-01  4.7408183722785180e-01  4.9181046167573683e-01  5.0998345333837736e-01  5.2884973233089849e-01  5.4869622366448212e-01  5.6983989183773409e-01  5.9261676140564801e-01  6.1736420876504272e-01  6.4439077859860872e-01  6.7392473732075464e-01  7.0602840771902664e-01  7.4046140101742797e-01  7.7647831349975727e-01  8.1257237823438744e-01  8.4626126121972223e-01  8.7420130325099110e-01  8.9315650848268380e-01  9.0204660970388173e-01  9.0335301175392513e-01  9.0062099153419961e-01  8.9282068652770141e-01  8.6268187944584718e-01  7.2655234206179498e-01  3.7450086420802464e-01  3.0254776135491768e-01  2.9010221828724841e-01  1.9918132115758391e-01  2.5054457855795220e-01  2.8274396486696762e-01  3.0391712564353890e-01  3.2088134729453310e-01  3.3689407450103392e-01  3.5324720487094208e-01  3.7024162165812557e-01  3.8773578594314984e-01  4.0544114588373309e-01  4.2307337632863590e-01  4.4042217331311717e-01  4.5737532253377244e-01  4.7391815254636943e-01  4.9012117166356167e-01  5.0612355771690531e-01  5.2211673380342449e-01  5.3832989637626294e-01  5.5501773650544928e-01  5.7244946930675800e-01  5.9089744294669933e-01  6.1062284383281640e-01  6.3185518943740338e-01  6.5476130320309578e-01  6.7939833859094145e-01  7.0564462537128336e-01  7.3310324062679955e-01  7.6098022201339488e-01  7.8795964779785443e-01  8.1214084786043950e-01  8.3117125759600408e-01  8.4275681314053497e-01  8.4553654814091650e-01  8.3946811204818217e-01  8.2388873634545357e-01  7.9195021968324630e-01  7.1975920957993278e-01  5.5636423643346089e-01  2.9559144980996910e-01  2.9834322145633668e-01  2.9074961200234195e-01  2.0452944293164138e-01  2.6535363450838495e-01  3.0509227116785614e-01  3.3173879940939638e-01  3.5279327133969079e-01  3.7195255140782396e-01  3.9071870283207172e-01  4.0945907452819846e-01  4.2803486652830602e-01  4.4615401312895647e-01  4.6355244486924885e-01  4.8007052643162745e-01  4.9566959150118972e-01  5.1041845329667401e-01  5.2446836289385368e-01  5.3802663611250012e-01  5.5133363493157761e-01  5.6464438076889112e-01  5.7821414630607137e-01  5.9228635878261149e-01  6.0708063134737800e-01  6.2277844942417082e-01  6.3950384280015649e-01  6.5729627803580681e-01  6.7607320380116342e-01  6.9558068117294714e-01  7.1533334550348726e-01  7.3455111372173210e-01  7.5211074160922420e-01  7.6654380124570198e-01  7.7612100152412711e-01  7.7904695670485902e-01  7.7369172133283515e-01  7.5848042573449259e-01  7.3060659499716785e-01  6.8283631779815157e-01  5.9931609272442832e-01  4.5681845926930825e-01  2.6345481349902278e-01  2.9606920258293834e-01  2.9142963050729748e-01  2.1032757561184684e-01  2.8221873239532713e-01  3.3121145431252608e-01  3.6475023441261595e-01  3.9093097566164425e-01  4.1383111371697651e-01  4.3515481296952990e-01  4.5537781253441473e-01  4.7443575151347733e-01  4.9211665856401482e-01  5.0826024686944982e-01  5.2283267756092600e-01  5.3593008997915959e-01  5.4774966564945904e-01  5.5855213678174820e-01  5.6862774362853263e-01  5.7826986308970896e-01  5.8775627306089440e-01  5.9733609784545438e-01  6.0721986225780977e-01  6.1757007894235005e-01  6.2849003822998006e-01  6.4000883134743281e-01  6.5206115943534182e-01  6.6446135796816597e-01  6.7687264009272330e-01  6.8877524263326828e-01  6.9944103992144979e-01  7.0792601598260663e-01  7.1309167688257935e-01  7.1365556772491179e-01  7.0824593861279983e-01  6.9539669173804852e-01  6.7334796918425166e-01  6.3939421869975177e-01  5.8852549106699215e-01  5.1172202900672492e-01  3.9608154213704921e-01  2.4490415990543984e-01  2.9470954430246266e-01  2.9214399419522363e-01  2.1672199684704957e-01  3.0181771013402947e-01  3.6225726202368103e-01  4.0438809645834145e-01  4.3680021009540831e-01  4.6389805940552686e-01  4.8761584896083676e-01  5.0864256272018438e-01  5.2712986589965849e-01  5.4308776552844740e-01  5.5658208392130215e-01  5.6779992601105334e-01  5.7703921045676632e-01  5.8466690595826498e-01  5.9107373991123580e-01  5.9663799978988552e-01  6.0170128045525129e-01  6.0655428024001246e-01  6.1142919807192087e-01  6.1649531321384410e-01  6.2185495246150591e-01  6.2753781334480085e-01  6.3349239282448355e-01  6.3957413003153341e-01  6.4553096822401934e-01  6.5098856071989730e-01  6.5543934963390971e-01  6.5824180582257363e-01  6.5863663370977421e-01  6.5578236593816341e-01  6.4879963426532816e-01  6.3679242843546446e-01  6.1879685900047321e-01  5.9360210159118210e-01  5.5936539892531700e-01  5.1285555433008034e-01  4.4814750651138369e-01  3.5527881943468664e-01  2.3293425688862768e-01  2.9373812791995696e-01  2.9290310040181611e-01  2.2403354072640619e-01  3.2538882902964944e-01  4.0014792605854560e-01  4.5275415263254654e-01  4.9227003517378959e-01  5.2353061355889641e-01  5.4887072753065946e-01  5.694043346