<?xml version="1.0"?>
<VTKFile type="UnstructuredGrid"  version="0.1"  >
<UnstructuredGrid>
<Piece  NumberOfPoints="1681" NumberOfCells="3200">
<Points>
<DataArray  type="Float64"  NumberOfComponents="3"  format="ascii">0 0 0  0.025 0 0  0.05 0 0  0.075 0 0  0.1 0 0  0.125 0 0  0.15 0 0  0.175 0 0  0.2 0 0  0.225 0 0  0.25 0 0  0.275 0 0  0.3 0 0  0.325 0 0  0.35 0 0  0.375 0 0  0.4 0 0  0.425 0 0  0.45 0 0  0.475 0 0  0.5 0 0  0.525 0 0  0.55 0 0  0.575 0 0  0.6 0 0  0.625 0 0  0.65 0 0  0.675 0 0  0.7 0 0  0.725 0 0  0.75 0 0  0.775 0 0  0.8 0 0  0.825 0 0  0.85 0 0  0.875 0 0  0.9 0 0  0.925 0 0  0.95 0 0  0.975 0 0  1 0 0  0 0.025 0  0.025 0.025 0  0.05 0.025 0  0.075 0.025 0  0.1 0.025 0  0.125 0.025 0  0.15 0.025 0  0.175 0.025 0  0.2 0.025 0  0.225 0.025 0  0.25 0.025 0  0.275 0.025 0  0.3 0.025 0  0.325 0.025 0  0.35 0.025 0  0.375 0.025 0  0.4 0.025 0  0.425 0.025 0  0.45 0.025 0  0.475 0.025 0  0.5 0.025 0  0.525 0.025 0  0.55 0.025 0  0.575 0.025 0  0.6 0.025 0  0.625 0.025 0  0.65 0.025 0  0.675 0.025 0  0.7 0.025 0  0.725 0.025 0  0.75 0.025 0  0.775 0.025 0  0.8 0.025 0  0.825 0.025 0  0.85 0.025 0  0.875 0.025 0  0.9 0.025 0  0.925 0.025 0  0.95 0.025 0  0.975 0.025 0  1 0.025 0  0 0.05 0  0.025 0.05 0  0.05 0.05 0  0.075 0.05 0  0.1 0.05 0  0.125 0.05 0  0.15 0.05 0  0.175 0.05 0  0.2 0.05 0  0.225 0.05 0  0.25 0.05 0  0.275 0.05 0  0.3 0.05 0  0.325 0.05 0  0.35 0.05 0  0.375 0.05 0  0.4 0.05 0  0.425 0.05 0  0.45 0.05 0  0.475 0.05 0  0.5 0.05 0  0.525 0.05 0  0.55 0.05 0  0.575 0.05 0  0.6 0.05 0  0.625 0.05 0  0.65 0.05 0  0.675 0.05 0  0.7 0.05 0  0.725 0.05 0  0.75 0.05 0  0.775 0.05 0  0.8 0.05 0  0.825 0.05 0  0.85 0.05 0  0.875 0.05 0  0.9 0.05 0  0.925 0.05 0  0.95 0.05 0  0.975 0.05 0  1 0.05 0  0 0.075 0  0.025 0.075 0  0.05 0.075 0  0.075 0.075 0  0.1 0.075 0  0.125 0.075 0  0.15 0.075 0  0.175 0.075 0  0.2 0.075 0  0.225 0.075 0  0.25 0.075 0  0.275 0.075 0  0.3 0.075 0  0.325 0.075 0  0.35 0.075 0  0.375 0.075 0  0.4 0.075 0  0.425 0.075 0  0.45 0.075 0  0.475 0.075 0  0.5 0.075 0  0.525 0.075 0  0.55 0.075 0  0.575 0.075 0  0.6 0.075 0  0.625 0.075 0  0.65 0.075 0  0.675 0.075 0  0.7 0.075 0  0.725 0.075 0  0.75 0.075 0  0.775 0.075 0  0.8 0.075 0  0.825 0.075 0  0.85 0.075 0  0.875 0.075 0  0.9 0.075 0  0.925 0.075 0  0.95 0.075 0  0.975 0.075 0  1 0.075 0  0 0.1 0  0.025 0.1 0  0.05 0.1 0  0.075 0.1 0  0.1 0.1 0  0.125 0.1 0  0.15 0.1 0  0.175 0.1 0  0.2 0.1 0  0.225 0.1 0  0.25 0.1 0  0.275 0.1 0  0.3 0.1 0  0.325 0.1 0  0.35 0.1 0  0.375 0.1 0  0.4 0.1 0  0.425 0.1 0  0.45 0.1 0  0.475 0.1 0  0.5 0.1 0  0.525 0.1 0  0.55 0.1 0  0.575 0.1 0  0.6 0.1 0  0.625 0.1 0  0.65 0.1 0  0.675 0.1 0  0.7 0.1 0  0.725 0.1 0  0.75 0.1 0  0.775 0.1 0  0.8 0.1 0  0.825 0.1 0  0.85 0.1 0  0.875 0.1 0  0.9 0.1 0  0.925 0.1 0  0.95 0.1 0  0.975 0.1 0  1 0.1 0  0 0.125 0  0.025 0.125 0  0.05 0.125 0  0.075 0.125 0  0.1 0.125 0  0.125 0.125 0  0.15 0.125 0  0.175 0.125 0  0.2 0.125 0  0.225 0.125 0  0.25 0.125 0  0.275 0.125 0  0.3 0.125 0  0.325 0.125 0  0.35 0.125 0  0.375 0.125 0  0.4 0.125 0  0.425 0.125 0  0.45 0.125 0  0.475 0.125 0  0.5 0.125 0  0.525 0.125 0  0.55 0.125 0  0.575 0.125 0  0.6 0.125 0  0.625 0.125 0  0.65 0.125 0  0.675 0.125 0  0.7 0.125 0  0.725 0.125 0  0.75 0.125 0  0.775 0.125 0  0.8 0.125 0  0.825 0.125 0  0.85 0.125 0  0.875 0.125 0  0.9 0.125 0  0.925 0.125 0  0.95 0.125 0  0.975 0.125 0  1 0.125 0  0 0.15 0  0.025 0.15 0  0.05 0.15 0  0.075 0.15 0  0.1 0.15 0  0.125 0.15 0  0.15 0.15 0  0.175 0.15 0  0.2 0.15 0  0.225 0.15 0  0.25 0.15 0  0.275 0.15 0  0.3 0.15 0  0.325 0.15 0  0.35 0.15 0  0.375 0.15 0  0.4 0.15 0  0.425 0.15 0  0.45 0.15 0  0.475 0.15 0  0.5 0.15 0  0.525 0.15 0  0.55 0.15 0  0.575 0.15 0  0.6 0.15 0  0.625 0.15 0  0.65 0.15 0  0.675 0.15 0  0.7 0.15 0  0.725 0.15 0  0.75 0.15 0  0.775 0.15 0  0.8 0.15 0  0.825 0.15 0  0.85 0.15 0  0.875 0.15 0  0.9 0.15 0  0.925 0.15 0  0.95 0.15 0  0.975 0.15 0  1 0.15 0  0 0.175 0  0.025 0.175 0  0.05 0.175 0  0.075 0.175 0  0.1 0.175 0  0.125 0.175 0  0.15 0.175 0  0.175 0.175 0  0.2 0.175 0  0.225 0.175 0  0.25 0.175 0  0.275 0.175 0  0.3 0.175 0  0.325 0.175 0  0.35 0.175 0  0.375 0.175 0  0.4 0.175 0  0.425 0.175 0  0.45 0.175 0  0.475 0.175 0  0.5 0.175 0  0.525 0.175 0  0.55 0.175 0  0.575 0.175 0  0.6 0.175 0  0.625 0.175 0  0.65 0.175 0  0.675 0.175 0  0.7 0.175 0  0.725 0.175 0  0.75 0.175 0  0.775 0.175 0  0.8 0.175 0  0.825 0.175 0  0.85 0.175 0  0.875 0.175 0  0.9 0.175 0  0.925 0.175 0  0.95 0.175 0  0.975 0.175 0  1 0.175 0  0 0.2 0  0.025 0.2 0  0.05 0.2 0  0.075 0.2 0  0.1 0.2 0  0.125 0.2 0  0.15 0.2 0  0.175 0.2 0  0.2 0.2 0  0.225 0.2 0  0.25 0.2 0  0.275 0.2 0  0.3 0.2 0  0.325 0.2 0  0.35 0.2 0  0.375 0.2 0  0.4 0.2 0  0.425 0.2 0  0.45 0.2 0  0.475 0.2 0  0.5 0.2 0  0.525 0.2 0  0.55 0.2 0  0.575 0.2 0  0.6 0.2 0  0.625 0.2 0  0.65 0.2 0  0.675 0.2 0  0.7 0.2 0  0.725 0.2 0  0.75 0.2 0  0.775 0.2 0  0.8 0.2 0  0.825 0.2 0  0.85 0.2 0  0.875 0.2 0  0.9 0.2 0  0.925 0.2 0  0.95 0.2 0  0.975 0.2 0  1 0.2 0  0 0.225 0  0.025 0.225 0  0.05 0.225 0  0.075 0.225 0  0.1 0.225 0  0.125 0.225 0  0.15 0.225 0  0.175 0.225 0  0.2 0.225 0  0.225 0.225 0  0.25 0.225 0  0.275 0.225 0  0.3 0.225 0  0.325 0.225 0  0.35 0.225 0  0.375 0.225 0  0.4 0.225 0  0.425 0.225 0  0.45 0.225 0  0.475 0.225 0  0.5 0.225 0  0.525 0.225 0  0.55 0.225 0  0.575 0.225 0  0.6 0.225 0  0.625 0.225 0  0.65 0.225 0  0.675 0.225 0  0.7 0.225 0  0.725 0.225 0  0.75 0.225 0  0.775 0.225 0  0.8 0.225 0  0.825 0.225 0  0.85 0.225 0  0.875 0.225 0  0.9 0.225 0  0.925 0.225 0  0.95 0.225 0  0.975 0.225 0  1 0.225 0  0 0.25 0  0.025 0.25 0  0.05 0.25 0  0.075 0.25 0  0.1 0.25 0  0.125 0.25 0  0.15 0.25 0  0.175 0.25 0  0.2 0.25 0  0.225 0.25 0  0.25 0.25 0  0.275 0.25 0  0.3 0.25 0  0.325 0.25 0  0.35 0.25 0  0.375 0.25 0  0.4 0.25 0  0.425 0.25 0  0.45 0.25 0  0.475 0.25 0  0.5 0.25 0  0.525 0.25 0  0.55 0.25 0  0.575 0.25 0  0.6 0.25 0  0.625 0.25 0  0.65 0.25 0  0.675 0.25 0  0.7 0.25 0  0.725 0.25 0  0.75 0.25 0  0.775 0.25 0  0.8 0.25 0  0.825 0.25 0  0.85 0.25 0  0.875 0.25 0  0.9 0.25 0  0.925 0.25 0  0.95 0.25 0  0.975 0.25 0  1 0.25 0  0 0.275 0  0.025 0.275 0  0.05 0.275 0  0.075 0.275 0  0.1 0.275 0  0.125 0.275 0  0.15 0.275 0  0.175 0.275 0  0.2 0.275 0  0.225 0.275 0  0.25 0.275 0  0.275 0.275 0  0.3 0.275 0  0.325 0.275 0  0.35 0.275 0  0.375 0.275 0  0.4 0.275 0  0.425 0.275 0  0.45 0.275 0  0.475 0.275 0  0.5 0.275 0  0.525 0.275 0  0.55 0.275 0  0.575 0.275 0  0.6 0.275 0  0.625 0.275 0  0.65 0.275 0  0.675 0.275 0  0.7 0.275 0  0.725 0.275 0  0.75 0.275 0  0.775 0.275 0  0.8 0.275 0  0.825 0.275 0  0.85 0.275 0  0.875 0.275 0  0.9 0.275 0  0.925 0.275 0  0.95 0.275 0  0.975 0.275 0  1 0.275 0  0 0.3 0  0.025 0.3 0  0.05 0.3 0  0.075 0.3 0  0.1 0.3 0  0.125 0.3 0  0.15 0.3 0  0.175 0.3 0  0.2 0.3 0  0.225 0.3 0  0.25 0.3 0  0.275 0.3 0  0.3 0.3 0  0.325 0.3 0  0.35 0.3 0  0.375 0.3 0  0.4 0.3 0  0.425 0.3 0  0.45 0.3 0  0.475 0.3 0  0.5 0.3 0  0.525 0.3 0  0.55 0.3 0  0.575 0.3 0  0.6 0.3 0  0.625 0.3 0  0.65 0.3 0  0.675 0.3 0  0.7 0.3 0  0.725 0.3 0  0.75 0.3 0  0.775 0.3 0  0.8 0.3 0  0.825 0.3 0  0.85 0.3 0  0.875 0.3 0  0.9 0.3 0  0.925 0.3 0  0.95 0.3 0  0.975 0.3 0  1 0.3 0  0 0.325 0  0.025 0.325 0  0.05 0.325 0  0.075 0.325 0  0.1 0.325 0  0.125 0.325 0  0.15 0.325 0  0.175 0.325 0  0.2 0.325 0  0.225 0.325 0  0.25 0.325 0  0.275 0.325 0  0.3 0.325 0  0.325 0.325 0  0.35 0.325 0  0.375 0.325 0  0.4 0.325 0  0.425 0.325 0  0.45 0.325 0  0.475 0.325 0  0.5 0.325 0  0.525 0.325 0  0.55 0.325 0  0.575 0.325 0  0.6 0.325 0  0.625 0.325 0  0.65 0.325 0  0.675 0.325 0  0.7 0.325 0  0.725 0.325 0  0.75 0.325 0  0.775 0.325 0  0.8 0.325 0  0.825 0.325 0  0.85 0.325 0  0.875 0.325 0  0.9 0.325 0  0.925 0.325 0  0.95 0.325 0  0.975 0.325 0  1 0.325 0  0 0.35 0  0.025 0.35 0  0.05 0.35 0  0.075 0.35 0  0.1 0.35 0  0.125 0.35 0  0.15 0.35 0  0.175 0.35 0  0.2 0.35 0  0.225 0.35 0  0.25 0.35 0  0.275 0.35 0  0.3 0.35 0  0.325 0.35 0  0.35 0.35 0  0.375 0.35 0  0.4 0.35 0  0.425 0.35 0  0.45 0.35 0  0.475 0.35 0  0.5 0.35 0  0.525 0.35 0  0.55 0.35 0  0.575 0.35 0  0.6 0.35 0  0.625 0.35 0  0.65 0.35 0  0.675 0.35 0  0.7 0.35 0  0.725 0.35 0  0.75 0.35 0  0.775 0.35 0  0.8 0.35 0  0.825 0.35 0  0.85 0.35 0  0.875 0.35 0  0.9 0.35 0  0.925 0.35 0  0.95 0.35 0  0.975 0.35 0  1 0.35 0  0 0.375 0  0.025 0.375 0  0.05 0.375 0  0.075 0.375 0  0.1 0.375 0  0.125 0.375 0  0.15 0.375 0  0.175 0.375 0  0.2 0.375 0  0.225 0.375 0  0.25 0.375 0  0.275 0.375 0  0.3 0.375 0  0.325 0.375 0  0.35 0.375 0  0.375 0.375 0  0.4 0.375 0  0.425 0.375 0  0.45 0.375 0  0.475 0.375 0  0.5 0.375 0  0.525 0.375 0  0.55 0.375 0  0.575 0.375 0  0.6 0.375 0  0.625 0.375 0  0.65 0.375 0  0.675 0.375 0  0.7 0.375 0  0.725 0.375 0  0.75 0.375 0  0.775 0.375 0  0.8 0.375 0  0.825 0.375 0  0.85 0.375 0  0.875 0.375 0  0.9 0.375 0  0.925 0.375 0  0.95 0.375 0  0.975 0.375 0  1 0.375 0  0 0.4 0  0.025 0.4 0  0.05 0.4 0  0.075 0.4 0  0.1 0.4 0  0.125 0.4 0  0.15 0.4 0  0.175 0.4 0  0.2 0.4 0  0.225 0.4 0  0.25 0.4 0  0.275 0.4 0  0.3 0.4 0  0.325 0.4 0  0.35 0.4 0  0.375 0.4 0  0.4 0.4 0  0.425 0.4 0  0.45 0.4 0  0.475 0.4 0  0.5 0.4 0  0.525 0.4 0  0.55 0.4 0  0.575 0.4 0  0.6 0.4 0  0.625 0.4 0  0.65 0.4 0  0.675 0.4 0  0.7 0.4 0  0.725 0.4 0  0.75 0.4 0  0.775 0.4 0  0.8 0.4 0  0.825 0.4 0  0.85 0.4 0  0.875 0.4 0  0.9 0.4 0  0.925 0.4 0  0.95 0.4 0  0.975 0.4 0  1 0.4 0  0 0.425 0  0.025 0.425 0  0.05 0.425 0  0.075 0.425 0  0.1 0.425 0  0.125 0.425 0  0.15 0.425 0  0.175 0.425 0  0.2 0.425 0  0.225 0.425 0  0.25 0.425 0  0.275 0.425 0  0.3 0.425 0  0.325 0.425 0  0.35 0.425 0  0.375 0.425 0  0.4 0.425 0  0.425 0.425 0  0.45 0.425 0  0.475 0.425 0  0.5 0.425 0  0.525 0.425 0  0.55 0.425 0  0.575 0.425 0  0.6 0.425 0  0.625 0.425 0  0.65 0.425 0  0.675 0.425 0  0.7 0.425 0  0.725 0.425 0  0.75 0.425 0  0.775 0.425 0  0.8 0.425 0  0.825 0.425 0  0.85 0.425 0  0.875 0.425 0  0.9 0.425 0  0.925 0.425 0  0.95 0.425 0  0.975 0.425 0  1 0.425 0  0 0.45 0  0.02
[...]
<PointData  Scalars="ControlVisualisation"> 
<DataArray  type="Float64"  Name="ControlVisualisation"  format="ascii">1.8223558175782715e-07  1.1815889854686995e-07  1.1816435415610638e-07  1.1817361813625788e-07  1.1818664205783959e-07  1.1820339946815501e-07  1.1822383544876769e-07  1.1824786774989454e-07  1.1827537968296676e-07  1.1830621355386658e-07  1.1834016483532330e-07  1.1837697672360536e-07  1.1841633522832069e-07  1.1845786282559449e-07  1.1850111074970084e-07  1.1854554837733091e-07  1.1859055047090835e-07  1.1863538286996677e-07  1.1867918314241279e-07  1.1872093996682826e-07  1.1875947422039628e-07  1.1879343216124637e-07  1.1882125876624239e-07  1.1884112935986275e-07  1.1885096083311699e-07  1.1884864399612647e-07  1.1883101354776590e-07  1.1879584369601632e-07  1.1873452046764255e-07  1.1864649769681096e-07  1.1854389364809917e-07  1.1843969678833756e-07  1.1834001447184011e-07  1.1824854311591363e-07  1.1818139384281071e-07  1.1816426630499480e-07  1.1819340140666309e-07  1.1821895961846623e-07  1.1820171480471955e-07  1.1816668843011261e-07  3.7447131889946207e-07  1.1815889924349915e-07  5.4081347305864677e-08  5.4086636665345005e-08  5.4096080321304607e-08  5.4109759298685918e-08  5.4127644836385941e-08  5.4149683220426521e-08  5.4175794646208445e-08  5.4205862445281294e-08  5.4239725930149600e-08  5.4277173750086171e-08  5.4317937439804057e-08  5.4361685682020662e-08  5.4408017550086524e-08  5.4456453958253935e-08  5.4506426585479776e-08  5.4557262282132799e-08  5.4608166194884627e-08  5.4658200496561753e-08  5.4706276169461047e-08  5.4751117819671665e-08  5.4791239679321103e-08  5.4824844261708914e-08  5.4850018725835454e-08  5.4864693395721299e-08  5.4866722716886925e-08  5.4853335742266379e-08  5.4821243310893107e-08  5.4762146694563805e-08  5.4669556780258140e-08  5.4554231125528202e-08  5.4437446415234162e-08  5.4328549747561476e-08  5.4227909890246856e-08  5.4146034827672585e-08  5.4111587454829560e-08  5.4133148091350134e-08  5.4166155063410259e-08  5.4158659078630481e-08  5.4117180948820538e-08  1.1816870075604495e-07  1.1816436236893940e-07  5.4086642806910901e-08  5.4093216075231974e-08  5.4103940358566781e-08  5.4119504174016809e-08  5.4139898716807046e-08  5.4165069201677480e-08  5.4194928494022120e-08  5.4229347311412342e-08  5.4268146076715119e-08  5.4311087349494443e-08  5.4357869385324794e-08  5.4408120249120998e-08  5.4461390996340999e-08  5.4517147727565635e-08  5.4574758115726690e-08  5.4633472433913117e-08  5.4692406830655983e-08  5.4750522125459263e-08  5.4806624694305643e-08  5.4859250598825661e-08  5.4906772107500449e-08  5.4947200260694586e-08  5.4979053172234580e-08  5.4999405440155591e-08  5.5004986578883079e-08  5.4996106232283273e-08  5.4965463487105263e-08  5.4937964907872657e-08  5.4839410306806686e-08  5.4695587438667385e-08  5.4571550991866783e-08  5.4472783985738140e-08  5.4390700988335583e-08  5.4312201380243213e-08  5.4265319674455658e-08  5.4286675795254201e-08  5.4316683380420361e-08  5.4328190246884762e-08  5.4260290798548785e-08  1.1825778341897401e-07  1.1817365750046028e-07  5.4096114851488837e-08  5.4103972231970551e-08  5.4114830981137987e-08  5.4130519178475942e-08  5.4151083983692624e-08  5.4176480048547504e-08  5.4206624110461933e-08  5.4241389812434832e-08  5.4280599334580399e-08  5.4324016323856717e-08  5.4371341088669682e-08  5.4422206875203928e-08  5.4476175234765687e-08  5.4532730186898074e-08  5.4591263628849923e-08  5.4651069106215539e-08  5.4711301476088777e-08  5.4770948923359971e-08  5.4828812266480668e-08  5.4883636532693588e-08  5.4934324191946459e-08  5.4978675094159310e-08  5.5014113774282232e-08  5.5037621036209892e-08  5.5048222025676582e-08  5.5071367304469598e-08  5.5061189947543104e-08  5.5237967755233926e-08  5.5265777393016410e-08  5.5532876761954574e-08  5.6558953682068422e-08  5.8227784902300048e-08  5.9877836738333132e-08  5.9932401028037091e-08  5.7727769871398110e-08  5.5294767130623699e-08  5.4571485091770824e-08  5.4853643482950233e-08  5.4829681185727455e-08  1.1859487352031597e-07  1.1818676434109486e-07  5.4109874327065711e-08  5.4119628239312660e-08  5.4130613651649799e-08  5.4146356545522836e-08  5.4166998867520269e-08  5.4192507097814702e-08  5.4222804049615106e-08  5.4257767869451246e-08  5.4297223258091152e-08  5.4340935809434193e-08  5.4388610175810350e-08  5.4439888481324805e-08  5.4494350447997887e-08  5.4551512604793377e-08  5.4610817543348133e-08  5.4671640838874517e-08  5.4733123876414456e-08  5.4794392766610319e-08  5.4854257875352966e-08  5.4912468618405268e-08  5.4966401958305140e-08  5.5014643157092135e-08  5.5052648216073615e-08  5.5112431844062091e-08  5.5152471183462245e-08  5.5301116242935221e-08  5.5574363141557296e-08  5.9141701846726230e-08  6.4998900049566019e-08  7.2891320657021497e-08  9.5594836172905104e-08  1.5580086901189651e-07  4.3267935863642549e-07  2.4661702163276600e-06  3.5582994046518925e-07  1.2143339047710998e-07  7.7314406047448275e-08  5.7706591786344069e-08  5.6661521964734360e-08  1.1995155657512631e-07  1.1820369448010572e-07  5.4127934665634044e-08  5.4140226251691598e-08  5.4151391111018876e-08  5.4167219764288904e-08  5.4187982003845208e-08  5.4213658041607524e-08  5.4244177476685750e-08  5.4279422364858802e-08  5.4319218274635281e-08  5.4363330089855592e-08  5.4411464123967076e-08  5.4463271109602390e-08  5.4518359876421666e-08  5.4576284313852517e-08  5.4636553194264864e-08  5.4698617252590287e-08  5.4761781982455566e-08  5.4825734414036367e-08  5.4887720789858414e-08  5.4949113677562834e-08  5.5004688283004846e-08  5.5083632590051119e-08  5.5137953678530071e-08  5.5339441061919639e-08  5.5828768835516947e-08  6.0409398922601372e-08  6.9260950623118892e-08  9.7962020858173224e-08  1.6304957401585043e-06  2.3932882329752247e-01  5.0668162868859534e-01  7.7236256927060287e-01  9.9836683455088981e-01  9.9999937764172997e-01  9.9999920809181919e-01  8.8472412398970335e-01  4.9816601138325606e-01  1.7134934399362482e-02  7.0317435027499543e-08  1.4460557646804988e-07  1.1822443682801554e-07  5.4150293350372667e-08  5.4165775899267452e-08  5.4177192412735714e-08  5.4193163306126333e-08  5.4214119027820188e-08  5.4240055631380730e-08  5.4270908961557348e-08  5.4306562394435904e-08  5.4346837260847424e-08  5.4391491034419119e-08  5.4440224899072992e-08  5.4492700121248406e-08  5.4548560911058308e-08  5.4607359200536055e-08  5.4668770408934567e-08  5.4732335160144728e-08  5.4798280323132444e-08  5.4865078017953519e-08  5.4928588191202960e-08  5.4999151268841223e-08  5.5078188680954323e-08  5.5261440697110771e-08  5.5542715943448744e-08  5.9827810316882858e-08  6.9737900707686955e-08  1.0984618966230089e-07  6.6195847153976126e-02  4.3947564839704362e-01  9.4425826573241178e-01  9.9999986033019039e-01  9.9999993856008895e-01  9.9999996194070973e-01  9.9999997252482520e-01  9.9999997847865474e-01  9.9999998120641020e-01  9.9999998048574112e-01  9.9999997416279673e-01  9.9999994457604058e-01  4.6123353114569576e-01  1.4684360406978755e-07  1.1824895053757271e-07  5.4176923111034096e-08  5.4196261186557218e-08  5.4208023769413126e-08  5.4224224794915402e-08  5.4245486822941421e-08  5.4271822036961633e-08  5.4303169913078373e-08  5.4339410180559280e-08  5.4380350976617262e-08  5.4425730800886017e-08  5.4475222792660898e-08  5.4528498353157156e-08  5.4585220959873028e-08  5.4645060877839135e-08  5.4707942828250412e-08  5.4772599857424081e-08  5.4841966403212503e-08  5.4912577787269192e-08  5.5003865335925446e-08  5.5088320860187567e-08  5.5295709593089827e-08  5.7695702446392061e-08  6.5661513048440242e-08  9.4423113892696094e-08  3.5188732935798779e-02  4.6473595896091496e-01  9.9999914058392536e-01  9.9999991544054734e-01  9.9999996001338876e-01  9.9999997737772495e-01  9.9999998697980852e-01  9.9999999242980131e-01  9.9999999588573196e-01  9.9999999825047647e-01  9.9999999992891209e-01  1.0000000011090988e+00  1.0000000017909489e+00  1.0000000016826953e+00  1.0000000000634173e+00  9.9999996031906380e-01  1.1827714327906269e-07  5.4207747304643195e-08  5.4231617254303609e-08  5.4243854468446482e-08  5.4260421039142904e-08  5.4282160182368193e-08  5.4309097784011454e-08  5.4341172224141738e-08  5.4378252900659390e-08  5.4420123450900714e-08  5.4466469192160707e-08  5.4516882150985522e-08  5.4571075668270217e-08  5.4628747487264181e-08  5.4690134981926165e-08  5.4753858487419401e-08  5.4819064771647190e-08  5.4897148761609422e-08  5.4991268087855751e-08  5.5195291245929964e-08  5.5768685740519577e-08  6.1168769359850518e-08  7.8631440672142752e-08  3.4171969739817826e-07  3.2101105883325504e-01  9.8098331626747926e-01  9.9999990917556747e-01  9.9999996139374658e-01  9.9999998003417867e-01  9.9999998965673631e-01  9.9999999483902213e-01  9.9999999807653028e-01  1.0000000003262643e+00  1.0000000020294104e+00  1.0000000034067820e+00  1.0000000045742343e+00  1.0000000055865577e+00  1.0000000064517167e+00  1.0000000071431641e+00  1.0000000076124889e+00  1.0000000044310331e+00  1.1830883917583630e-07  5.4242608377833008e-08  5.4271698823267487e-08  5.4284590866488038e-08  5.4301729695746605e-08  5.4324202507657837e-08  5.4352042258251507e-08  5.4385178783317247e-08  5.4423458462476599e-08  5.4466634113671216e-08  5.4514283326989633e-08  5.4565907485647730e-08  5.4621016664228138e-08  5.4679315461002096e-08  5.4742909320506755e-08  5.4808784731112440e-08  5.4888931934460760e-08  5.4974931873540230e-08  5.5213009376968823e-08  5.8050831024152573e-08  6.7372213620692318e-08  1.1386365159695053e-07  1.2396093712702809e-01  7.3032922399641098e-01  9.9999986332431623e-01  9.9999995299661826e-01  9.9999997735722734e-01  9.9999998884801500e-01  9.9999999464439226e-01  9.9999999808775575e-01  1.0000000003735945e+00  1.0000000020310045e+00  1.0000000033291929e+00  1.0000000044181208e+00  1.0000000053817277e+00  1.0000000062609011e+00  1.0000000070626498e+00  1.0000000077658660e+00  1.0000000083305074e+00  1.0000000087072693e+00  1.0000000075145070e+00  1.1834373404325255e-07  5.4281222233067931e-08  5.4316233850052811e-08  5.4330040261496267e-08  5.4348066794927324e-08  5.4371659279419559e-08  5.4400839218117618e-08  5.4435502234688158e-08  5.4475479737962712e-08  5.4520559877034448e-08  5.4570156940611614e-08  5.4623536052867228e-08  5.4678532788860510e-08  5.4737619841135134e-08  5.4807443735741885e-08  5.4894715285929611e-08  5.5036860911925134e-08  5.5555936459915138e-08  6.0845381107630881e-08  7.9720361042811958e-08  4.9035928517537648e-07  4.0130932728619712e-01  9.9999950148153116e-01  9.9999993258358133e-01  9.9999997092044679e-01  9.9999998584497929e-01  9.9999999316482147e-01  9.9999999721462940e-01  9.9999999975612253e-01  1.0000000015015933e+00  1.0000000027919647e+00  1.0000000038136660e+00  1.0000000046779682e+00  1.0000000054540081e+00  1.0000000061821770e+00  1.0000000068784238e+00  1.0000000075353812e+00  1.0000000081234859e+00  1.0000000085990903e+00  1.0000000089186933e+00  1.0000000080684857e+00  1.1838132990540005e-07  5.4323112746497249e-08  5.4364758587603650e-08  5.4379863082525150e-08  5.4399262781174482e-08  5.4424551570299718e-08  5.4455697358582393e-08  5.4492536568527073e-08  5.4534948522775422e-08  5.4582681090528321e-08  5.4635181481933372e-08  5.4691662986042776e-08  5.4747329784664227e-08  5.4811742664918599e-08  5.4889731368668471e-08  5.5113382580780146e-08  5.7137754144374522e-08  6.5703119850707056e-08  1.0760927778589209e-07  1.1192896344048060e-01  7.5344153452243268e-01  9.9999987810396640e-01  9.9999995771892969e-01  9.9999998015234903e-01  9.9999999050767963e-01  9.9999999570150688e-01  9.9999999875430612e-01  1.0000000007392158e+00  1.0000000021266624e+00  1.0000000031575640e+00  1.0000000039693484e+00  1.0000000046480186e+00  1.0000000052510438e+00  1.0000000058175980e+00  1.0000000063720373e+00  1.0000000069237620e+00  1.0000000074657309e+00  1.0000000079725975e+00  1.0000000084063252e+00  1.0000000087159810e+00  1.0000000078202129e+00  1.1842083961797626e-07  5.4367516958248312e-08  5.4416529039279567e-08  5.4433510818936943e-08  5.4455020524284297e-08  5.4482874269795351e-08  5.4516957787980756e-08  5.4556911359499489e-08  5.4602382927628335e-08  5.4653139915870251e-08  5.4712337116324496e-08  5.4779439872224119e-08  5.4850706133226912e-08  5.4922432720778702e-08  5.5277972687367804e-08  5.9928636925048384e-08  7.5609914866830336e-08  2.6341184082947708e-07  3.4683070477980843e-01  9.9999931857964419e-01  9.9999993044449986e-01  9.9999997103594285e-01  9.9999998621782116e-01  9.9999999344485091e-01  9.9999999737184531e-01  9.9999999978213849e-01  1.0000000013837020e+00  1.0000000025117326e+00  1.0000000033447938e+00  1.0000000039878052e+00  1.0000000045076956e+00  1.0000000049504776e+00  1.0000000053495055e+00  1.0000000057290448e+00  1.0000000061048391e+00  1.0000000064828041e+00  1.0000000068563821e+00  1.0000000072051554e+00  1.0000000074969482e+00  1.0000000076639795e+00  1.0000000061379528e+00  1.1846104935831271e-07  5.4413251405595423e-08  5.4470392415600464e-08  5.4490128567005610e-08  5.4514897685434082e-08  5.4546736963246980e-08  5.4585207719076926e-08  5.4629309203344945e-08  5.4678445781307950e-08  5.4734148823080126e-08  5.4806002753197488e-08  5.4897211464498088e-08  5.5080090210570356e-08  5.6117860868725794e-08  6.3148499269542759e-08  9.3245439359651979e-08  5.7075339128787518e-02  6.6172183438577403e-01  9.9999985318161644e-01  9.9999995424336896e-01  9.9999997904527693e-01  9.9999999009882101e-01  9.9999999548102936e-01  9.9999999857039124e-01  1.0000000005264784e+00  1.0000000018455482e+00  1.0000000027748355e+00  1.0000000034507377e+00  1.0000000039545869e+00  1.0000000043381190e+00  1.0000000046361248e+00  1.0000000048728470e+00  1.0000000050648097e+00  1.0000000052210283e+00  1.0000000053404705e+00  1.0000000054052121e+00  1.0000000053642355e+00  1.0000000050928051e+00  1.0000000042473234e+00  1.0000000020257860e+00  9.9999999301274933e-01  1.1850011787210844e-07  5.4458507724689828e-08  5.4524612143787154e-08  5.4548515297481904e-08  5.4578348376628316e-08  5.4616080890850918e-08  5.4660889803492770e-08  5.4712672910586573e-08  5.4769424073628069e-08  5.4830384041782592e-08  5.4914767679369460e-08  5.5216138570584555e-08  5.9030309967229221e-08  7.0524837579785141e-08  1.5442125232926489e-07  2.3974482093493191e-01  9.8320201904719129e-01  9.9999991829319446e-01  9.9999996800878899e-01  9.9999998490758368e-01  9.9999999281195895e-01  9.9999999698329345e-01  9.9999999948273710e-01  1.0000000011007371e+00  1.0000000022011641e+00  1.0000000029722347e+00  1.0000000035199677e+00  1.0000000039076633e+00  1.0000000041745891e+00  1.0000000043451678e+00  1.0000000044334119e+00  1.0000000044442547e+00  1.0000000043718826e+00  1.0000000041936035e+00  1.0000000038542700e+00  1.0000000032253806e+00  1.0000000019814110e+00  9.9999999911247306e-01  9.9999999139689610e-01  9.9999992631836521e-01  1.6960925232287277e-06  1.1853522191272684e-07  5.4500560434521911e-08  5.4576748643106667e-08  5.4607060036800001e-08  5.4644284798905873e-08  5.4690821875116744e-08  5.4747992404598137e-08  5.4816643505680545e-08  5.4887278879571761e-08  5.4979631038921824e-08  5.5583104754699767e-08  6.1082314519660250e-08  8.3562348206296419e-08  1.0464603452420129e-05  5.1911660621426481e-01  9.9999978047276383e-01  9.9999994623510080e-01  9.9999997624200243e-01  9.9999998890034347e-01  9.9999999483471402e-01  9.9999999815285534e-01  1.0000000002092391e+00  1.0000000015641808e+00  1.0000000024895734e+00  1.0000000031310659e+00  1.0000000035719487e+00  1.0000000038614627e+00  1.0000000040284902e+00  1.0000000040881802e+00  1.0000000040445263e+00  1.0000000038898813e+00  1.0000000036006202e+00  1.0000000031258118e+00  1.0000000023601965e+00  1.0000000010732570e+00  9.9999999869151790e-01  9.9999999341859491e-01  9.9999997969337429e-01  9.9999987354949993e-01  5.1888302560979539e-07  1.2893479128290370e-07  1.1856211515014472e-07  5.4535436735193640e-08  5.4623368722977346e-08  5.4663498123852924e-08  5.4712597297901735e-08  5.4773805203222340e-08  5.4847733845333786e-08  5.4946370338601421e-08  5.5145384583157916e-08  5.7018420182409011e-08  6.5592945124081800e-08  1.1151627540007483e-07  1.3343643939452204e-01  8.3005245249292448e-01  9.9999989868506822e-01  9.9999996300663496e-01  9.9999998275239255e-01  9.9999999179736876e-01  9.9999999640123904e-01  9.9999999909597193e-01  1.0000000008085608e+00  1.0000000019511881e+00  1.0000000027317568e+00  1.0000000032641980e+00  1.0000000036139682e+00  1.0000000038189187e+00  1.0000000038991770e+00  1.0000000038616184e+00  1.0000000037007846e+00  1.0000000033964582e+00  1.0000000029063700e+00  1.0000000021488957e+00  1.0000000009625307e+00  9.9999999899946956e-01  9.9999999539341899e-01  9.9999998738951068e-01  9.9999996652661882e-01  9.9999979780320403e-01  1.0619747983646247e-01  6.6550570349408158e-08  1.2462315768625437e-07  1.1857422447197341e-07  5.4556889947471233e-08  5.4659485592786584e-08  5.4717733701259138e-08  5.4787721588795148e-08  5.4863267500796394e-08  5.4972051268980835e-08  5.5372319534347995e-08  5.9696518091250985e-08  7.4522776413527791e-08  2.4629226406850185e-07  3.5700814208189130e-01  9.9999950289080830e-01  9.9999993506213047e-01  9.9999997291962828e-01  9.9999998730219752e-01  9.9999999401814810e-01  9.9999999766242120e-01  9.9999999987772203e-01  1.0000000013151107e+00  1.0000000022821616e+00  1.0000000029397620e+00  1.0000000033778300e+00  1.0000000036477670e+00  1.0000000037779275e+00  1.0000000037808225e+00  1.0000000036557830e+00  1.0000000033883092e+00  1.0000000029455296e+00  1.0000000022653710e+00  1.0000000012323880e+00  9.9999999962038955e-01  9.9999999694058694e-01  9.9999999194630340e-01  9.9999998077135133e-01  9.9999994978922235e-01  9.9999946865696898e-01  1.2361055045744040e-01  8.0391047928160737e-08  5.6479486656748725e-08  1.1890012534728743e-07  1.1856104092661889e-07  5.4556144934981816e-08  5.4681973158812458e-08  5.4775871321769866e-08  5.4874572436781409e-08  5.4997851557629539e-08  5.5827229674054603e-08  6.1954269679391346e-08  8.8863539854627884e-08  3.9876918444329321e-02  6.4850916827264860e-01  9.9999985567759053e-01  9.9999995575321843e-01  9.9999997993364398e-01  9.9999999059561551e-01  9.9999999576256005e-01  9.9999999870434053e-01  1.0000000005418201e+00  1.0000000017524253e+00  1.0000000025702143e+00  1.0000000031208172e+00  1.0000000034750613e+00  1.0000000036729375e+00  1.0000000037347525e+00  1.0000000036661718e+00  1.0000000034593537e+00  1.0000000030907439e+00  1.0000000025142544e+00  1.0000000016459067e+00  1.0000000003303655e+00  9.9999999826025565e-01  9.9999999475545787e-01  9.9999998800263146e-01  9.9999997304361687e-01  9.9999992640285973e-01  9.1014914402402780e-01  7.1574981922898864e-02  8.3412004617690473e-08  5.7991555770550327e-08  5.4339874237777178e-08  1.1822116389622409e-07  1.1850997714819108e-07  5.4521235886971723e-08  5.4681951565955573e-08  5.4844242518478776e-08  5.5055459903648791e-08  5.6882086246892926e-08  6.5927156794675686e-08  1.2464047485828224e-07  1.8964373640740587e-01  9.4797171818924331e-01  9.9999991763342777e-01  9.9999996847702122e-01  9.9999998533084078e-01  9.9999999311104160e-01  9.9999999717232735e-01  9.9999999957940444e-01  1.0000000011150445e+00  1.0000000021362310e+00  1.0000000028247378e+00  1.0000000032799430e+00  1.0000000035577257e+00  1.0000000036885244e+00  1.0000000036856111e+00  1.0000000035482866e+00  1.0000000032615846e+00  1.0000000027923146e+00  1.0000000020795869e+00  1.0000000010140473e+00  9.9999999939148920e-01  9.9999999679743101e-01  9.9999999227150427e-01  9.9999998306851134e-01  9.9999996222035936e-01  9.9999987979959126e-01  6.6543621157749377e-01  6.9924447437366560e-03  7.9115828848455476e-08  5.8821108716425611e-08  5.4804016242404905e-08  5.4332114680364865e-08  1.1825477664444161e-07  1.1840280070391218e-07  5.4436291498683046e-08  5.4679755744962362e-08  5.5088625343552839e-08  5.8701379870116007e-08  7.2518241994260444e-08  2.4377543213738687e-07  4.1010391110981315e-01  9.999997239