<?xml version="1.0"?>
<VTKFile type="UnstructuredGrid"  version="0.1"  >
<UnstructuredGrid>
<Piece  NumberOfPoints="1681" NumberOfCells="3200">
<Points>
<DataArray  type="Float64"  NumberOfComponents="3"  format="ascii">0 0 0  0.025 0 0  0.05 0 0  0.075 0 0  0.1 0 0  0.125 0 0  0.15 0 0  0.175 0 0  0.2 0 0  0.225 0 0  0.25 0 0  0.275 0 0  0.3 0 0  0.325 0 0  0.35 0 0  0.375 0 0  0.4 0 0  0.425 0 0  0.45 0 0  0.475 0 0  0.5 0 0  0.525 0 0  0.55 0 0  0.575 0 0  0.6 0 0  0.625 0 0  0.65 0 0  0.675 0 0  0.7 0 0  0.725 0 0  0.75 0 0  0.775 0 0  0.8 0 0  0.825 0 0  0.85 0 0  0.875 0 0  0.9 0 0  0.925 0 0  0.95 0 0  0.975 0 0  1 0 0  0 0.025 0  0.025 0.025 0  0.05 0.025 0  0.075 0.025 0  0.1 0.025 0  0.125 0.025 0  0.15 0.025 0  0.175 0.025 0  0.2 0.025 0  0.225 0.025 0  0.25 0.025 0  0.275 0.025 0  0.3 0.025 0  0.325 0.025 0  0.35 0.025 0  0.375 0.025 0  0.4 0.025 0  0.425 0.025 0  0.45 0.025 0  0.475 0.025 0  0.5 0.025 0  0.525 0.025 0  0.55 0.025 0  0.575 0.025 0  0.6 0.025 0  0.625 0.025 0  0.65 0.025 0  0.675 0.025 0  0.7 0.025 0  0.725 0.025 0  0.75 0.025 0  0.775 0.025 0  0.8 0.025 0  0.825 0.025 0  0.85 0.025 0  0.875 0.025 0  0.9 0.025 0  0.925 0.025 0  0.95 0.025 0  0.975 0.025 0  1 0.025 0  0 0.05 0  0.025 0.05 0  0.05 0.05 0  0.075 0.05 0  0.1 0.05 0  0.125 0.05 0  0.15 0.05 0  0.175 0.05 0  0.2 0.05 0  0.225 0.05 0  0.25 0.05 0  0.275 0.05 0  0.3 0.05 0  0.325 0.05 0  0.35 0.05 0  0.375 0.05 0  0.4 0.05 0  0.425 0.05 0  0.45 0.05 0  0.475 0.05 0  0.5 0.05 0  0.525 0.05 0  0.55 0.05 0  0.575 0.05 0  0.6 0.05 0  0.625 0.05 0  0.65 0.05 0  0.675 0.05 0  0.7 0.05 0  0.725 0.05 0  0.75 0.05 0  0.775 0.05 0  0.8 0.05 0  0.825 0.05 0  0.85 0.05 0  0.875 0.05 0  0.9 0.05 0  0.925 0.05 0  0.95 0.05 0  0.975 0.05 0  1 0.05 0  0 0.075 0  0.025 0.075 0  0.05 0.075 0  0.075 0.075 0  0.1 0.075 0  0.125 0.075 0  0.15 0.075 0  0.175 0.075 0  0.2 0.075 0  0.225 0.075 0  0.25 0.075 0  0.275 0.075 0  0.3 0.075 0  0.325 0.075 0  0.35 0.075 0  0.375 0.075 0  0.4 0.075 0  0.425 0.075 0  0.45 0.075 0  0.475 0.075 0  0.5 0.075 0  0.525 0.075 0  0.55 0.075 0  0.575 0.075 0  0.6 0.075 0  0.625 0.075 0  0.65 0.075 0  0.675 0.075 0  0.7 0.075 0  0.725 0.075 0  0.75 0.075 0  0.775 0.075 0  0.8 0.075 0  0.825 0.075 0  0.85 0.075 0  0.875 0.075 0  0.9 0.075 0  0.925 0.075 0  0.95 0.075 0  0.975 0.075 0  1 0.075 0  0 0.1 0  0.025 0.1 0  0.05 0.1 0  0.075 0.1 0  0.1 0.1 0  0.125 0.1 0  0.15 0.1 0  0.175 0.1 0  0.2 0.1 0  0.225 0.1 0  0.25 0.1 0  0.275 0.1 0  0.3 0.1 0  0.325 0.1 0  0.35 0.1 0  0.375 0.1 0  0.4 0.1 0  0.425 0.1 0  0.45 0.1 0  0.475 0.1 0  0.5 0.1 0  0.525 0.1 0  0.55 0.1 0  0.575 0.1 0  0.6 0.1 0  0.625 0.1 0  0.65 0.1 0  0.675 0.1 0  0.7 0.1 0  0.725 0.1 0  0.75 0.1 0  0.775 0.1 0  0.8 0.1 0  0.825 0.1 0  0.85 0.1 0  0.875 0.1 0  0.9 0.1 0  0.925 0.1 0  0.95 0.1 0  0.975 0.1 0  1 0.1 0  0 0.125 0  0.025 0.125 0  0.05 0.125 0  0.075 0.125 0  0.1 0.125 0  0.125 0.125 0  0.15 0.125 0  0.175 0.125 0  0.2 0.125 0  0.225 0.125 0  0.25 0.125 0  0.275 0.125 0  0.3 0.125 0  0.325 0.125 0  0.35 0.125 0  0.375 0.125 0  0.4 0.125 0  0.425 0.125 0  0.45 0.125 0  0.475 0.125 0  0.5 0.125 0  0.525 0.125 0  0.55 0.125 0  0.575 0.125 0  0.6 0.125 0  0.625 0.125 0  0.65 0.125 0  0.675 0.125 0  0.7 0.125 0  0.725 0.125 0  0.75 0.125 0  0.775 0.125 0  0.8 0.125 0  0.825 0.125 0  0.85 0.125 0  0.875 0.125 0  0.9 0.125 0  0.925 0.125 0  0.95 0.125 0  0.975 0.125 0  1 0.125 0  0 0.15 0  0.025 0.15 0  0.05 0.15 0  0.075 0.15 0  0.1 0.15 0  0.125 0.15 0  0.15 0.15 0  0.175 0.15 0  0.2 0.15 0  0.225 0.15 0  0.25 0.15 0  0.275 0.15 0  0.3 0.15 0  0.325 0.15 0  0.35 0.15 0  0.375 0.15 0  0.4 0.15 0  0.425 0.15 0  0.45 0.15 0  0.475 0.15 0  0.5 0.15 0  0.525 0.15 0  0.55 0.15 0  0.575 0.15 0  0.6 0.15 0  0.625 0.15 0  0.65 0.15 0  0.675 0.15 0  0.7 0.15 0  0.725 0.15 0  0.75 0.15 0  0.775 0.15 0  0.8 0.15 0  0.825 0.15 0  0.85 0.15 0  0.875 0.15 0  0.9 0.15 0  0.925 0.15 0  0.95 0.15 0  0.975 0.15 0  1 0.15 0  0 0.175 0  0.025 0.175 0  0.05 0.175 0  0.075 0.175 0  0.1 0.175 0  0.125 0.175 0  0.15 0.175 0  0.175 0.175 0  0.2 0.175 0  0.225 0.175 0  0.25 0.175 0  0.275 0.175 0  0.3 0.175 0  0.325 0.175 0  0.35 0.175 0  0.375 0.175 0  0.4 0.175 0  0.425 0.175 0  0.45 0.175 0  0.475 0.175 0  0.5 0.175 0  0.525 0.175 0  0.55 0.175 0  0.575 0.175 0  0.6 0.175 0  0.625 0.175 0  0.65 0.175 0  0.675 0.175 0  0.7 0.175 0  0.725 0.175 0  0.75 0.175 0  0.775 0.175 0  0.8 0.175 0  0.825 0.175 0  0.85 0.175 0  0.875 0.175 0  0.9 0.175 0  0.925 0.175 0  0.95 0.175 0  0.975 0.175 0  1 0.175 0  0 0.2 0  0.025 0.2 0  0.05 0.2 0  0.075 0.2 0  0.1 0.2 0  0.125 0.2 0  0.15 0.2 0  0.175 0.2 0  0.2 0.2 0  0.225 0.2 0  0.25 0.2 0  0.275 0.2 0  0.3 0.2 0  0.325 0.2 0  0.35 0.2 0  0.375 0.2 0  0.4 0.2 0  0.425 0.2 0  0.45 0.2 0  0.475 0.2 0  0.5 0.2 0  0.525 0.2 0  0.55 0.2 0  0.575 0.2 0  0.6 0.2 0  0.625 0.2 0  0.65 0.2 0  0.675 0.2 0  0.7 0.2 0  0.725 0.2 0  0.75 0.2 0  0.775 0.2 0  0.8 0.2 0  0.825 0.2 0  0.85 0.2 0  0.875 0.2 0  0.9 0.2 0  0.925 0.2 0  0.95 0.2 0  0.975 0.2 0  1 0.2 0  0 0.225 0  0.025 0.225 0  0.05 0.225 0  0.075 0.225 0  0.1 0.225 0  0.125 0.225 0  0.15 0.225 0  0.175 0.225 0  0.2 0.225 0  0.225 0.225 0  0.25 0.225 0  0.275 0.225 0  0.3 0.225 0  0.325 0.225 0  0.35 0.225 0  0.375 0.225 0  0.4 0.225 0  0.425 0.225 0  0.45 0.225 0  0.475 0.225 0  0.5 0.225 0  0.525 0.225 0  0.55 0.225 0  0.575 0.225 0  0.6 0.225 0  0.625 0.225 0  0.65 0.225 0  0.675 0.225 0  0.7 0.225 0  0.725 0.225 0  0.75 0.225 0  0.775 0.225 0  0.8 0.225 0  0.825 0.225 0  0.85 0.225 0  0.875 0.225 0  0.9 0.225 0  0.925 0.225 0  0.95 0.225 0  0.975 0.225 0  1 0.225 0  0 0.25 0  0.025 0.25 0  0.05 0.25 0  0.075 0.25 0  0.1 0.25 0  0.125 0.25 0  0.15 0.25 0  0.175 0.25 0  0.2 0.25 0  0.225 0.25 0  0.25 0.25 0  0.275 0.25 0  0.3 0.25 0  0.325 0.25 0  0.35 0.25 0  0.375 0.25 0  0.4 0.25 0  0.425 0.25 0  0.45 0.25 0  0.475 0.25 0  0.5 0.25 0  0.525 0.25 0  0.55 0.25 0  0.575 0.25 0  0.6 0.25 0  0.625 0.25 0  0.65 0.25 0  0.675 0.25 0  0.7 0.25 0  0.725 0.25 0  0.75 0.25 0  0.775 0.25 0  0.8 0.25 0  0.825 0.25 0  0.85 0.25 0  0.875 0.25 0  0.9 0.25 0  0.925 0.25 0  0.95 0.25 0  0.975 0.25 0  1 0.25 0  0 0.275 0  0.025 0.275 0  0.05 0.275 0  0.075 0.275 0  0.1 0.275 0  0.125 0.275 0  0.15 0.275 0  0.175 0.275 0  0.2 0.275 0  0.225 0.275 0  0.25 0.275 0  0.275 0.275 0  0.3 0.275 0  0.325 0.275 0  0.35 0.275 0  0.375 0.275 0  0.4 0.275 0  0.425 0.275 0  0.45 0.275 0  0.475 0.275 0  0.5 0.275 0  0.525 0.275 0  0.55 0.275 0  0.575 0.275 0  0.6 0.275 0  0.625 0.275 0  0.65 0.275 0  0.675 0.275 0  0.7 0.275 0  0.725 0.275 0  0.75 0.275 0  0.775 0.275 0  0.8 0.275 0  0.825 0.275 0  0.85 0.275 0  0.875 0.275 0  0.9 0.275 0  0.925 0.275 0  0.95 0.275 0  0.975 0.275 0  1 0.275 0  0 0.3 0  0.025 0.3 0  0.05 0.3 0  0.075 0.3 0  0.1 0.3 0  0.125 0.3 0  0.15 0.3 0  0.175 0.3 0  0.2 0.3 0  0.225 0.3 0  0.25 0.3 0  0.275 0.3 0  0.3 0.3 0  0.325 0.3 0  0.35 0.3 0  0.375 0.3 0  0.4 0.3 0  0.425 0.3 0  0.45 0.3 0  0.475 0.3 0  0.5 0.3 0  0.525 0.3 0  0.55 0.3 0  0.575 0.3 0  0.6 0.3 0  0.625 0.3 0  0.65 0.3 0  0.675 0.3 0  0.7 0.3 0  0.725 0.3 0  0.75 0.3 0  0.775 0.3 0  0.8 0.3 0  0.825 0.3 0  0.85 0.3 0  0.875 0.3 0  0.9 0.3 0  0.925 0.3 0  0.95 0.3 0  0.975 0.3 0  1 0.3 0  0 0.325 0  0.025 0.325 0  0.05 0.325 0  0.075 0.325 0  0.1 0.325 0  0.125 0.325 0  0.15 0.325 0  0.175 0.325 0  0.2 0.325 0  0.225 0.325 0  0.25 0.325 0  0.275 0.325 0  0.3 0.325 0  0.325 0.325 0  0.35 0.325 0  0.375 0.325 0  0.4 0.325 0  0.425 0.325 0  0.45 0.325 0  0.475 0.325 0  0.5 0.325 0  0.525 0.325 0  0.55 0.325 0  0.575 0.325 0  0.6 0.325 0  0.625 0.325 0  0.65 0.325 0  0.675 0.325 0  0.7 0.325 0  0.725 0.325 0  0.75 0.325 0  0.775 0.325 0  0.8 0.325 0  0.825 0.325 0  0.85 0.325 0  0.875 0.325 0  0.9 0.325 0  0.925 0.325 0  0.95 0.325 0  0.975 0.325 0  1 0.325 0  0 0.35 0  0.025 0.35 0  0.05 0.35 0  0.075 0.35 0  0.1 0.35 0  0.125 0.35 0  0.15 0.35 0  0.175 0.35 0  0.2 0.35 0  0.225 0.35 0  0.25 0.35 0  0.275 0.35 0  0.3 0.35 0  0.325 0.35 0  0.35 0.35 0  0.375 0.35 0  0.4 0.35 0  0.425 0.35 0  0.45 0.35 0  0.475 0.35 0  0.5 0.35 0  0.525 0.35 0  0.55 0.35 0  0.575 0.35 0  0.6 0.35 0  0.625 0.35 0  0.65 0.35 0  0.675 0.35 0  0.7 0.35 0  0.725 0.35 0  0.75 0.35 0  0.775 0.35 0  0.8 0.35 0  0.825 0.35 0  0.85 0.35 0  0.875 0.35 0  0.9 0.35 0  0.925 0.35 0  0.95 0.35 0  0.975 0.35 0  1 0.35 0  0 0.375 0  0.025 0.375 0  0.05 0.375 0  0.075 0.375 0  0.1 0.375 0  0.125 0.375 0  0.15 0.375 0  0.175 0.375 0  0.2 0.375 0  0.225 0.375 0  0.25 0.375 0  0.275 0.375 0  0.3 0.375 0  0.325 0.375 0  0.35 0.375 0  0.375 0.375 0  0.4 0.375 0  0.425 0.375 0  0.45 0.375 0  0.475 0.375 0  0.5 0.375 0  0.525 0.375 0  0.55 0.375 0  0.575 0.375 0  0.6 0.375 0  0.625 0.375 0  0.65 0.375 0  0.675 0.375 0  0.7 0.375 0  0.725 0.375 0  0.75 0.375 0  0.775 0.375 0  0.8 0.375 0  0.825 0.375 0  0.85 0.375 0  0.875 0.375 0  0.9 0.375 0  0.925 0.375 0  0.95 0.375 0  0.975 0.375 0  1 0.375 0  0 0.4 0  0.025 0.4 0  0.05 0.4 0  0.075 0.4 0  0.1 0.4 0  0.125 0.4 0  0.15 0.4 0  0.175 0.4 0  0.2 0.4 0  0.225 0.4 0  0.25 0.4 0  0.275 0.4 0  0.3 0.4 0  0.325 0.4 0  0.35 0.4 0  0.375 0.4 0  0.4 0.4 0  0.425 0.4 0  0.45 0.4 0  0.475 0.4 0  0.5 0.4 0  0.525 0.4 0  0.55 0.4 0  0.575 0.4 0  0.6 0.4 0  0.625 0.4 0  0.65 0.4 0  0.675 0.4 0  0.7 0.4 0  0.725 0.4 0  0.75 0.4 0  0.775 0.4 0  0.8 0.4 0  0.825 0.4 0  0.85 0.4 0  0.875 0.4 0  0.9 0.4 0  0.925 0.4 0  0.95 0.4 0  0.975 0.4 0  1 0.4 0  0 0.425 0  0.025 0.425 0  0.05 0.425 0  0.075 0.425 0  0.1 0.425 0  0.125 0.425 0  0.15 0.425 0  0.175 0.425 0  0.2 0.425 0  0.225 0.425 0  0.25 0.425 0  0.275 0.425 0  0.3 0.425 0  0.325 0.425 0  0.35 0.425 0  0.375 0.425 0  0.4 0.425 0  0.425 0.425 0  0.45 0.425 0  0.475 0.425 0  0.5 0.425 0  0.525 0.425 0  0.55 0.425 0  0.575 0.425 0  0.6 0.425 0  0.625 0.425 0  0.65 0.425 0  0.675 0.425 0  0.7 0.425 0  0.725 0.425 0  0.75 0.425 0  0.775 0.425 0  0.8 0.425 0  0.825 0.425 0  0.85 0.425 0  0.875 0.425 0  0.9 0.425 0  0.925 0.425 0  0.95 0.425 0  0.975 0.425 0  1 0.425 0  0 0.45 0  0.02
[...]
<PointData  Scalars="ControlVisualisation"> 
<DataArray  type="Float64"  Name="ControlVisualisation"  format="ascii">1.7606944767520395e-03  1.1688749726188592e-03  1.1689160836710248e-03  1.1689860387521448e-03  1.1690846322550800e-03  1.1692118530603913e-03  1.1693674810325494e-03  1.1695510512074025e-03  1.1697617642471968e-03  1.1699983968792578e-03  1.1702592222728771e-03  1.1705419345631159e-03  1.1708435638374986e-03  1.1711603636151409e-03  1.1714876404459507e-03  1.1718195440682466e-03  1.1721488708050295e-03  1.1724670347109433e-03  1.1727651109140137e-03  1.1730349507205232e-03  1.1732721350358731e-03  1.1734756930582792e-03  1.1736481938711414e-03  1.1737793977297346e-03  1.1738685670693819e-03  1.1738647116538098e-03  1.1737989849634719e-03  1.1736743212776737e-03  1.1732813158595405e-03  1.1724086594974855e-03  1.1712490913296412e-03  1.1701883917931634e-03  1.1693779176609781e-03  1.1689282434902170e-03  1.1690152375060771e-03  1.1696019480496853e-03  1.1702767477342496e-03  1.1704693490892806e-03  1.1698833214834504e-03  1.1690783547914751e-03  3.6512565020532552e-03  1.1688749681961642e-03  5.8412191014328057e-04  5.8416018971475586e-04  5.8422883707733150e-04  5.8432851073683526e-04  5.8445919926331555e-04  5.8462071131099849e-04  5.8481262753610726e-04  5.8503418452515862e-04  5.8528417915004760e-04  5.8556088038928182e-04  5.8586194842674688e-04  5.8618435110019363e-04  5.8652425623118899e-04  5.8687684238576722e-04  5.8723605759119872e-04  5.8759429154153081e-04  5.8794243885217535e-04  5.8827030324897834e-04  5.8856738672786904e-04  5.8882770406703557e-04  5.8905217084209509e-04  5.8925081743988752e-04  5.8941699741817480e-04  5.8953080273058155e-04  5.8954411974354169e-04  5.8948188848910303e-04  5.8936486840351066e-04  5.8935185305632437e-04  5.8853513729617156e-04  5.8724337252769466e-04  5.8606316476838693e-04  5.8515090531408747e-04  5.8454918876849082e-04  5.8444712401345509e-04  5.8495944311446853e-04  5.8569782582818767e-04  5.8615554210914467e-04  5.8583877339880418e-04  5.8492655022994206e-04  1.1691187688616844e-03  1.1689160328258491e-03  5.8416015783750133e-04  5.8420708650296267e-04  5.8428442075794868e-04  5.8439689133670588e-04  5.8454467522528258e-04  5.8472760738252443e-04  5.8494525009404868e-04  5.8519677196875754e-04  5.8548084051488381e-04  5.8579552503669095e-04  5.8613821891612215e-04  5.8650557830843366e-04  5.8689343017509228e-04  5.8729656442774798e-04  5.8770846037630125e-04  5.8812054828129897e-04  5.8852232560183322e-04  5.8889908701772239e-04  5.8923709304799254e-04  5.8952639604685074e-04  5.8977187057463192e-04  5.8999242045646837e-04  5.9020805541307576e-04  5.9032672243135645e-04  5.9055003007116704e-04  5.9043390059417163e-04  5.9047268474113237e-04  5.9256210332799366e-04  5.9263492445409333e-04  5.9388386927614262e-04  5.9796145877575560e-04  6.0211393233296803e-04  6.0088514515592927e-04  5.9341664993591708e-04  5.8746689795728245e-04  5.8623948838621700e-04  5.8761141294559637e-04  5.8890069224343331e-04  5.8797348881630275e-04  1.1710914386145945e-03  1.1689857975296987e-03  5.8422865985926966e-04  5.8428426981719963e-04  5.8436261539513118e-04  5.8447606539704629e-04  5.8462523268546017e-04  5.8481004299607237e-04  5.8503011292200047e-04  5.8528465423591624e-04  5.8557236125917505e-04  5.8589131877004644e-04  5.8623894450920522e-04  5.8661199976169890e-04  5.8700657470326647e-04  5.8741809357001169e-04  5.8784073380687091e-04  5.8826612300313106e-04  5.8868342373453336e-04  5.8907416283896430e-04  5.8942922536617595e-04  5.8969368674270022e-04  5.8988986598853936e-04  5.9004821791571881e-04  5.9055501697776065e-04  5.9076794620994977e-04  5.9219162989571897e-04  5.9239507670762019e-04  5.9907225186468403e-04  6.4378083411262158e-04  6.9518590694748702e-04  7.4763136430254615e-04  8.7241184514424280e-04  1.0390245064261698e-03  1.1364321403458132e-03  1.0251281362934767e-03  8.5596826775672752e-04  7.1176238173890471e-04  6.0558184402166885e-04  5.9743626132772087e-04  6.0144262272549638e-04  1.1794952960315678e-03  1.1690838789194149e-03  5.8432791963652312e-04  5.8439631499396022e-04  5.8447566147828717e-04  5.8458966879582422e-04  5.8473966798505076e-04  5.8492570274639290e-04  5.8514746776708738e-04  5.8540423745767742e-04  5.8569474600427289e-04  5.8601708270930944e-04  5.8636865601041600e-04  5.8674633239530927e-04  5.8714660942398239e-04  5.8756613908081813e-04  5.8799984396840663e-04  5.8844257856677153e-04  5.8888309698334324e-04  5.8930623771125449e-04  5.8968949184817461e-04  5.8989194150436172e-04  5.9011225407031985e-04  5.9013588728260989e-04  5.9177635959839026e-04  5.9319572319061170e-04  6.1806982102623729e-04  6.7671535677126297e-04  7.7791931374834779e-04  1.2867050791176135e-03  1.1796398795815091e-02  2.1769800409293708e-01  4.0167163673635864e-01  5.6937431742241240e-01  6.5767708265730673e-01  6.3621471306234356e-01  4.9673198829028464e-01  2.3134547289773646e-01  3.8752727267799790e-03  7.2037013944187939e-04  6.3560752753848008e-04  1.2130607833353015e-03  1.1692099929614182e-03  5.8445768513618697e-04  5.8454316860541693e-04  5.8462399544481191e-04  5.8473893544971575e-04  5.8489027950594976e-04  5.8507820860730152e-04  5.8530250874122222e-04  5.8556252832581233e-04  5.8585704223560668e-04  5.8618409267972805e-04  5.8654098500868516e-04  5.8692439801380579e-04  5.8733108693175321e-04  5.8775942409611823e-04  5.8820729333713875e-04  5.8868042630578772e-04  5.8914597601452789e-04  5.8962871998463823e-04  5.9006616030367158e-04  5.9060770724722459e-04  5.9089843323100908e-04  5.9096943364390095e-04  6.1632482068028633e-04  6.8743539365597275e-04  8.7062889648363930e-04  2.8578718865708242e-03  2.0691377656591606e-01  5.7118481362898588e-01  9.9168139176530568e-01  9.9899192520889479e-01  9.9941618338621852e-01  9.9955560654807440e-01  9.9961287683411337e-01  9.9962916715871830e-01  9.9959751862732116e-01  9.9944388798082962e-01  9.9841761075643298e-01  3.2922166651387891e-01  8.1870428757469600e-04  1.6491222080785161e-03  1.1693635027713446e-03  5.8461739827603948e-04  5.8472433225802503e-04  5.8480732689403453e-04  5.8492385947386371e-04  5.8507740704450469e-04  5.8526829533199097e-04  5.8549639695648138e-04  5.8576114951721476e-04  5.8606139020116405e-04  5.8639511954595709e-04  5.8675927672561146e-04  5.8714931152077947e-04  5.8756226618947684e-04  5.8799785519832420e-04  5.8846375223154009e-04  5.8897163073925215e-04  5.8946592844091178e-04  5.9014689013087412e-04  5.9079769738027007e-04  5.9328492297196244e-04  6.0165874128785871e-04  6.4912127008919201e-04  8.1977527416546357e-04  2.7426881274771487e-03  2.5116097944269544e-01  7.6723845543410929e-01  9.9862120418561906e-01  9.9949978444789012e-01  9.9967327024242747e-01  9.9976468184800504e-01  9.9982115179903686e-01  9.9985355584369695e-01  9.9987418463576905e-01  9.9988701819564640e-01  9.9989285780620096e-01  9.9988901689314036e-01  9.9986383320715155e-01  9.9976133505108256e-01  9.9310341525118695e-01  1.4831199741270730e-03  1.1695432816970055e-03  5.8480605703603778e-04  5.8493885560528347e-04  5.8502498404612449e-04  5.8514416143664650e-04  5.8530124189177732e-04  5.8549665898434172e-04  5.8573033255680785e-04  5.8600180998234991e-04  5.8631009227152412e-04  5.8665338153514150e-04  5.8702768579349735e-04  5.8742647799635414e-04  5.8784499634921528e-04  5.8827426938561479e-04  5.8875695178175135e-04  5.8931252089827388e-04  5.9009959695323268e-04  5.9099720155335008e-04  5.9336744489534954e-04  6.4196585895232613e-04  7.5286009556979790e-04  1.4141185752290998e-03  1.4375444725829523e-01  7.1585040490945762e-01  9.9886508918969952e-01  9.9954662455612664e-01  9.9972260037370408e-01  9.9981243637288064e-01  9.9986164826531521e-01  9.9989129738891913e-01  9.9991103148393889e-01  9.9992528491099320e-01  9.9993629260824746e-01  9.9994513056079859e-01  9.9995222374945458e-01  9.9995756008183767e-01  9.9996069384858910e-01  9.9996016710351920e-01  9.9995107433674757e-01  9.9976483570840957e-01  1.1697474390637628e-03  5.8502192897837233e-04  5.8518505925824838e-04  5.8527572676660210e-04  5.8539921696314538e-04  5.8556188726905138e-04  5.8576415192323030e-04  5.8600582437620511e-04  5.8628646617425284e-04  5.8660567229509690e-04  5.8696289162793035e-04  5.8735347816312551e-04  5.8776940495144936e-04  5.8818623909369968e-04  5.8858715631803025e-04  5.8910932594277287e-04  5.8978017803296818e-04  5.9191942823250165e-04  6.0142321734124701e-04  6.6750683868848021e-04  9.3970830024298871e-04  1.3599571803788157e-02  5.0847385031931525e-01  9.9653286657930917e-01  9.9947030294997841e-01  9.9971148605197269e-01  9.9981364996456723e-01  9.9986666182980433e-01  9.9989768440223714e-01  9.9991792684987946e-01  9.9993226620705666e-01  9.9994313557651449e-01  9.9995191235126413e-01  9.9995940514367165e-01  9.9996604366047070e-01  9.9997200194166125e-01  9.9997728295933686e-01  9.9998178699187057e-01  9.9998534115804993e-01  9.9998769616183203e-01  9.9997125799506514e-01  1.1699729232452101e-03  5.8526216391736993e-04  5.8546014614475330e-04  5.8555744356041041e-04  5.8568789843210203e-04  5.8585940016731453e-04  5.8607200548690182e-04  5.8632490386788076e-04  5.8661735320353066e-04  5.8695071807762138e-04  5.8732687915141280e-04  5.8774566391974284e-04  5.8819834307303543e-04  5.8862555523724297e-04  5.8906159466992571e-04  5.8957143651464084e-04  5.9137510368757480e-04  6.2861414875826449e-04  7.3940897583967880e-04  1.5602495762331926e-03  2.0388626237549490e-01  9.0589454653945434e-01  9.9925203446548772e-01  9.9964660812431660e-01  9.9978851968233240e-01  9.9985628504073720e-01  9.9989279118696783e-01  9.9991541546727347e-01  9.9993080799589740e-01  9.9994203832652140e-01  9.9995074864832956e-01  9.9995790644846727e-01  9.9996411757502024e-01  9.9996975340022765e-01  9.9997500323227495e-01  9.9997990293770345e-01  9.9998436550443315e-01  9.9998822086320427e-01  9.9999125827126678e-01  9.9999325118498350e-01  9.9998702059226496e-01  1.1702149681538097e-03  5.8552224198370932e-04  5.8575963420930013e-04  5.8586671491514021e-04  5.8600837306564408e-04  5.8619389947697851e-04  5.8642235531344985e-04  5.8669116005049984e-04  5.8699795356658259e-04  5.8734488600997400e-04  5.8773958867372391e-04  5.8821864141561132e-04  5.8877578582920828e-04  5.8941590565667686e-04  5.9016616345763028e-04  5.9506783154277335e-04  6.4047148527022167e-04  8.5611056220523418e-04  7.6536692717438523e-03  4.8994450054082911e-01  9.9839101508019357e-01  9.9952603956971009e-01  9.9973651845848466e-01  9.9983327928280752e-01  9.9988033843765556e-01  9.9990773912392994e-01  9.9992550901971688e-01  9.9993789530001842e-01  9.9994706673467071e-01  9.9995423924750060e-01  9.9996015467885646e-01  9.9996529536284084e-01  9.9996998376801804e-01  9.9997442202634113e-01  9.9997870268392142e-01  9.9998280964723840e-01  9.9998662847861641e-01  9.9998996609450030e-01  9.9999259849945710e-01  9.9999433150039374e-01  9.9998989043483077e-01  1.1704663408700303e-03  5.8579521957763056e-04  5.8607657039981564e-04  5.8619813621166869e-04  5.8635760648034817e-04  5.8656568531870949e-04  5.8681990377137429e-04  5.8711280873984255e-04  5.8743501229857977e-04  5.8778420297003449e-04  5.8819755148985166e-04  5.8878765799031351e-04  5.8959925918930034e-04  5.9132518350540691e-04  6.0524323401433405e-04  6.8788160819849699e-04  1.1212280253328087e-03  1.1842505929238810e-01  8.1864808390196442e-01  9.9919355459599613e-01  9.9964476381499501e-01  9.9979139052355781e-01  9.9985979921528212e-01  9.9989570198016076e-01  9.9991746512186663e-01  9.9993194351854120e-01  9.9994221001509653e-01  9.9994986973176292e-01  9.9995585736898829e-01  9.9996076017683821e-01  9.9996497292355013e-01  9.9996877389829619e-01  9.9997236104483733e-01  9.9997586376548109e-01  9.9997934091557228e-01  9.9998277484050102e-01  9.9998607056028110e-01  9.9998905905442892e-01  9.9999153642666827e-01  9.9999325930022065e-01  9.9998859361067649e-01  1.1707164123060429e-03  5.8607077179515280e-04  5.8640042995645645e-04  5.8654319507792151e-04  5.8673064085067595e-04  5.8697581541228012e-04  5.8727336662499320e-04  5.8760576139968294e-04  5.8795038654740612e-04  5.8828526187340330e-04  5.8868973334369218e-04  5.8939973787738474e-04  5.9194683601322305e-04  6.2976515037988672e-04  7.5459825937592047e-04  2.0967671095634636e-03  3.2983360283488933e-01  9.9692653944548737e-01  9.9941845319619171e-01  9.9971243010176980e-01  9.9982478286559284e-01  9.9987728810498355e-01  9.9990623021757341e-01  9.9992427127855754e-01  9.9993642823453377e-01  9.9994510544436133e-01  9.9995158183496780e-01  9.9995660650993279e-01  9.9996065368911835e-01  9.9996404593746679e-01  9.9996701590330750e-01  9.9996973781346499e-01  9.9997234162366289e-01  9.9997491531732141e-01  9.9997749939335201e-01  9.9998007856264592e-01  9.9998257307421567e-01  9.9998484080428007e-01  9.9998669448945410e-01  9.9998777770087488e-01  9.9997988186299180e-01  1.1709500825775778e-03  5.8633404342363804e-04  5.8671591074534494e-04  5.8688931554486340e-04  5.8711898870279756e-04  5.8742149089887610e-04  5.8779219112509878e-04  5.8821713135854235e-04  5.8864166506600996e-04  5.8897502153019098e-04  5.8934642098361812e-04  5.9358848718167872e-04  6.4600454089606073e-04  8.6936961156837888e-04  1.7445615313093295e-02  6.0057795411599724e-01  9.9876462176848668e-01  9.9956712172423534e-01  9.9976110639448923e-01  9.9984772254049992e-01  9.9988973836240480e-01  9.9991392009482949e-01  9.9992929731237845e-01  9.9993975210465036e-01  9.9994721598755065e-01  9.9995274893773356e-01  9.9995697602629741e-01  9.9996029170494138e-01  9.9996296016740738e-01  9.9996516870018060e-01  9.9996705522356022e-01  9.9996872155843397e-01  9.9997023641823224e-01  9.9997162920219851e-01  9.9997287314262995e-01  9.9997385140452466e-01  9.9997428183849035e-01  9.9997352850539456e-01  9.9996991799462942e-01  9.9995880861018949e-01  9.9991403292085579e-01  1.1711464991755710e-03  5.8656463623997024e-04  5.8700244293855084e-04  5.8721799959530238e-04  5.8750477107226699e-04  5.8789421789609011e-04  5.8840783146925564e-04  5.8904679800608447e-04  5.8970426470651607e-04  5.9041779289619324e-04  5.9970504035080383e-04  6.6384611671021772e-04  1.0666280520975171e-03  1.4303433094836210e-01  8.8082784765139444e-01  9.9920653067465803e-01  9.9965270465877920e-01  9.9979845941524581e-01  9.9986483716835595e-01  9.9989931128164233e-01  9.9991988369357587e-01  9.9993321479473807e-01  9.9994234837196938e-01  9.9994885887563612e-01  9.9995363272004967e-01  9.9995720013385836e-01  9.9995989449054745e-01  9.9996193367596675e-01  9.9996346386958057e-01  9.9996458293957247e-01  9.9996535057045721e-01  9.9996578769270805e-01  9.9996586338663551e-01  9.9996546144646004e-01  9.9996430439791073e-01  9.9996176607590692e-01  9.9995632653165456e-01  9.9994355022463155e-01  9.9990876872179990e-01  9.9970220087070250e-01  5.3028502215145779e-01  1.1712778806971032e-03  5.8673609223517634e-04  5.8723387885730046e-04  5.8750524594791188e-04  5.8787131106947759e-04  5.8838144596011076e-04  5.8908199792988270e-04  5.9015748528000120e-04  5.9215479026707130e-04  6.1834989042788043e-04  7.2009929200123751e-04  1.6149425572922265e-03  3.2399528064380201e-01  9.9584778300672627e-01  9.9940759518129241e-01  9.9971019703237252e-01  9.9982547582473658e-01  9.9987833651126334e-01  9.9990713534070319e-01  9.9992480377428994e-01  9.9993644867991283e-01  9.9994449113095996e-01  9.9995021648639459e-01  9.9995436418706696e-01  9.9995738265552470e-01  9.9995955298200967e-01  9.9996105343616759e-01  9.9996199389998208e-01  9.9996243359674941e-01  9.9996238677679183e-01  9.9996181658947458e-01  9.9996061219413490e-01  9.9995853464860252e-01  9.9995509334268640e-01  9.9994924296538834e-01  9.9993851458965433e-01  9.9991589397513747e-01  9.9985675745717340e-01  9.9960103063005668e-01  2.9538632079667210e-01  1.2801190456762646e-03  1.1713076823670781e-03  5.8681405151502809e-04  5.8738089004563461e-04  5.8773987349555452e-04  5.8820493400346446e-04  5.8877432273235790e-04  5.8984180399774687e-04  5.9341166215409876e-04  6.3905290925040791e-04  8.1742428777006946e-04  7.6389313686326260e-03  5.6685249628576262e-01  9.9847260500363932e-01  9.9953511016473273e-01  9.9975427369607495e-01  9.9984585017267258e-01  9.9988919111387720e-01  9.9991369160991950e-01  9.9992902456537880e-01  9.9993925246832926e-01  9.9994635650914809e-01  9.9995140476885225e-01  9.9995501602670622e-01  9.9995756707328165e-01  9.9995929191329902e-01  9.9996033293765441e-01  9.9996076724481875e-01  9.9996061828689486e-01  9.9995985614419047e-01  9.9995838488899746e-01  9.9995600963438758e-01  9.9995236275065713e-01  9.9994673666938827e-01  9.9993767542061374e-01  9.9992183352940223e-01  9.9989001322651760e-01  9.9981088452196198e-01  9.9951634386775001e-01  6.6252847656917324e-01  8.2289421632363610e-04  1.2186704741274537e-03  1.1711826027686349e-03  5.8675385796855425e-04  5.8742719416357157e-04  5.8794591845544005e-04  5.8851665371424959e-04  5.8924411866176731e-04  5.9485456473817205e-04  6.4753539959602844e-04  9.1924995588557015e-04  9.6344368912342548e-02  8.1565399534052851e-01  9.9909347479203270e-01  9.9963014591120536e-01  9.9979058712741575e-01  9.9986213049350625e-01  9.9989822799694372e-01  9.9991930693506370e-01  9.9993272660096899e-01  9.9994175772595884e-01  9.9994804618175481e-01  9.9995249558926202e-01  9.9995563148528399e-01  9.9995777143589171e-01  9.9995910819023937e-01  9.9995975161091988e-01  9.9995974888984418e-01  9.9995909079508916e-01  9.9995770613087465e-01  9.9995544148715954e-01  9.9995201673273737e-01  9.9994693150592806e-01  9.9993925719276355e-01  9.9992713161943114e-01  9.9990634455834160e-01  9.9986546321960224e-01  9.9976759998482112e-01  9.9943122772249504e-01  8.1058264326824803e-01  1.6636628995838213e-03  6.2128240545531875e-04  1.1969784357956273e-03  1.1708375838777191e-03  5.8650873274331081e-04  5.8736896991114045e-04  5.8819821381683149e-04  5.8922006711868984e-04  5.9914159893564650e-04  6.5750109969262244e-04  1.1155422831292780e-03  2.2145471825170612e-01  9.8913164444192525e-01  9.9934017138896014e-01  9.9969535530100562e-01  9.9981908957767274e-01  9.9987593943376607e-01  9.9990614059899885e-01  9.9992430519706288e-01  9.9993606947425950e-01  9.9994405355212357e-01  9.9994961931028303e-01  9.9995353028205225e-01  9.9995623506951969e-01  9.9995800250422862e-01  9.9995899024789769e-01  9.9995927930222694e-01  9.9995888953252832e-01  9.9995778170746175e-01  9.9995584660995596e-01  9.9995287670886557e-01  9.9994850721756245e-01  9.9994209698546721e-01  9.9993246956069881e-01  9.9991729141250996e-01  9.9989132923624235e-01  9.9984028883413800e-01  9.9972200966080438e-01  9.9931258667782130e-01  8.0604193231769150e-01  4.1015451645981457e-03  6.8038720322765320e-04  5.9433332318894181e-04  1.1741764759372968e-03  1.1702167421210571e-03  5.8601624285427973e-04  5.8724918846560410e-04  5.8902848625856880e-04  6.0592604695284017e-04  7.0031691245643949e-04  1.6177621379795566e-03  3.9200186965573214e-01  9.9757452312334460e-01  9.9947932196873646e-01  9.9973922795020997e-01  9.9984154767004951e-01  9.9988783616693566e-01  9.9991329500108184e-01  9.9992893489534340e-01  9.9993920698432848e-01  9.9994623038391539e-01  9.9995112829585564e-01  9.9995453944207258e-01  9.9995684237918736e-01  9.9995826234354868e-01  9.9995892582991341e-01  9.9995888783596687e-01  9.9995814274640982e-01  9.9995662259824003e-01  9.9995418155261184e-01  9.9995056007457850e-01  9.9994531124912245e-01  9.9993764888095693e-01  9.9992611890008487e-01  9.9990779969335841e-01  9.9987605317147743e-01  9.9981225690588760e-01  9.9966501461513202e-01  9.9911662261468515e-01  7.0836936582937304e-01  4.6571420887687384e-03  7.2205625551453184e-04  6.0513527796611857e-04  5.8565353566261019e-04  1.1692640937882662e-03  1.1693467102452091e-03  5.8539924143935138e-04  5.8764185749119054e-04  6.0908483367997529e-04  7.2509474034254738e-04  2.9304744159374405e-03  5.6388434306544233e-01  9.9868670456312969e-01  9.995835358