<?xml version="1.0"?>
<VTKFile type="UnstructuredGrid"  version="0.1"  >
<UnstructuredGrid>
<Piece  NumberOfPoints="1681" NumberOfCells="3200">
<Points>
<DataArray  type="Float64"  NumberOfComponents="3"  format="ascii">0 0 0  0.025 0 0  0.05 0 0  0.075 0 0  0.1 0 0  0.125 0 0  0.15 0 0  0.175 0 0  0.2 0 0  0.225 0 0  0.25 0 0  0.275 0 0  0.3 0 0  0.325 0 0  0.35 0 0  0.375 0 0  0.4 0 0  0.425 0 0  0.45 0 0  0.475 0 0  0.5 0 0  0.525 0 0  0.55 0 0  0.575 0 0  0.6 0 0  0.625 0 0  0.65 0 0  0.675 0 0  0.7 0 0  0.725 0 0  0.75 0 0  0.775 0 0  0.8 0 0  0.825 0 0  0.85 0 0  0.875 0 0  0.9 0 0  0.925 0 0  0.95 0 0  0.975 0 0  1 0 0  0 0.025 0  0.025 0.025 0  0.05 0.025 0  0.075 0.025 0  0.1 0.025 0  0.125 0.025 0  0.15 0.025 0  0.175 0.025 0  0.2 0.025 0  0.225 0.025 0  0.25 0.025 0  0.275 0.025 0  0.3 0.025 0  0.325 0.025 0  0.35 0.025 0  0.375 0.025 0  0.4 0.025 0  0.425 0.025 0  0.45 0.025 0  0.475 0.025 0  0.5 0.025 0  0.525 0.025 0  0.55 0.025 0  0.575 0.025 0  0.6 0.025 0  0.625 0.025 0  0.65 0.025 0  0.675 0.025 0  0.7 0.025 0  0.725 0.025 0  0.75 0.025 0  0.775 0.025 0  0.8 0.025 0  0.825 0.025 0  0.85 0.025 0  0.875 0.025 0  0.9 0.025 0  0.925 0.025 0  0.95 0.025 0  0.975 0.025 0  1 0.025 0  0 0.05 0  0.025 0.05 0  0.05 0.05 0  0.075 0.05 0  0.1 0.05 0  0.125 0.05 0  0.15 0.05 0  0.175 0.05 0  0.2 0.05 0  0.225 0.05 0  0.25 0.05 0  0.275 0.05 0  0.3 0.05 0  0.325 0.05 0  0.35 0.05 0  0.375 0.05 0  0.4 0.05 0  0.425 0.05 0  0.45 0.05 0  0.475 0.05 0  0.5 0.05 0  0.525 0.05 0  0.55 0.05 0  0.575 0.05 0  0.6 0.05 0  0.625 0.05 0  0.65 0.05 0  0.675 0.05 0  0.7 0.05 0  0.725 0.05 0  0.75 0.05 0  0.775 0.05 0  0.8 0.05 0  0.825 0.05 0  0.85 0.05 0  0.875 0.05 0  0.9 0.05 0  0.925 0.05 0  0.95 0.05 0  0.975 0.05 0  1 0.05 0  0 0.075 0  0.025 0.075 0  0.05 0.075 0  0.075 0.075 0  0.1 0.075 0  0.125 0.075 0  0.15 0.075 0  0.175 0.075 0  0.2 0.075 0  0.225 0.075 0  0.25 0.075 0  0.275 0.075 0  0.3 0.075 0  0.325 0.075 0  0.35 0.075 0  0.375 0.075 0  0.4 0.075 0  0.425 0.075 0  0.45 0.075 0  0.475 0.075 0  0.5 0.075 0  0.525 0.075 0  0.55 0.075 0  0.575 0.075 0  0.6 0.075 0  0.625 0.075 0  0.65 0.075 0  0.675 0.075 0  0.7 0.075 0  0.725 0.075 0  0.75 0.075 0  0.775 0.075 0  0.8 0.075 0  0.825 0.075 0  0.85 0.075 0  0.875 0.075 0  0.9 0.075 0  0.925 0.075 0  0.95 0.075 0  0.975 0.075 0  1 0.075 0  0 0.1 0  0.025 0.1 0  0.05 0.1 0  0.075 0.1 0  0.1 0.1 0  0.125 0.1 0  0.15 0.1 0  0.175 0.1 0  0.2 0.1 0  0.225 0.1 0  0.25 0.1 0  0.275 0.1 0  0.3 0.1 0  0.325 0.1 0  0.35 0.1 0  0.375 0.1 0  0.4 0.1 0  0.425 0.1 0  0.45 0.1 0  0.475 0.1 0  0.5 0.1 0  0.525 0.1 0  0.55 0.1 0  0.575 0.1 0  0.6 0.1 0  0.625 0.1 0  0.65 0.1 0  0.675 0.1 0  0.7 0.1 0  0.725 0.1 0  0.75 0.1 0  0.775 0.1 0  0.8 0.1 0  0.825 0.1 0  0.85 0.1 0  0.875 0.1 0  0.9 0.1 0  0.925 0.1 0  0.95 0.1 0  0.975 0.1 0  1 0.1 0  0 0.125 0  0.025 0.125 0  0.05 0.125 0  0.075 0.125 0  0.1 0.125 0  0.125 0.125 0  0.15 0.125 0  0.175 0.125 0  0.2 0.125 0  0.225 0.125 0  0.25 0.125 0  0.275 0.125 0  0.3 0.125 0  0.325 0.125 0  0.35 0.125 0  0.375 0.125 0  0.4 0.125 0  0.425 0.125 0  0.45 0.125 0  0.475 0.125 0  0.5 0.125 0  0.525 0.125 0  0.55 0.125 0  0.575 0.125 0  0.6 0.125 0  0.625 0.125 0  0.65 0.125 0  0.675 0.125 0  0.7 0.125 0  0.725 0.125 0  0.75 0.125 0  0.775 0.125 0  0.8 0.125 0  0.825 0.125 0  0.85 0.125 0  0.875 0.125 0  0.9 0.125 0  0.925 0.125 0  0.95 0.125 0  0.975 0.125 0  1 0.125 0  0 0.15 0  0.025 0.15 0  0.05 0.15 0  0.075 0.15 0  0.1 0.15 0  0.125 0.15 0  0.15 0.15 0  0.175 0.15 0  0.2 0.15 0  0.225 0.15 0  0.25 0.15 0  0.275 0.15 0  0.3 0.15 0  0.325 0.15 0  0.35 0.15 0  0.375 0.15 0  0.4 0.15 0  0.425 0.15 0  0.45 0.15 0  0.475 0.15 0  0.5 0.15 0  0.525 0.15 0  0.55 0.15 0  0.575 0.15 0  0.6 0.15 0  0.625 0.15 0  0.65 0.15 0  0.675 0.15 0  0.7 0.15 0  0.725 0.15 0  0.75 0.15 0  0.775 0.15 0  0.8 0.15 0  0.825 0.15 0  0.85 0.15 0  0.875 0.15 0  0.9 0.15 0  0.925 0.15 0  0.95 0.15 0  0.975 0.15 0  1 0.15 0  0 0.175 0  0.025 0.175 0  0.05 0.175 0  0.075 0.175 0  0.1 0.175 0  0.125 0.175 0  0.15 0.175 0  0.175 0.175 0  0.2 0.175 0  0.225 0.175 0  0.25 0.175 0  0.275 0.175 0  0.3 0.175 0  0.325 0.175 0  0.35 0.175 0  0.375 0.175 0  0.4 0.175 0  0.425 0.175 0  0.45 0.175 0  0.475 0.175 0  0.5 0.175 0  0.525 0.175 0  0.55 0.175 0  0.575 0.175 0  0.6 0.175 0  0.625 0.175 0  0.65 0.175 0  0.675 0.175 0  0.7 0.175 0  0.725 0.175 0  0.75 0.175 0  0.775 0.175 0  0.8 0.175 0  0.825 0.175 0  0.85 0.175 0  0.875 0.175 0  0.9 0.175 0  0.925 0.175 0  0.95 0.175 0  0.975 0.175 0  1 0.175 0  0 0.2 0  0.025 0.2 0  0.05 0.2 0  0.075 0.2 0  0.1 0.2 0  0.125 0.2 0  0.15 0.2 0  0.175 0.2 0  0.2 0.2 0  0.225 0.2 0  0.25 0.2 0  0.275 0.2 0  0.3 0.2 0  0.325 0.2 0  0.35 0.2 0  0.375 0.2 0  0.4 0.2 0  0.425 0.2 0  0.45 0.2 0  0.475 0.2 0  0.5 0.2 0  0.525 0.2 0  0.55 0.2 0  0.575 0.2 0  0.6 0.2 0  0.625 0.2 0  0.65 0.2 0  0.675 0.2 0  0.7 0.2 0  0.725 0.2 0  0.75 0.2 0  0.775 0.2 0  0.8 0.2 0  0.825 0.2 0  0.85 0.2 0  0.875 0.2 0  0.9 0.2 0  0.925 0.2 0  0.95 0.2 0  0.975 0.2 0  1 0.2 0  0 0.225 0  0.025 0.225 0  0.05 0.225 0  0.075 0.225 0  0.1 0.225 0  0.125 0.225 0  0.15 0.225 0  0.175 0.225 0  0.2 0.225 0  0.225 0.225 0  0.25 0.225 0  0.275 0.225 0  0.3 0.225 0  0.325 0.225 0  0.35 0.225 0  0.375 0.225 0  0.4 0.225 0  0.425 0.225 0  0.45 0.225 0  0.475 0.225 0  0.5 0.225 0  0.525 0.225 0  0.55 0.225 0  0.575 0.225 0  0.6 0.225 0  0.625 0.225 0  0.65 0.225 0  0.675 0.225 0  0.7 0.225 0  0.725 0.225 0  0.75 0.225 0  0.775 0.225 0  0.8 0.225 0  0.825 0.225 0  0.85 0.225 0  0.875 0.225 0  0.9 0.225 0  0.925 0.225 0  0.95 0.225 0  0.975 0.225 0  1 0.225 0  0 0.25 0  0.025 0.25 0  0.05 0.25 0  0.075 0.25 0  0.1 0.25 0  0.125 0.25 0  0.15 0.25 0  0.175 0.25 0  0.2 0.25 0  0.225 0.25 0  0.25 0.25 0  0.275 0.25 0  0.3 0.25 0  0.325 0.25 0  0.35 0.25 0  0.375 0.25 0  0.4 0.25 0  0.425 0.25 0  0.45 0.25 0  0.475 0.25 0  0.5 0.25 0  0.525 0.25 0  0.55 0.25 0  0.575 0.25 0  0.6 0.25 0  0.625 0.25 0  0.65 0.25 0  0.675 0.25 0  0.7 0.25 0  0.725 0.25 0  0.75 0.25 0  0.775 0.25 0  0.8 0.25 0  0.825 0.25 0  0.85 0.25 0  0.875 0.25 0  0.9 0.25 0  0.925 0.25 0  0.95 0.25 0  0.975 0.25 0  1 0.25 0  0 0.275 0  0.025 0.275 0  0.05 0.275 0  0.075 0.275 0  0.1 0.275 0  0.125 0.275 0  0.15 0.275 0  0.175 0.275 0  0.2 0.275 0  0.225 0.275 0  0.25 0.275 0  0.275 0.275 0  0.3 0.275 0  0.325 0.275 0  0.35 0.275 0  0.375 0.275 0  0.4 0.275 0  0.425 0.275 0  0.45 0.275 0  0.475 0.275 0  0.5 0.275 0  0.525 0.275 0  0.55 0.275 0  0.575 0.275 0  0.6 0.275 0  0.625 0.275 0  0.65 0.275 0  0.675 0.275 0  0.7 0.275 0  0.725 0.275 0  0.75 0.275 0  0.775 0.275 0  0.8 0.275 0  0.825 0.275 0  0.85 0.275 0  0.875 0.275 0  0.9 0.275 0  0.925 0.275 0  0.95 0.275 0  0.975 0.275 0  1 0.275 0  0 0.3 0  0.025 0.3 0  0.05 0.3 0  0.075 0.3 0  0.1 0.3 0  0.125 0.3 0  0.15 0.3 0  0.175 0.3 0  0.2 0.3 0  0.225 0.3 0  0.25 0.3 0  0.275 0.3 0  0.3 0.3 0  0.325 0.3 0  0.35 0.3 0  0.375 0.3 0  0.4 0.3 0  0.425 0.3 0  0.45 0.3 0  0.475 0.3 0  0.5 0.3 0  0.525 0.3 0  0.55 0.3 0  0.575 0.3 0  0.6 0.3 0  0.625 0.3 0  0.65 0.3 0  0.675 0.3 0  0.7 0.3 0  0.725 0.3 0  0.75 0.3 0  0.775 0.3 0  0.8 0.3 0  0.825 0.3 0  0.85 0.3 0  0.875 0.3 0  0.9 0.3 0  0.925 0.3 0  0.95 0.3 0  0.975 0.3 0  1 0.3 0  0 0.325 0  0.025 0.325 0  0.05 0.325 0  0.075 0.325 0  0.1 0.325 0  0.125 0.325 0  0.15 0.325 0  0.175 0.325 0  0.2 0.325 0  0.225 0.325 0  0.25 0.325 0  0.275 0.325 0  0.3 0.325 0  0.325 0.325 0  0.35 0.325 0  0.375 0.325 0  0.4 0.325 0  0.425 0.325 0  0.45 0.325 0  0.475 0.325 0  0.5 0.325 0  0.525 0.325 0  0.55 0.325 0  0.575 0.325 0  0.6 0.325 0  0.625 0.325 0  0.65 0.325 0  0.675 0.325 0  0.7 0.325 0  0.725 0.325 0  0.75 0.325 0  0.775 0.325 0  0.8 0.325 0  0.825 0.325 0  0.85 0.325 0  0.875 0.325 0  0.9 0.325 0  0.925 0.325 0  0.95 0.325 0  0.975 0.325 0  1 0.325 0  0 0.35 0  0.025 0.35 0  0.05 0.35 0  0.075 0.35 0  0.1 0.35 0  0.125 0.35 0  0.15 0.35 0  0.175 0.35 0  0.2 0.35 0  0.225 0.35 0  0.25 0.35 0  0.275 0.35 0  0.3 0.35 0  0.325 0.35 0  0.35 0.35 0  0.375 0.35 0  0.4 0.35 0  0.425 0.35 0  0.45 0.35 0  0.475 0.35 0  0.5 0.35 0  0.525 0.35 0  0.55 0.35 0  0.575 0.35 0  0.6 0.35 0  0.625 0.35 0  0.65 0.35 0  0.675 0.35 0  0.7 0.35 0  0.725 0.35 0  0.75 0.35 0  0.775 0.35 0  0.8 0.35 0  0.825 0.35 0  0.85 0.35 0  0.875 0.35 0  0.9 0.35 0  0.925 0.35 0  0.95 0.35 0  0.975 0.35 0  1 0.35 0  0 0.375 0  0.025 0.375 0  0.05 0.375 0  0.075 0.375 0  0.1 0.375 0  0.125 0.375 0  0.15 0.375 0  0.175 0.375 0  0.2 0.375 0  0.225 0.375 0  0.25 0.375 0  0.275 0.375 0  0.3 0.375 0  0.325 0.375 0  0.35 0.375 0  0.375 0.375 0  0.4 0.375 0  0.425 0.375 0  0.45 0.375 0  0.475 0.375 0  0.5 0.375 0  0.525 0.375 0  0.55 0.375 0  0.575 0.375 0  0.6 0.375 0  0.625 0.375 0  0.65 0.375 0  0.675 0.375 0  0.7 0.375 0  0.725 0.375 0  0.75 0.375 0  0.775 0.375 0  0.8 0.375 0  0.825 0.375 0  0.85 0.375 0  0.875 0.375 0  0.9 0.375 0  0.925 0.375 0  0.95 0.375 0  0.975 0.375 0  1 0.375 0  0 0.4 0  0.025 0.4 0  0.05 0.4 0  0.075 0.4 0  0.1 0.4 0  0.125 0.4 0  0.15 0.4 0  0.175 0.4 0  0.2 0.4 0  0.225 0.4 0  0.25 0.4 0  0.275 0.4 0  0.3 0.4 0  0.325 0.4 0  0.35 0.4 0  0.375 0.4 0  0.4 0.4 0  0.425 0.4 0  0.45 0.4 0  0.475 0.4 0  0.5 0.4 0  0.525 0.4 0  0.55 0.4 0  0.575 0.4 0  0.6 0.4 0  0.625 0.4 0  0.65 0.4 0  0.675 0.4 0  0.7 0.4 0  0.725 0.4 0  0.75 0.4 0  0.775 0.4 0  0.8 0.4 0  0.825 0.4 0  0.85 0.4 0  0.875 0.4 0  0.9 0.4 0  0.925 0.4 0  0.95 0.4 0  0.975 0.4 0  1 0.4 0  0 0.425 0  0.025 0.425 0  0.05 0.425 0  0.075 0.425 0  0.1 0.425 0  0.125 0.425 0  0.15 0.425 0  0.175 0.425 0  0.2 0.425 0  0.225 0.425 0  0.25 0.425 0  0.275 0.425 0  0.3 0.425 0  0.325 0.425 0  0.35 0.425 0  0.375 0.425 0  0.4 0.425 0  0.425 0.425 0  0.45 0.425 0  0.475 0.425 0  0.5 0.425 0  0.525 0.425 0  0.55 0.425 0  0.575 0.425 0  0.6 0.425 0  0.625 0.425 0  0.65 0.425 0  0.675 0.425 0  0.7 0.425 0  0.725 0.425 0  0.75 0.425 0  0.775 0.425 0  0.8 0.425 0  0.825 0.425 0  0.85 0.425 0  0.875 0.425 0  0.9 0.425 0  0.925 0.425 0  0.95 0.425 0  0.975 0.425 0  1 0.425 0  0 0.45 0  0.02
[...]
<PointData  Scalars="ControlVisualisation"> 
<DataArray  type="Float64"  Name="ControlVisualisation"  format="ascii">7.7955213523578912e-02  5.5196558525241142e-02  5.5198502015288031e-02  5.5201820120556959e-02  5.5206509062591197e-02  5.5212581575815843e-02  5.5220043521256708e-02  5.5228893949785265e-02  5.5239120298647255e-02  5.5250693869611789e-02  5.5263565518311804e-02  5.5277661418665636e-02  5.5292878984769922e-02  5.5309082707264701e-02  5.5326099707481584e-02  5.5343714165760872e-02  5.5361659877723138e-02  5.5379607040038539e-02  5.5397146463547951e-02  5.5413773599716519e-02  5.5428906595451272e-02  5.5441905635879793e-02  5.5452124293595480e-02  5.5458917419367142e-02  5.5461602432567994e-02  5.5458978681454753e-02  5.5449826754986324e-02  5.5432297474945165e-02  5.5407894763613186e-02  5.5379363517935425e-02  5.5345547293648593e-02  5.5303148873206309e-02  5.5255658952234450e-02  5.5216110019987448e-02  5.5197093440521039e-02  5.5202584417583155e-02  5.5223149749284405e-02  5.5235787948090580e-02  5.5223649091558760e-02  5.5201435122127995e-02  1.3963756629048288e-01  5.5196557914719176e-02  3.1386574968448003e-02  3.1389042267040167e-02  3.1393412994479425e-02  3.1399776802605611e-02  3.1408147416215414e-02  3.1418533307487034e-02  3.1430935634275438e-02  3.1445339883255305e-02  3.1461709961856120e-02  3.1479982056145391e-02  3.1500058686116730e-02  3.1521802919983098e-02  3.1545032460553506e-02  3.1569513130147400e-02  3.1594950336035231e-02  3.1620977759689167e-02  3.1647138505873286e-02  3.1672863398506897e-02  3.1697432365985038e-02  3.1719977389291235e-02  3.1739483717152184e-02  3.1755048620084693e-02  3.1765885048780397e-02  3.1771406448990423e-02  3.1770123058383982e-02  3.1759659848767337e-02  3.1736902319822902e-02  3.1703157187104675e-02  3.1664817852029944e-02  3.1624380089555787e-02  3.1572350253204727e-02  3.1507030877971881e-02  3.1445512638053175e-02  3.1406604394704371e-02  3.1402470684246335e-02  3.1426994673137393e-02  3.1452140354153946e-02  3.1446658528314596e-02  3.1413285365458829e-02  5.5202446811600810e-02  5.5198494881844654e-02  3.1389035943483343e-02  3.1392396401583859e-02  3.1397660981420522e-02  3.1405350373506447e-02  3.1415495309602019e-02  3.1428111599285713e-02  3.1443203713741950e-02  3.1460757450503314e-02  3.1480732536728437e-02  3.1503054764563054e-02  3.1527608748156861e-02  3.1554230969581237e-02  3.1582703243975885e-02  3.1612744988882550e-02  3.1644005324569117e-02  3.1676054334641157e-02  3.1708368912898771e-02  3.1740298926095853e-02  3.1770972241478748e-02  3.1799280042330257e-02  3.1823887536334729e-02  3.1843831349361508e-02  3.1857890043085417e-02  3.1866313210932529e-02  3.1868820535716172e-02  3.1861843970917944e-02  3.1845701799165377e-02  3.1805433904230074e-02  3.1771794287758920e-02  3.1774958280935253e-02  3.1784814730523532e-02  3.1757299769154076e-02  3.1679071564238208e-02  3.1561541722822543e-02  3.1484209778687121e-02  3.1486135448699153e-02  3.1538038919074210e-02  3.1573928513504559e-02  3.1521973243110769e-02  5.5256578858912095e-02  5.5201786068116009e-02  3.1393377893581438e-02  3.1397628504000456e-02  3.1402975945192785e-02  3.1410742775116275e-02  3.1420993720968793e-02  3.1433752602308337e-02  3.1449027458757509e-02  3.1466807506999955e-02  3.1487054650798665e-02  3.1509695559215893e-02  3.1534614571627186e-02  3.1561647057611678e-02  3.1590574435066333e-02  3.1621116863154830e-02  3.1652936217566111e-02  3.1685624924275388e-02  3.1718726311816790e-02  3.1751675147084255e-02  3.1783778906904342e-02  3.1813879969913299e-02  3.1840409446715574e-02  3.1861355257414424e-02  3.1875709605460462e-02  3.1887430177219539e-02  3.1910161787469138e-02  3.1932416079893791e-02  3.2006729696414521e-02  3.2090730591630111e-02  3.2535354394392514e-02  3.3779680415254781e-02  3.5356385546020573e-02  3.6480472819292876e-02  3.7126610705522894e-02  3.6864152143879864e-02  3.5667238788020812e-02  3.3226559148901061e-02  3.1752751604238530e-02  3.1880025936805084e-02  3.1955120135862422e-02  5.5479382247209379e-02  5.5206402922995432e-02  3.1399660454783436e-02  3.1405225485902931e-02  3.1410651032270462e-02  3.1418454260830564e-02  3.1428757687954292e-02  3.1441594240487994e-02  3.1456977050435340e-02  3.1474899789305677e-02  3.1495327351397116e-02  3.1518188132045905e-02  3.1543366904815580e-02  3.1570700047740832e-02  3.1599973680018253e-02  3.1630918691425314e-02  3.1663219604317019e-02  3.1696468932306397e-02  3.1730358867056815e-02  3.1764532275413440e-02  3.1799037477974558e-02  3.1831834128539412e-02  3.1861818005841661e-02  3.1884740801429841e-02  3.1911769956051383e-02  3.1931826999887503e-02  3.2062848508695362e-02  3.2447263938136670e-02  3.4342251230048568e-02  3.7115200683450644e-02  4.2581584645808357e-02  6.1872089080966440e-02  1.3470851286589239e-01  2.9726362566668046e-01  3.6552925315271623e-01  3.7468116042839539e-01  2.9917683298600373e-01  1.2469830648830156e-01  5.0929684524620045e-02  3.3921824731071838e-02  3.2733156506912421e-02  5.6244824191243804e-02  5.5212322511296215e-02  3.1407853189208010e-02  3.1415167821081676e-02  3.1420703052782419e-02  3.1428563478554529e-02  3.1438948855182586e-02  3.1451902461327418e-02  3.1467443666281299e-02  3.1485571065710198e-02  3.1506252523292741e-02  3.1529417614687368e-02  3.1554950058769037e-02  3.1582689469516131e-02  3.1612424726465568e-02  3.1643909234837626e-02  3.1676836670243812e-02  3.1710831176425675e-02  3.1745716817166272e-02  3.1781149187672234e-02  3.1819166486497519e-02  3.1857347080129224e-02  3.1902417425556759e-02  3.1941471020997307e-02  3.2055528103866478e-02  3.2354142085750257e-02  3.4774028325112873e-02  3.9302098775861743e-02  5.6161843075222713e-02  1.7630595154191100e-01  5.2832506490303244e-01  8.5230958940131418e-01  9.1887515981775059e-01  9.6043569331084322e-01  9.6679705629474555e-01  9.6883849659892651e-01  9.6707191807294191e-01  9.5538454081063240e-01  8.6374454777852416e-01  2.5714528107729634e-01  3.6928985259704165e-02  6.2570551651305067e-02  5.5219502595696218e-02  3.1417904518140069e-02  3.1427403896194937e-02  3.1433093659019862e-02  3.1441049383028545e-02  3.1451567155347977e-02  3.1464702253433847e-02  3.1480480335621626e-02  3.1498904255767818e-02  3.1519943924892747e-02  3.1543528408426572e-02  3.1569536115032409e-02  3.1597804171664516e-02  3.1628106433005815e-02  3.1660295624893142e-02  3.1694058608701899e-02  3.1729250528040764e-02  3.1764592130490509e-02  3.1800714618910576e-02  3.1845516010003148e-02  3.1907769198859647e-02  3.2010028558575251e-02  3.2277384700960088e-02  3.4290063337063859e-02  3.7660856891924423e-02  5.6126033185577941e-02  2.4022385970553167e-01  7.2341394519779667e-01  9.3738795629423177e-01  9.6723081418858703e-01  9.7734507003105320e-01  9.8193941939280738e-01  9.8392534650267882e-01  9.8396463408333601e-01  9.8399684033477797e-01  9.8401469780011619e-01  9.8400709665962571e-01  9.8395983737133841e-01  9.8125010949790847e-01  7.8464800989964190e-01  6.3407522342783448e-02  5.5227878446886383e-02  3.1429735752324196e-02  3.1441850062237382e-02  3.1447753031699388e-02  3.1455862667374178e-02  3.1466588965657419e-02  3.1479999162491702e-02  3.1496123730168982e-02  3.1514967926874110e-02  3.1536502136947933e-02  3.1560648184784261e-02  3.1587274113986465e-02  3.1616199123704752e-02  3.1647191339771612e-02  3.1680253319922080e-02  3.1714954713528268e-02  3.1752629516409260e-02  3.1789117662942741e-02  3.1831706891856729e-02  3.1888664890858121e-02  3.2108565466671041e-02  3.3152692193745351e-02  3.6531468743661172e-02  4.9998390739375349e-02  1.5176531192103745e-01  7.2117761743939479e-01  9.3161367081604685e-01  9.7160335267099407e-01  9.8080539532502453e-01  9.8392717655254325e-01  9.8399563660680667e-01  9.8406834960621381e-01  9.8414480764582091e-01  9.8422532187504519e-01  9.8431073184674356e-01  9.8439999798135902e-01  9.8448640203554216e-01  9.8455002853829066e-01  9.8454424076444524e-01  9.8440668141243304e-01  9.8217252901098162e-01  5.5237352036050569e-02  3.1443225341842455e-02  3.1458376065200251e-02  3.1464572492509182e-02  3.1472925576454897e-02  3.1483974083513284e-02  3.1497794962008892e-02  3.1514419429547372e-02  3.1533848769586634e-02  3.1556050356319337e-02  3.1580936027631769e-02  3.1608393941819968e-02  3.1638143095073540e-02  3.1669959299719636e-02  3.1703588894235551e-02  3.1740034413121711e-02  3.1786184601191848e-02  3.1839387984679474e-02  3.1929613411758866e-02  3.2272431622694636e-02  3.5135511262944681e-02  4.2548200236014473e-02  8.9862450385235437e-02  6.1527923915251326e-01  9.3108251213825188e-01  9.6784845891618787e-01  9.7979060941345808e-01  9.8393388347539035e-01  9.8401242787249033e-01  9.8409768881346738e-01  9.8418934178870610e-01  9.8428936435015335e-01  9.8440168164458663e-01  9.8453293889237081e-01  9.8469376923301499e-01  9.8489974461360930e-01  9.8517124471324491e-01  9.8552847297875523e-01  9.8596901460867759e-01  9.8640799634532839e-01  9.8485794453396314e-01  5.5247777381471803e-02  3.1458190297802842e-02  3.1476784766592839e-02  3.1483387132086836e-02  3.1492119525978399e-02  3.1503660085727227e-02  3.1518087498962309e-02  3.1535420883240954e-02  3.1555650852798718e-02  3.1578751809961406e-02  3.1604630486893909e-02  3.1633202511492750e-02  3.1663938179257903e-02  3.1697377125128469e-02  3.1732075073894722e-02  3.1775796220646357e-02  3.1846451241327026e-02  3.2084070993175152e-02  3.3387542848398961e-02  3.6486412444573360e-02  5.5702094892438277e-02  2.8792629126991620e-01  8.7994096867890326e-01  9.6379577403309225e-01  9.7796256735315867e-01  9.8391570021289487e-01  9.8399727248731106e-01  9.8408559852821254e-01  9.8417956828334641e-01  9.8427980527208514e-01  9.8438848010663660e-01  9.8451011762145602e-01  9.8465255943766639e-01  9.8482883569935009e-01  9.8506034420418154e-01  9.8538178843685420e-01  9.8584770198442806e-01  9.8653454910756155e-01  9.8750465797579701e-01  9.8861995086004950e-01  9.8625315382509859e-01  5.5258940119852246e-02  3.1474359527710015e-02  3.1496783125797428e-02  3.1503953552339634e-02  3.1513272126317465e-02  3.1525555740089251e-02  3.1540867793294486e-02  3.1559203625608517e-02  3.1580542861765225e-02  3.1604804860299672e-02  3.1631907415184964e-02  3.1662029070337168e-02  3.1695284014099191e-02  3.1734851801533723e-02  3.1779053637465943e-02  3.1872363368267438e-02  3.2327233569457776e-02  3.5399768846407137e-02  4.4237115717920779e-02  1.0276568099233557e-01  6.5777398517175933e-01  9.3469701217313506e-01  9.7303974194349907e-01  9.8256629542564144e-01  9.8396507468743333e-01  9.8405286122656499e-01  9.8414564298393792e-01  9.8424244522598048e-01  9.8434336171832859e-01  9.8444995771767863e-01  9.8456557415224555e-01  9.8469614441896036e-01  9.8485144186320572e-01  9.8504733288574520e-01  9.8530963975294572e-01  9.8568037780233075e-01  9.8622658260342344e-01  9.8704268265863715e-01  9.8820455174934863e-01  9.8955860858081879e-01  9.8697558371433258e-01  5.5270528364385521e-02  3.1491336408290244e-02  3.1517943576711574e-02  3.1525920490594883e-02  3.1536136047712354e-02  3.1549536057527451e-02  3.1566155794812638e-02  3.1585920912716552e-02  3.1608709511092466e-02  3.1634351810496272e-02  3.1663575306757341e-02  3.1697236756005116e-02  3.1739100228261430e-02  3.1804422820488620e-02  3.2009368840400093e-02  3.3341984115776137e-02  3.6816286301094639e-02  5.9483573180800921e-02  3.5137062009094044e-01  8.8425201680376286e-01  9.6289544625779055e-01  9.7808904928998697e-01  9.8392681348236266e-01  9.8401123813657132e-01  9.8410144720626358e-01  9.8419500669126336e-01  9.8429046808652088e-01  9.8438728175823431e-01  9.8448598349993743e-01  9.8458837371403574e-01  9.8469784639847924e-01  9.8481996177433384e-01  9.8496338924943394e-01  9.8514146051451579e-01  9.8537461352683253e-01  9.8569400788354200e-01  9.8614565991655068e-01  9.8678750461090448e-01  9.8765978773167307e-01  9.8864119205245893e-01  9.8660525487528039e-01  5.5282093045304542e-02  3.1508547129134853e-02  3.1539648701884117e-02  3.1548785943415529e-02  3.1560380319202143e-02  3.1575481861347648e-02  3.1594001856378139e-02  3.1615707613300494e-02  3.1640608654005531e-02  3.1668937293652437e-02  3.1702927463419753e-02  3.1746866241216323e-02  3.1846843592898459e-02  3.2339852831281463e-02  3.5032718702949106e-02  4.3876960658639670e-02  1.0630301986778359e-01  6.5630581890554562e-01  9.4372752917910230e-01  9.7367500403332463e-01  9.8250839499671372e-01  9.8396657967410717e-01  9.8405403250669266e-01  9.8414477446822635e-01  9.8423673582095272e-01  9.8432830415838557e-01  9.8441849174904450e-01  9.8450695539178135e-01  9.8459418525571141e-01  9.8468157036031678e-01  9.8477154685457136e-01  9.8486778793653551e-01  9.8497545703959166e-01  9.8510146134427834e-01  9.8525449899878725e-01  9.8544436248479217e-01  9.8567883411311186e-01  9.8595567291653863e-01  9.8624728120236071e-01  9.8645064988105113e-01  9.8535258196182818e-01  5.5292992285223615e-02  3.1525164330999743e-02  3.1561017108531236e-02  3.1571873534679849e-02  3.1585603376281982e-02  3.1603220395771278e-02  3.1624486294741502e-02  3.1649545868106241e-02  3.1678889458344128e-02  3.1713640755157001e-02  3.1767130483114719e-02  3.1948981912556136e-02  3.3208071407396962e-02  3.7218248661672469e-02  5.9408528250950367e-02  3.3364440747598745e-01  8.6947043176324323e-01  9.6064530689079530e-01  9.7821071234782508e-01  9.8392131848296283e-01  9.8400525182429399e-01  9.8409381528129825e-01  9.8418388392252443e-01  9.8427308112288148e-01  9.8435962166864932e-01  9.8444221119798259e-01  9.8452002487872736e-01  9.8459270360172446e-01  9.8466038889143570e-01  9.8472369127470760e-01  9.8478361697353334e-01  9.8484139450184605e-01  9.8489812733084403e-01  9.8495407760585585e-01  9.8500722092478477e-01  9.8505044523944318e-01  9.8506648695045074e-01  9.8502111788504221e-01  9.8485873818399627e-01  9.8454838927542543e-01  9.8409404970883696e-01  5.5302310404319481e-02  3.1540010027449293e-02  3.1580835040863779e-02  3.1594280645318898e-02  3.1611254909816214e-02  3.1632816623167831e-02  3.1658939514548012e-02  3.1690167210267413e-02  3.1730044623741217e-02  3.1811274125530510e-02  3.2229851883903309e-02  3.4442697598477373e-02  4.2532923532000860e-02  1.0331513989648254e-01  5.9765347886104325e-01  9.3601274306474291e-01  9.7218463642537101e-01  9.8182514833403944e-01  9.8395736013481061e-01  9.8404305974770778e-01  9.8413155376543937e-01  9.8421991077190840e-01  9.8430562846520830e-01  9.8438674051185182e-01  9.8446171388475356e-01  9.8452943025951989e-01  9.8458910700387170e-01  9.8464025573208858e-01  9.8468261692679482e-01  9.8471603725075973e-01  9.8474026289990579e-01  9.8475460210989019e-01  9.8475738967161186e-01  9.8474515177931521e-01  9.8471138710263184e-01  9.8464509267548372e-01  9.8453002041785342e-01  9.8434839768563986e-01  9.8411416789109796e-01  9.7963911616199217e-01  4.7762416334139857e-01  5.5308769058205497e-02  3.1551435356366245e-02  3.1597407219946298e-02  3.1614831142588722e-02  3.1637267820797364e-02  3.1665846678617181e-02  3.1700330498275531e-02  3.1749071071308824e-02  3.1887775137656699e-02  3.2849288661110206e-02  3.6542758105029292e-02  5.4750769281948407e-02  2.6646930863204377e-01  8.4225180425280577e-01  9.5818072520902309e-01  9.7782121572998071e-01  9.8391083245975508e-01  9.8399322427512415e-01  9.8408003966176749e-01  9.8416782688711146e-01  9.8425382167267661e-01  9.8433561514967227e-01  9.8441116614517310e-01  9.8447883682890203e-01  9.8453734295565820e-01  9.8458571483125534e-01  9.8462322421889126e-01  9.8464930996550049e-01  9.8466347269844046e-01  9.8466512904051984e-01  9.8465340557355530e-01  9.8462686671748112e-01  9.8458318753552820e-01  9.8451884404992318e-01  9.8442907594693263e-01  9.8430877754539725e-01  9.8415575443588910e-01  9.8398611336421893e-01  9.7650003259090623e-01  2.8063691880290459e-01  5.9489438659987688e-02  5.5310585466314649e-02  3.1557127533680784e-02  3.1608549282735814e-02  3.1632791324544822e-02  3.1664773035322655e-02  3.1705632869213393e-02  3.1771721916661055e-02  3.2033827206335130e-02  3.3682223081499547e-02  3.9920951298435585e-02  8.3856101211229508e-02  4.8944665023309086e-01  9.2214445702665271e-01  9.6998245877274947e-01  9.8103400432693111e-01  9.8394436758001413e-01  9.8402901216798877e-01  9.8411628977201682e-01  9.8420295283172832e-01  9.8428625994544527e-01  9.8436389811559066e-01  9.8443389148423577e-01  9.8449460936962396e-01  9.8454474250173696e-01  9.8458327920368849e-01  9.8460945887444573e-01  9.8462270622342363e-01  9.8462255660765885e-01  9.8460856646841599e-01  9.8458020981552907e-01  9.8453677144940255e-01  9.8447727137503627e-01  9.8440049624753490e-01  9.8430530884974199e-01  9.8419153998599007e-01  9.8406192198333375e-01  9.8392853051199902e-01  9.7385048482081338e-01  5.7813671560848279e-01  4.2137220503178176e-02  5.6840300913714649e-02  5.5305354675743414e-02  3.1554128915620691e-02  3.1612014193286894e-02  3.1648136116357410e-02  3.1698096870375517e-02  3.1788652443237600e-02  3.2275023719555998e-02  3.4868925554550415e-02  4.6397022532683782e-02  1.6356227494433639e-01  7.5386979017444189e-01  9.5185084301935863e-01  9.7620750694739677e-01  9.8352306785508592e-01  9.8397827044588637e-01  9.8406473488045887e-01  9.8415206207484118e-01  9.8423724046459671e-01  9.8431763980333753e-01  9.8439102198406692e-01  9.8445551983187829e-01  9.8450959172499009e-01  9.8455200748073279e-01  9.8458182486850687e-01  9.8459836465364137e-01  9.8460116976785628e-01  9.8458995914056779e-01  9.8456457951404286e-01  9.8452496107430520e-01  9.8447109008595901e-01  9.8440302787608636e-01  9.8432102643531039e-01  9.8422584145268910e-01  9.8411935485381652e-01  9.8400565053919842e-01  9.8379429549921371e-01  9.7106773524304268e-01  7.5959331645065831e-01  6.6841036581231403e-02  3.3180324655333528e-02  5.5530392798735555e-02  5.5290299058618944e-02  3.1539007457372807e-02  3.1605937408807287e-02  3.1666781426032048e-02  3.1786926824104694e-02  3.2546021245085557e-02  3.6142604977084672e-02  5.6827577783729724e-02  2.9800112526084732e-01  8.7996609034806372e-01  9.6541135810126533e-01  9.7976848029240715e-01  9.8392735301436640e-01  9.8401252072158785e-01  9.8410046362437642e-01  9.8418762829099093e-01  9.8427109349637698e-01  9.8434838421074289e-01  9.8441740937300326e-01  9.8447644198716289e-01  9.8452408073114339e-01  9.8455923450108684e-01  9.8458110292782608e-01  9.8458915662569513e-01  9.8458311695679290e-01  9.8456293239281323e-01  9.8452875734731982e-01  9.8448094148006027e-01  9.8442003592400018e-01  9.8434683863466865e-01  9.8426250041912922e-01  9.8416875556972505e-01  9.8406833220542367e-01  9.8396557836921983e-01  9.8204142665495631e-01  9.6742086968601027e-01  7.7698670200539321e-01  9.3862864180486394e-02  3.5991610500434985e-02  3.1742370207305179e-02  5.5261268160577096e-02  5.5262713402425029e-02  3.1509089719475268e-02  3.1595714185216887e-02  3.1742554786363168e-02  3.2751558578647429e-02  3.7638553024401132e-02  7.2445041471283528e-02  4.6872316281559134e-01  9.2971227839722226e-01  9.7267023460401825e-01  9.8239190338346538e-01  9.8395904498241005e-01  9.8404741242250493e-01  9.8413670190934444e-01  9.8422352224037546e-01  9.8430506752013303e-01  9.8437903773414914e-01  9.8444353742610058e-01  9.8449702817326534e-01  9.8453829650491187e-01  9.8456643260844667e-01  9.8458081771495620e-01  9.8458111008406335e-01  9.8456723534654544e-01  9.8453937821024640e-01  9.8449797673972006e-01  9.8444372787331269e-01  9.8437760762823101e-01  9.8430091731135472e-01  9.8421538069914549e-01  9.8412327216439666e-01  9.8402766237275929e-01  9.8393288772836929e-01  9.7988846822549314e-01  9.6136223191629522e-01  7.1836648401078973e-01  1.0434595140168947e-01  3.8301741823537711e-02  3.2335426751410837e-02  3.1451577527559282e-02  5.5199950263330841e-02  5.5224743270849565e-02  3.1470114196600243e-02  3.1622311531494626e-02  3.2728011288070916e-02  3.8655238239462902e-02  9.1847767866805805e-02  6.0320746022507299e-01  9.5068908121120876e-01  9.769631336