<?xml version="1.0"?>
<VTKFile type="UnstructuredGrid"  version="0.1"  >
<UnstructuredGrid>
<Piece  NumberOfPoints="1681" NumberOfCells="3200">
<Points>
<DataArray  type="Float64"  NumberOfComponents="3"  format="ascii">0 0 0  0.025 0 0  0.05 0 0  0.075 0 0  0.1 0 0  0.125 0 0  0.15 0 0  0.175 0 0  0.2 0 0  0.225 0 0  0.25 0 0  0.275 0 0  0.3 0 0  0.325 0 0  0.35 0 0  0.375 0 0  0.4 0 0  0.425 0 0  0.45 0 0  0.475 0 0  0.5 0 0  0.525 0 0  0.55 0 0  0.575 0 0  0.6 0 0  0.625 0 0  0.65 0 0  0.675 0 0  0.7 0 0  0.725 0 0  0.75 0 0  0.775 0 0  0.8 0 0  0.825 0 0  0.85 0 0  0.875 0 0  0.9 0 0  0.925 0 0  0.95 0 0  0.975 0 0  1 0 0  0 0.025 0  0.025 0.025 0  0.05 0.025 0  0.075 0.025 0  0.1 0.025 0  0.125 0.025 0  0.15 0.025 0  0.175 0.025 0  0.2 0.025 0  0.225 0.025 0  0.25 0.025 0  0.275 0.025 0  0.3 0.025 0  0.325 0.025 0  0.35 0.025 0  0.375 0.025 0  0.4 0.025 0  0.425 0.025 0  0.45 0.025 0  0.475 0.025 0  0.5 0.025 0  0.525 0.025 0  0.55 0.025 0  0.575 0.025 0  0.6 0.025 0  0.625 0.025 0  0.65 0.025 0  0.675 0.025 0  0.7 0.025 0  0.725 0.025 0  0.75 0.025 0  0.775 0.025 0  0.8 0.025 0  0.825 0.025 0  0.85 0.025 0  0.875 0.025 0  0.9 0.025 0  0.925 0.025 0  0.95 0.025 0  0.975 0.025 0  1 0.025 0  0 0.05 0  0.025 0.05 0  0.05 0.05 0  0.075 0.05 0  0.1 0.05 0  0.125 0.05 0  0.15 0.05 0  0.175 0.05 0  0.2 0.05 0  0.225 0.05 0  0.25 0.05 0  0.275 0.05 0  0.3 0.05 0  0.325 0.05 0  0.35 0.05 0  0.375 0.05 0  0.4 0.05 0  0.425 0.05 0  0.45 0.05 0  0.475 0.05 0  0.5 0.05 0  0.525 0.05 0  0.55 0.05 0  0.575 0.05 0  0.6 0.05 0  0.625 0.05 0  0.65 0.05 0  0.675 0.05 0  0.7 0.05 0  0.725 0.05 0  0.75 0.05 0  0.775 0.05 0  0.8 0.05 0  0.825 0.05 0  0.85 0.05 0  0.875 0.05 0  0.9 0.05 0  0.925 0.05 0  0.95 0.05 0  0.975 0.05 0  1 0.05 0  0 0.075 0  0.025 0.075 0  0.05 0.075 0  0.075 0.075 0  0.1 0.075 0  0.125 0.075 0  0.15 0.075 0  0.175 0.075 0  0.2 0.075 0  0.225 0.075 0  0.25 0.075 0  0.275 0.075 0  0.3 0.075 0  0.325 0.075 0  0.35 0.075 0  0.375 0.075 0  0.4 0.075 0  0.425 0.075 0  0.45 0.075 0  0.475 0.075 0  0.5 0.075 0  0.525 0.075 0  0.55 0.075 0  0.575 0.075 0  0.6 0.075 0  0.625 0.075 0  0.65 0.075 0  0.675 0.075 0  0.7 0.075 0  0.725 0.075 0  0.75 0.075 0  0.775 0.075 0  0.8 0.075 0  0.825 0.075 0  0.85 0.075 0  0.875 0.075 0  0.9 0.075 0  0.925 0.075 0  0.95 0.075 0  0.975 0.075 0  1 0.075 0  0 0.1 0  0.025 0.1 0  0.05 0.1 0  0.075 0.1 0  0.1 0.1 0  0.125 0.1 0  0.15 0.1 0  0.175 0.1 0  0.2 0.1 0  0.225 0.1 0  0.25 0.1 0  0.275 0.1 0  0.3 0.1 0  0.325 0.1 0  0.35 0.1 0  0.375 0.1 0  0.4 0.1 0  0.425 0.1 0  0.45 0.1 0  0.475 0.1 0  0.5 0.1 0  0.525 0.1 0  0.55 0.1 0  0.575 0.1 0  0.6 0.1 0  0.625 0.1 0  0.65 0.1 0  0.675 0.1 0  0.7 0.1 0  0.725 0.1 0  0.75 0.1 0  0.775 0.1 0  0.8 0.1 0  0.825 0.1 0  0.85 0.1 0  0.875 0.1 0  0.9 0.1 0  0.925 0.1 0  0.95 0.1 0  0.975 0.1 0  1 0.1 0  0 0.125 0  0.025 0.125 0  0.05 0.125 0  0.075 0.125 0  0.1 0.125 0  0.125 0.125 0  0.15 0.125 0  0.175 0.125 0  0.2 0.125 0  0.225 0.125 0  0.25 0.125 0  0.275 0.125 0  0.3 0.125 0  0.325 0.125 0  0.35 0.125 0  0.375 0.125 0  0.4 0.125 0  0.425 0.125 0  0.45 0.125 0  0.475 0.125 0  0.5 0.125 0  0.525 0.125 0  0.55 0.125 0  0.575 0.125 0  0.6 0.125 0  0.625 0.125 0  0.65 0.125 0  0.675 0.125 0  0.7 0.125 0  0.725 0.125 0  0.75 0.125 0  0.775 0.125 0  0.8 0.125 0  0.825 0.125 0  0.85 0.125 0  0.875 0.125 0  0.9 0.125 0  0.925 0.125 0  0.95 0.125 0  0.975 0.125 0  1 0.125 0  0 0.15 0  0.025 0.15 0  0.05 0.15 0  0.075 0.15 0  0.1 0.15 0  0.125 0.15 0  0.15 0.15 0  0.175 0.15 0  0.2 0.15 0  0.225 0.15 0  0.25 0.15 0  0.275 0.15 0  0.3 0.15 0  0.325 0.15 0  0.35 0.15 0  0.375 0.15 0  0.4 0.15 0  0.425 0.15 0  0.45 0.15 0  0.475 0.15 0  0.5 0.15 0  0.525 0.15 0  0.55 0.15 0  0.575 0.15 0  0.6 0.15 0  0.625 0.15 0  0.65 0.15 0  0.675 0.15 0  0.7 0.15 0  0.725 0.15 0  0.75 0.15 0  0.775 0.15 0  0.8 0.15 0  0.825 0.15 0  0.85 0.15 0  0.875 0.15 0  0.9 0.15 0  0.925 0.15 0  0.95 0.15 0  0.975 0.15 0  1 0.15 0  0 0.175 0  0.025 0.175 0  0.05 0.175 0  0.075 0.175 0  0.1 0.175 0  0.125 0.175 0  0.15 0.175 0  0.175 0.175 0  0.2 0.175 0  0.225 0.175 0  0.25 0.175 0  0.275 0.175 0  0.3 0.175 0  0.325 0.175 0  0.35 0.175 0  0.375 0.175 0  0.4 0.175 0  0.425 0.175 0  0.45 0.175 0  0.475 0.175 0  0.5 0.175 0  0.525 0.175 0  0.55 0.175 0  0.575 0.175 0  0.6 0.175 0  0.625 0.175 0  0.65 0.175 0  0.675 0.175 0  0.7 0.175 0  0.725 0.175 0  0.75 0.175 0  0.775 0.175 0  0.8 0.175 0  0.825 0.175 0  0.85 0.175 0  0.875 0.175 0  0.9 0.175 0  0.925 0.175 0  0.95 0.175 0  0.975 0.175 0  1 0.175 0  0 0.2 0  0.025 0.2 0  0.05 0.2 0  0.075 0.2 0  0.1 0.2 0  0.125 0.2 0  0.15 0.2 0  0.175 0.2 0  0.2 0.2 0  0.225 0.2 0  0.25 0.2 0  0.275 0.2 0  0.3 0.2 0  0.325 0.2 0  0.35 0.2 0  0.375 0.2 0  0.4 0.2 0  0.425 0.2 0  0.45 0.2 0  0.475 0.2 0  0.5 0.2 0  0.525 0.2 0  0.55 0.2 0  0.575 0.2 0  0.6 0.2 0  0.625 0.2 0  0.65 0.2 0  0.675 0.2 0  0.7 0.2 0  0.725 0.2 0  0.75 0.2 0  0.775 0.2 0  0.8 0.2 0  0.825 0.2 0  0.85 0.2 0  0.875 0.2 0  0.9 0.2 0  0.925 0.2 0  0.95 0.2 0  0.975 0.2 0  1 0.2 0  0 0.225 0  0.025 0.225 0  0.05 0.225 0  0.075 0.225 0  0.1 0.225 0  0.125 0.225 0  0.15 0.225 0  0.175 0.225 0  0.2 0.225 0  0.225 0.225 0  0.25 0.225 0  0.275 0.225 0  0.3 0.225 0  0.325 0.225 0  0.35 0.225 0  0.375 0.225 0  0.4 0.225 0  0.425 0.225 0  0.45 0.225 0  0.475 0.225 0  0.5 0.225 0  0.525 0.225 0  0.55 0.225 0  0.575 0.225 0  0.6 0.225 0  0.625 0.225 0  0.65 0.225 0  0.675 0.225 0  0.7 0.225 0  0.725 0.225 0  0.75 0.225 0  0.775 0.225 0  0.8 0.225 0  0.825 0.225 0  0.85 0.225 0  0.875 0.225 0  0.9 0.225 0  0.925 0.225 0  0.95 0.225 0  0.975 0.225 0  1 0.225 0  0 0.25 0  0.025 0.25 0  0.05 0.25 0  0.075 0.25 0  0.1 0.25 0  0.125 0.25 0  0.15 0.25 0  0.175 0.25 0  0.2 0.25 0  0.225 0.25 0  0.25 0.25 0  0.275 0.25 0  0.3 0.25 0  0.325 0.25 0  0.35 0.25 0  0.375 0.25 0  0.4 0.25 0  0.425 0.25 0  0.45 0.25 0  0.475 0.25 0  0.5 0.25 0  0.525 0.25 0  0.55 0.25 0  0.575 0.25 0  0.6 0.25 0  0.625 0.25 0  0.65 0.25 0  0.675 0.25 0  0.7 0.25 0  0.725 0.25 0  0.75 0.25 0  0.775 0.25 0  0.8 0.25 0  0.825 0.25 0  0.85 0.25 0  0.875 0.25 0  0.9 0.25 0  0.925 0.25 0  0.95 0.25 0  0.975 0.25 0  1 0.25 0  0 0.275 0  0.025 0.275 0  0.05 0.275 0  0.075 0.275 0  0.1 0.275 0  0.125 0.275 0  0.15 0.275 0  0.175 0.275 0  0.2 0.275 0  0.225 0.275 0  0.25 0.275 0  0.275 0.275 0  0.3 0.275 0  0.325 0.275 0  0.35 0.275 0  0.375 0.275 0  0.4 0.275 0  0.425 0.275 0  0.45 0.275 0  0.475 0.275 0  0.5 0.275 0  0.525 0.275 0  0.55 0.275 0  0.575 0.275 0  0.6 0.275 0  0.625 0.275 0  0.65 0.275 0  0.675 0.275 0  0.7 0.275 0  0.725 0.275 0  0.75 0.275 0  0.775 0.275 0  0.8 0.275 0  0.825 0.275 0  0.85 0.275 0  0.875 0.275 0  0.9 0.275 0  0.925 0.275 0  0.95 0.275 0  0.975 0.275 0  1 0.275 0  0 0.3 0  0.025 0.3 0  0.05 0.3 0  0.075 0.3 0  0.1 0.3 0  0.125 0.3 0  0.15 0.3 0  0.175 0.3 0  0.2 0.3 0  0.225 0.3 0  0.25 0.3 0  0.275 0.3 0  0.3 0.3 0  0.325 0.3 0  0.35 0.3 0  0.375 0.3 0  0.4 0.3 0  0.425 0.3 0  0.45 0.3 0  0.475 0.3 0  0.5 0.3 0  0.525 0.3 0  0.55 0.3 0  0.575 0.3 0  0.6 0.3 0  0.625 0.3 0  0.65 0.3 0  0.675 0.3 0  0.7 0.3 0  0.725 0.3 0  0.75 0.3 0  0.775 0.3 0  0.8 0.3 0  0.825 0.3 0  0.85 0.3 0  0.875 0.3 0  0.9 0.3 0  0.925 0.3 0  0.95 0.3 0  0.975 0.3 0  1 0.3 0  0 0.325 0  0.025 0.325 0  0.05 0.325 0  0.075 0.325 0  0.1 0.325 0  0.125 0.325 0  0.15 0.325 0  0.175 0.325 0  0.2 0.325 0  0.225 0.325 0  0.25 0.325 0  0.275 0.325 0  0.3 0.325 0  0.325 0.325 0  0.35 0.325 0  0.375 0.325 0  0.4 0.325 0  0.425 0.325 0  0.45 0.325 0  0.475 0.325 0  0.5 0.325 0  0.525 0.325 0  0.55 0.325 0  0.575 0.325 0  0.6 0.325 0  0.625 0.325 0  0.65 0.325 0  0.675 0.325 0  0.7 0.325 0  0.725 0.325 0  0.75 0.325 0  0.775 0.325 0  0.8 0.325 0  0.825 0.325 0  0.85 0.325 0  0.875 0.325 0  0.9 0.325 0  0.925 0.325 0  0.95 0.325 0  0.975 0.325 0  1 0.325 0  0 0.35 0  0.025 0.35 0  0.05 0.35 0  0.075 0.35 0  0.1 0.35 0  0.125 0.35 0  0.15 0.35 0  0.175 0.35 0  0.2 0.35 0  0.225 0.35 0  0.25 0.35 0  0.275 0.35 0  0.3 0.35 0  0.325 0.35 0  0.35 0.35 0  0.375 0.35 0  0.4 0.35 0  0.425 0.35 0  0.45 0.35 0  0.475 0.35 0  0.5 0.35 0  0.525 0.35 0  0.55 0.35 0  0.575 0.35 0  0.6 0.35 0  0.625 0.35 0  0.65 0.35 0  0.675 0.35 0  0.7 0.35 0  0.725 0.35 0  0.75 0.35 0  0.775 0.35 0  0.8 0.35 0  0.825 0.35 0  0.85 0.35 0  0.875 0.35 0  0.9 0.35 0  0.925 0.35 0  0.95 0.35 0  0.975 0.35 0  1 0.35 0  0 0.375 0  0.025 0.375 0  0.05 0.375 0  0.075 0.375 0  0.1 0.375 0  0.125 0.375 0  0.15 0.375 0  0.175 0.375 0  0.2 0.375 0  0.225 0.375 0  0.25 0.375 0  0.275 0.375 0  0.3 0.375 0  0.325 0.375 0  0.35 0.375 0  0.375 0.375 0  0.4 0.375 0  0.425 0.375 0  0.45 0.375 0  0.475 0.375 0  0.5 0.375 0  0.525 0.375 0  0.55 0.375 0  0.575 0.375 0  0.6 0.375 0  0.625 0.375 0  0.65 0.375 0  0.675 0.375 0  0.7 0.375 0  0.725 0.375 0  0.75 0.375 0  0.775 0.375 0  0.8 0.375 0  0.825 0.375 0  0.85 0.375 0  0.875 0.375 0  0.9 0.375 0  0.925 0.375 0  0.95 0.375 0  0.975 0.375 0  1 0.375 0  0 0.4 0  0.025 0.4 0  0.05 0.4 0  0.075 0.4 0  0.1 0.4 0  0.125 0.4 0  0.15 0.4 0  0.175 0.4 0  0.2 0.4 0  0.225 0.4 0  0.25 0.4 0  0.275 0.4 0  0.3 0.4 0  0.325 0.4 0  0.35 0.4 0  0.375 0.4 0  0.4 0.4 0  0.425 0.4 0  0.45 0.4 0  0.475 0.4 0  0.5 0.4 0  0.525 0.4 0  0.55 0.4 0  0.575 0.4 0  0.6 0.4 0  0.625 0.4 0  0.65 0.4 0  0.675 0.4 0  0.7 0.4 0  0.725 0.4 0  0.75 0.4 0  0.775 0.4 0  0.8 0.4 0  0.825 0.4 0  0.85 0.4 0  0.875 0.4 0  0.9 0.4 0  0.925 0.4 0  0.95 0.4 0  0.975 0.4 0  1 0.4 0  0 0.425 0  0.025 0.425 0  0.05 0.425 0  0.075 0.425 0  0.1 0.425 0  0.125 0.425 0  0.15 0.425 0  0.175 0.425 0  0.2 0.425 0  0.225 0.425 0  0.25 0.425 0  0.275 0.425 0  0.3 0.425 0  0.325 0.425 0  0.35 0.425 0  0.375 0.425 0  0.4 0.425 0  0.425 0.425 0  0.45 0.425 0  0.475 0.425 0  0.5 0.425 0  0.525 0.425 0  0.55 0.425 0  0.575 0.425 0  0.6 0.425 0  0.625 0.425 0  0.65 0.425 0  0.675 0.425 0  0.7 0.425 0  0.725 0.425 0  0.75 0.425 0  0.775 0.425 0  0.8 0.425 0  0.825 0.425 0  0.85 0.425 0  0.875 0.425 0  0.9 0.425 0  0.925 0.425 0  0.95 0.425 0  0.975 0.425 0  1 0.425 0  0 0.45 0  0.02
[...]
<PointData  Scalars="ControlVisualisation"> 
<DataArray  type="Float64"  Name="ControlVisualisation"  format="ascii">1.9779058127936420e-04  1.3186168012425904e-04  1.3188642409792868e-04  1.3192839123275598e-04  1.3198709256366861e-04  1.3206207605998663e-04  1.3215272000137400e-04  1.3225827543439568e-04  1.3237787140465613e-04  1.3251051965531275e-04  1.3265512117941201e-04  1.3281047148835609e-04  1.3297526436707252e-04  1.3314809330956882e-04  1.3332744970964288e-04  1.3351171686000834e-04  1.3369915880717440e-04  1.3388790310857925e-04  1.3407591645345169e-04  1.3426097179679457e-04  1.3444060496858642e-04  1.3461205761813454e-04  1.3477220201289116e-04  1.3491744239143219e-04  1.3504358816248007e-04  1.3514569912622952e-04  1.3521791284564139e-04  1.3525328329915646e-04  1.3524368646718651e-04  1.3517990089341659e-04  1.3505204022254224e-04  1.3485062476534910e-04  1.3456859930814389e-04  1.3420471012207325e-04  1.3376822172458434e-04  1.3328425507632051e-04  1.3279667792014560e-04  1.3236411412739064e-04  1.3204788280530032e-04  1.3188416936887277e-04  3.9604292113956690e-04  1.3186169881863023e-04  6.5935821795211564e-05  6.5960374426937018e-05  6.6004120977227409e-05  6.6067225956522105e-05  6.6149237854625027e-05  6.6249545387917102e-05  6.6367412458344683e-05  6.6501967785115128e-05  6.6652209211081942e-05  6.6817006798167031e-05  6.6995104589207566e-05  6.7185120815694784e-05  6.7385545591989521e-05  6.7594735111107691e-05  6.7810901271097402e-05  6.8032095625156707e-05  6.8256186558806833e-05  6.8480828573507530e-05  6.8703422352270151e-05  6.8921063687492806e-05  6.9130478224876444e-05  6.9327937417221845e-05  6.9509150001923387e-05  6.9669123779503289e-05  6.9801997758786634e-05  6.9900853091635492e-05  6.9957534657252792e-05  6.9962546812872873e-05  6.9905151060653124e-05  6.9773850796292478e-05  6.9557499198117710e-05  6.9247472217731344e-05  6.8841137502990873e-05  6.8347045923734502e-05  6.7790293416124391e-05  6.7216997497896689e-05  6.6693216193423915e-05  6.6288909961232964e-05  6.6043552716995224e-05  1.3188451714435040e-04  1.3188664462328103e-04  6.5960538353826266e-05  6.5991482757605456e-05  6.6041602846603027e-05  6.6114041425084430e-05  6.6208403036814955e-05  6.6324020269354904e-05  6.6460072469300957e-05  6.6615585850468965e-05  6.6789438909527579e-05  6.6980364070955985e-05  6.7186949015143275e-05  6.7407636287040675e-05  6.7640720126221007e-05  6.7884339403701056e-05  6.8136465417381446e-05  6.8394883298441208e-05  6.8657165912874778e-05  6.8920639335625752e-05  6.9182339067234931e-05  6.9438955766275200e-05  6.9686768105129153e-05  6.9921558309456145e-05  7.0138503793781173e-05  7.0332037224316230e-05  7.0495670608183142e-05  7.0621787615121506e-05  7.0701446148148712e-05  7.0724257267774476e-05  7.0678439425359398e-05  7.0551254853437273e-05  7.0329872138573244e-05  7.0003947424460676e-05  6.9568329594985062e-05  6.9029821938083980e-05  6.8410818854565078e-05  6.7757899522267892e-05  6.7144948008826598e-05  6.6653137267001870e-05  6.6306097755887070e-05  1.3205517181946581e-04  1.3192944959468703e-04  6.6005043113331186e-05  6.6042447188930148e-05  6.6093255710880969e-05  6.6166305243758441e-05  6.6261455033546495e-05  6.6378055294410347e-05  6.6515277981360027e-05  6.6672143383437544e-05  6.6847524045756868e-05  6.7040147767151605e-05  6.7248600324697075e-05  6.7471326587465613e-05  6.7706629194569905e-05  6.7952663610790020e-05  6.8207428257368349e-05  6.8468748482988529e-05  6.8734253466235423e-05  6.9001345735648565e-05  6.9267163803382465e-05  6.9528538858184272e-05  6.9781945724463898e-05  7.0023445465040659e-05  7.0248610581964284e-05  7.0452424326081483e-05  7.0629141012526638e-05  7.0772132210612595e-05  7.0873691480826304e-05  7.0924879294570505e-05  7.0915294958387502e-05  7.0833772808550624e-05  7.0668586679065878e-05  7.0410679144106280e-05  7.0051792396969991e-05  6.9594455723229889e-05  6.9052079364380724e-05  6.8445733499975927e-05  6.7820950549384794e-05  6.7266097186336293e-05  6.6793117414475694e-05  1.3242528067798599e-04  1.3199039697774301e-04  6.6070308209356551e-05  6.6117321374599083e-05  6.6168753002534723e-05  6.6242010177420058e-05  6.6337395395752921e-05  6.6454280091192709e-05  6.6591833159287573e-05  6.6749073272932841e-05  6.6924872608854218e-05  6.7117962111937064e-05  6.7326936076147421e-05  6.7550255676249854e-05  6.7786250556619077e-05  6.8033117215093430e-05  6.8288912750487856e-05  6.8551542614553131e-05  6.8818741453580896e-05  6.9088047564718548e-05  6.9356773371091266e-05  6.9621976648302544e-05  6.9880436029609827e-05  7.0128633759078328e-05  7.0362733935518901e-05  7.0578565574462210e-05  7.0771541845270411e-05  7.0936606978405566e-05  7.1067816092134072e-05  7.1158591943258664e-05  7.1201175615320868e-05  7.1189104207664184e-05  7.1113839858853207e-05  7.0966387334160742e-05  7.0739594361162041e-05  7.0420732840288677e-05  7.0065680934976876e-05  6.9633811755604388e-05  6.9121121106451871e-05  6.8540637204279106e-05  6.7646930627848271e-05  1.3302213239941134e-04  1.3207012950854481e-04  6.6157065542069287e-05  6.6217070013459907e-05  6.6269321982929372e-05  6.6342819119879153e-05  6.6438473598163348e-05  6.6555679981865264e-05  6.6693604024398796e-05  6.6851261541961714e-05  6.7027524052213564e-05  6.7221126296765688e-05  6.7430673275231028e-05  6.7654647030799856e-05  6.7891412172990214e-05  6.8139218788098593e-05  6.8396200989507725e-05  6.8660369313626633e-05  6.8929595595192472e-05  6.9201591757801577e-05  6.9473884866140827e-05  6.9743800687915966e-05  7.0008465242896167e-05  7.0264854084665490e-05  7.0509852683473429e-05  7.0740343766053672e-05  7.0953098573470712e-05  7.1145012222909178e-05  7.1312642856400624e-05  7.1454312500925403e-05  7.1565808798499755e-05  7.1642308157833401e-05  7.1680994268015472e-05  7.1668051211923623e-05  7.1695733446635508e-05  7.1622352039795914e-05  7.1848858847591468e-05  7.2221027946497505e-05  7.2376838031226973e-05  7.1219250420602654e-05  6.8415381702004464e-05  1.3299375061365224e-04  1.3216944781571256e-04  6.6266274320793205e-05  6.6342837615795811e-05  6.6396138634524100e-05  6.6469931170776652e-05  6.6565912942550547e-05  6.6683509626287051e-05  6.6821882689060519e-05  6.6980043200479665e-05  6.7156860773327594e-05  6.7351073433248549e-05  6.7561297721944373e-05  6.7786039554828804e-05  6.8023704832336778e-05  6.8272608348951766e-05  6.8530978761104441e-05  6.8796956821041177e-05  6.9068584031161604e-05  6.9343781503917545e-05  6.9620320173227721e-05  6.9895815487603613e-05  7.0167753482017022e-05  7.0433608773581548e-05  7.0690969910437951e-05  7.0937741776896853e-05  7.1172466363730039e-05  7.1395051056006526e-05  7.1606228087006576e-05  7.1805639852607700e-05  7.1993243804165468e-05  7.2157538215906352e-05  7.2409673326476827e-05  7.2638754068947710e-05  7.3369931259241415e-05  7.3863718781545820e-05  7.6870781468368993e-05  8.3033088694066715e-05  8.9542913975505933e-05  9.0921898326076374e-05  8.3448597083060096e-05  1.3890940209941366e-04  1.3228936073091802e-04  6.6399172702038921e-05  6.6496088250345327e-05  6.6550676625638119e-05  6.6624818294191296e-05  6.6721182856154616e-05  6.6839234679926847e-05  6.6978129043787125e-05  6.7136869995323818e-05  6.7314323124929103e-05  6.7509228076964399e-05  6.7720212248575359e-05  6.7945806585816395e-05  6.8184462723463546e-05  6.8434569965981912e-05  6.8694469023941515e-05  6.8962457486489902e-05  6.9236783114776421e-05  6.9515617049217915e-05  6.9797022868433285e-05  7.0078912178570677e-05  7.0359043916107725e-05  7.0635118639140291e-05  7.0905529554213739e-05  7.1169494311220139e-05  7.1428649594405469e-05  7.1681820224079419e-05  7.1936538048361897e-05  7.2181389798210683e-05  7.2523782324230500e-05  7.2822863359182487e-05  7.3593100066743870e-05  7.4370748966255939e-05  8.0588102788831695e-05  9.1996507249644230e-05  1.2318599821017041e-04  3.5895775835187953e-04  7.7029575624391125e-02  1.9618753094396951e-01  2.7971480640502844e-01  1.4807579596477138e-01  1.3243110129298146e-04  6.6557289619751297e-05  6.6678634610112535e-05  6.6734762755089601e-05  6.6809305239151165e-05  6.6906103008954122e-05  6.7024666815722377e-05  6.7164143439169962e-05  6.7323526872378753e-05  6.7501675447172711e-05  6.7697327195922821e-05  6.7909117515685269e-05  6.8135600752623114e-05  6.8375275518086571e-05  6.8626612061456818e-05  6.8888079062635381e-05  6.9158161457542449e-05  6.9435369597190704e-05  6.9718188278152169e-05  7.0005053917992295e-05  7.0294018089624079e-05  7.0583169265117315e-05  7.0870103958164442e-05  7.1154945535710807e-05  7.1435107387447563e-05  7.1715996734896144e-05  7.1987876771944774e-05  7.2328445261152875e-05  7.2640047713254946e-05  7.3407567886458477e-05  7.4033715482275790e-05  8.0063674719767615e-05  9.2563339705154253e-05  1.4323436738565876e-04  3.0234087250110456e-02  2.8245205694610642e-01  5.9545378072919930e-01  9.1066454712701495e-01  9.9960036087457749e-01  9.9984778568716515e-01  9.9973816870412124e-01  1.3259614590986965e-04  6.6742478308383452e-05  6.6892681403294448e-05  6.6950618824197886e-05  6.7025610328900337e-05  6.7122884537540854e-05  6.7242006107290771e-05  6.7382110091926027e-05  6.7542176392195770e-05  6.7721051612684840e-05  6.7917467031378340e-05  6.8130060045301522e-05  6.8357401613803936e-05  6.8598032414873882e-05  6.8850504686660796e-05  6.9113433502878587e-05  6.9385525670052464e-05  6.9665613300016354e-05  6.9952534897727820e-05  7.0245323968428895e-05  7.0542252240835644e-05  7.0842851778749351e-05  7.1141254363647321e-05  7.1438214103503457e-05  7.1727498473653087e-05  7.2049482485415770e-05  7.2375938139937558e-05  7.2946542084529963e-05  7.3445649223276050e-05  7.8412610164193850e-05  8.9306981132441460e-05  1.3284274556410276e-04  1.7141836720353777e-02  2.9341324071491964e-01  6.9491820629888412e-01  9.9928785004199205e-01  9.9983275615910039e-01  9.9990453059397510e-01  9.9993572347849280e-01  9.9995407239124923e-01  9.9991180189869699e-01  1.3278623984413072e-04  6.6956956954898896e-05  6.7140876029183653e-05  6.7200914154147027e-05  6.7276399527479416e-05  6.7374184734794447e-05  6.7493895411566886e-05  6.7634650600585961e-05  6.7795411231113205e-05  6.7975006556549980e-05  6.8172153247522525e-05  6.8385480069437386e-05  6.8613561249585071e-05  6.8854969384554739e-05  6.9108327375119692e-05  6.9372391508342956e-05  6.9646085621299767e-05  6.9928670324206500e-05  7.0219637826034759e-05  7.0519205493305498e-05  7.0825902568263862e-05  7.1139146751390727e-05  7.1448715496229441e-05  7.1762367630965595e-05  7.2108833138966028e-05  7.2538277855773982e-05  7.3100623443547535e-05  7.6253845596702349e-05  8.5141179641462096e-05  1.1820287198782682e-04  7.8517664805899932e-04  2.4613950837344623e-01  6.4783505991108503e-01  9.9896436987650894e-01  9.9981505188898734e-01  9.9989621784188232e-01  9.9992982903672700e-01  9.9994907843309755e-01  9.9996052429344218e-01  9.9996776922909125e-01  9.9994096041518310e-01  1.3300342628969636e-04  6.7203357847190546e-05  6.7426372508363255e-05  6.7488832439744701e-05  6.7564855093479103e-05  6.7663176698550342e-05  6.7783490009926228e-05  6.7924892502890761e-05  6.8086320491779706e-05  6.8266579831901595e-05  6.8464364472223792e-05  6.8678282802081295e-05  6.8906887453057907e-05  6.9148739185452061e-05  6.9402478723795425e-05  6.9666996196926634e-05  6.9941614146125665e-05  7.0226147384448072e-05  7.0520768281234241e-05  7.0825148569798215e-05  7.1143875051847815e-05  7.1472480826449209e-05  7.1862964264236191e-05  7.2198461268707830e-05  7.2800953832982020e-05  7.4599649754983550e-05  8.2351646054927761e-05  1.0589910107078728e-04  2.9220813360120797e-04  1.7856338547585460e-01  5.5450019570830489e-01  9.8322511656887401e-01  9.9976333958113450e-01  9.9987654938385373e-01  9.9991633738880170e-01  9.9993686513298508e-01  9.9994692642621086e-01  9.9995289689269018e-01  9.9995716369068044e-01  9.9996024626385005e-01  9.9993025479763264e-01  1.3325007846615552e-04  6.7484785972757601e-05  6.7752909985400940e-05  6.7818155736251498e-05  6.7894763968602461e-05  6.7993640265725987e-05  6.8114547811338344e-05  6.8256555501934076e-05  6.8418572617167476e-05  6.8599382530942413e-05  6.8797650639422885e-05  6.9011930021192837e-05  6.9240696405476913e-05  6.9482434597914375e-05  6.9735937250351367e-05  7.0000048656430793e-05  7.0274536060226006e-05  7.0558031846501792e-05  7.0854946674902446e-05  7.1162893229268864e-05  7.1536135817972335e-05  7.1879655968472216e-05  7.2604717460290666e-05  7.3452354731917872e-05  8.0027603325061092e-05  9.6838697114267093e-05  1.8782720376485872e-04  1.1502162837989313e-01  4.5735359922272761e-01  8.8754856252227654e-01  9.9968562780446879e-01  9.9985263228921406e-01  9.9990264283870001e-01  9.9992687083439935e-01  9.9993649926690786e-01  9.9993891162946091e-01  9.9993594732411306e-01  9.9992708234237548e-01  9.9992038133643302e-01  9.9991091479732963e-01  9.9983216209096526e-01  1.3352893142989244e-04  6.7804886036894275e-05  6.8124907662179954e-05  6.8193370717736066e-05  6.8270632653678735e-05  6.8370080493301312e-05  6.8491547383270877e-05  6.8634069841203696e-05  6.8796533562263907e-05  6.8977692564173640e-05  6.9176176375495185e-05  6.9390466830546751e-05  6.9619099140483460e-05  6.9860216481202009e-05  7.0112813363321907e-05  7.0373641027316310e-05  7.0646055772424223e-05  7.0928381300657385e-05  7.1251372995477101e-05  7.1565736383816551e-05  7.2111682347265158e-05  7.2701713620909416e-05  7.8609616621491164e-05  9.0837240179041028e-05  1.4415356551327957e-04  5.2234569216303060e-02  3.6460937188331055e-01  7.8551609451973747e-01  9.9953070532501653e-01  9.9982645164384920e-01  9.9989046382610769e-01  9.9991873519582308e-01  9.9993034195535424e-01  9.9993238808068585e-01  9.9992631669719489e-01  9.9990798705538508e-01  9.9987441884749040e-01  9.9978390734176359e-01  9.8917476250270298e-01  4.9374815674079808e-01  3.1331141356535647e-01  1.3384310598214401e-04  6.8167913668170120e-05  6.8547576294392300e-05  6.8619802476903397e-05  6.8697840798917208e-05  6.8797896739967017e-05  6.8919861122799757e-05  6.9062718733595464e-05  6.9225334608319719e-05  6.9406488932039067e-05  6.9604983806069968e-05  6.9819170678222739e-05  7.0047543514042748e-05  7.0285948245452735e-05  7.0536133770824825e-05  7.0794574403761358e-05  7.1078518983786908e-05  7.1376284612681054e-05  7.1783486046719705e-05  7.2324439276901808e-05  7.6171293512867819e-05  8.5667299826747473e-05  1.2396693848105249e-04  3.1289662850951107e-03  2.7990944176112287e-01  6.8306425583827912e-01  9.9907401560866882e-01  9.9979200510659416e-01  9.9987714705662911e-01  9.9991071920253449e-01  9.9992556985035730e-01  9.9992896477767612e-01  9.9992338678766624e-01  9.9990401417471664e-01  9.9986507806473024e-01  9.9975087963020393e-01  9.6378840863901072e-01  5.3542482095574984e-01  1.3392844027926193e-01  1.3469545672965843e-04  1.5672091371856712e-04  1.3419610458498463e-04  6.8578795765869452e-05  6.9027042737301289e-05  6.9103794265959513e-05  6.9182868925902710e-05  6.9283614875273222e-05  6.9405931400285366e-05  6.9548779208158303e-05  6.9711189100667183e-05  6.9892056721280533e-05  7.0090183424964672e-05  7.0302778606694830e-05  7.0530038945619818e-05  7.0768278798187794e-05  7.1026883644930320e-05  7.1311243237113010e-05  7.1609873437471639e-05  7.2130896784991700e-05  7.4589569276939079e-05  8.2768466160807253e-05  1.0960340105969897e-04  4.0368656041952507e-04  2.0613498479186823e-01  5.8396572851868322e-01  9.9154122637261344e-01  9.9974608401422027e-01  9.9986221471772319e-01  9.9990240832719435e-01  9.9992130545466551e-01  9.9992649435661640e-01  9.9992225047789207e-01  9.9990495286167758e-01  9.9986880374529885e-01  9.9976652604400662e-01  9.9697621497071010e-01  5.9843056254717097e-01  2.0966409354331547e-01  4.5250562437571044e-04  1.1186776921383442e-04  8.0546890892850131e-05  1.3813990252819637e-04  1.3459173383416058e-04  6.9043152751886413e-05  6.9570489020119117e-05  6.9652945377029850e-05  6.9733583039806855e-05  6.9835203744008005e-05  6.9957755965037552e-05  7.0100234210337142e-05  7.0261587174724163e-05  7.0440187228631128e-05  7.0636233191452116e-05  7.0850859300798785e-05  7.1089587848911418e-05  7.1356698974710101e-05  7.1598875751430007e-05  7.2101809340896188e-05  7.3496748786598253e-05  8.0671156122441676e-05  1.0039831299233296e-04  2.2967411650588510e-04  1.4235357160882781e-01  4.8845367713999299e-01  9.1119164874908687e-01  9.9968599527475477e-01  9.9984459236684009e-01  9.9989386810364767e-01  9.9991740300003640e-01  9.9992468110785859e-01  9.9992198329010207e-01  9.9990708509156689e-01  9.9987407311507415e-01  9.9978933363272371e-01  9.9901469509999186e-01  6.6868479782443169e-01  2.6914229953109242e-01  5.1419658765173180e-03  1.3149938415326479e-04  9.1749357272946557e-05  8.1756096049634020e-05  7.4676023203126826e-05  1.3780671672586835e-04  1.3503388241930609e-04  6.9567193376659473e-05  7.0186214297878835e-05  7.0276401303128927e-05  7.0359875077463394e-05  7.0463063056859789e-05  7.0585422675393508e-05  7.0725545251760569e-05  7.0883413224388740e-05  7.1061656621907566e-05  7.1265111357157046e-05  7.1498932119452640e-05  7.1729173936325416e-05  7.2169629202118148e-05  7.2934583385978797e-05  7.9339931622880586e-05  9.3949866801048084e-05  1.6737079776511495e-04  8.2682553102390310e-02  4.0119702585964162e-01  8.2091075373343725e-01  9.9957424881389523e-01  9.9982520210930581e-01  9.9988596820225550e-01  9.9991323144480937e-01  9.9992314552994932e-01  9.9992225848251259e-01  9.9990991464629519e-01  9.9988008691501606e-01  9.9980940865414536e-01  9.9941170154261127e-01  7.4037420392822595e-01  3.3320159525667381e-01  4.1609418519823665e-02  1.4839739869468741e-04  9.4116994856713481e-05  8.3521298654118839e-05  7.7690195643732602e-05  7.6046140684488144e-05  7.3899315541034130e-05  1.3815382728913758e-04  1.3552573937489058e-04  7.0157209087737832e-05  7.0883731028561231e-05  7.0985821741528337e-05  7.1074766387914980e-05  7.1179880975392033e-05  7.1300028021815959e-05  7.1438701493087512e-05  7.1600034313195913e-05  7.1786007470056590e-05  7.1980532666120968e-05  7.2305952126250299e-05  7.2913573024071279e-05  7.8175045785018940e-05  8.9178009404417978e-05  1.3786106569832420e-04  3.4310282965278105e-02  3.2201510062877997e-01  7.3134776408448909e-01  9.9933030442690252e-01  9.9980015562625513e-01  9.9987638051963201e-01  9.9990798358837452e-01  9.9992112261874622e-01  9.9992238144750123e-01  9.9991269459859411e-01  9.9988590880538286e-01  9.9982668624846927e-01  9.9958463903998462e-01  8.1696493643413215e-01  4.0306229608847577e-01  8.3067446116835128e-02  1.7626284342553785e-04  9.7425647479898008e-05  8.3068633203304946e-05  7.6587538459709455e-05  7.5512713038170166e-05  7.5146374367383341e-05  7.4705196075979397e-05  7.3183142216660114e-05  1.3783813280161570e-04  1.3606842605575433e-04  7.0818856297546540e-05  7.1673832028667958e-05  7.1795330200597808e-05  7.1893717944142814e-05  7.2005686203080956e-05  7.2129231019311943e-05  7.2270441571678485e-05  7.2423683037341891e-05  7.2650730289782088e-05  7.3172538721094600e-05  7.6820608484548433e-05  8.5805122673284057e-05  1.2130329306533879e-04  1.3206928860791055e-03  2.5154141848943168e-01  6.4452131072535579e-01  9.9844191142656680e-01  9.9976775099209159e-01  9.9986553183024507e-01  9.9990214828496271e-01  9.9991872748166688e-01  9.9992203504400179e-01  9.9991476909214294e-01  9.9989054501662467e-01  9.9984005361380501e-01  9.9967461192199059e-01  8.9372741577362314e-01  4.7767316825519279e-01  1.3646402589090423e-01  2.3563583171728520e-04  1.0224958845681580e-04  8.2901730046401625e-05  7.5974392786584848e-05  7.4473867583634779e-05  7.4146279788307707e-05  7.3993922275514336e-05  7.3836420349202131e-05  7.3578281519703253e-05  7.2347063287749028e-05  1.3726337876444485e-04  1.3665697374339906e-04  7.1552249988988720e-05  7.2564652254776467e-05  7.2726250670916771e-05  7.2852309638723326e-05  7.2987689012021778e-05  7.3104146626899882e-05  7.3241423555737615e-05  7.366694343