<?xml version="1.0"?>
<VTKFile type="UnstructuredGrid"  version="0.1"  >
<UnstructuredGrid>
<Piece  NumberOfPoints="1681" NumberOfCells="3200">
<Points>
<DataArray  type="Float64"  NumberOfComponents="3"  format="ascii">0 0 0  0.025 0 0  0.05 0 0  0.075 0 0  0.1 0 0  0.125 0 0  0.15 0 0  0.175 0 0  0.2 0 0  0.225 0 0  0.25 0 0  0.275 0 0  0.3 0 0  0.325 0 0  0.35 0 0  0.375 0 0  0.4 0 0  0.425 0 0  0.45 0 0  0.475 0 0  0.5 0 0  0.525 0 0  0.55 0 0  0.575 0 0  0.6 0 0  0.625 0 0  0.65 0 0  0.675 0 0  0.7 0 0  0.725 0 0  0.75 0 0  0.775 0 0  0.8 0 0  0.825 0 0  0.85 0 0  0.875 0 0  0.9 0 0  0.925 0 0  0.95 0 0  0.975 0 0  1 0 0  0 0.025 0  0.025 0.025 0  0.05 0.025 0  0.075 0.025 0  0.1 0.025 0  0.125 0.025 0  0.15 0.025 0  0.175 0.025 0  0.2 0.025 0  0.225 0.025 0  0.25 0.025 0  0.275 0.025 0  0.3 0.025 0  0.325 0.025 0  0.35 0.025 0  0.375 0.025 0  0.4 0.025 0  0.425 0.025 0  0.45 0.025 0  0.475 0.025 0  0.5 0.025 0  0.525 0.025 0  0.55 0.025 0  0.575 0.025 0  0.6 0.025 0  0.625 0.025 0  0.65 0.025 0  0.675 0.025 0  0.7 0.025 0  0.725 0.025 0  0.75 0.025 0  0.775 0.025 0  0.8 0.025 0  0.825 0.025 0  0.85 0.025 0  0.875 0.025 0  0.9 0.025 0  0.925 0.025 0  0.95 0.025 0  0.975 0.025 0  1 0.025 0  0 0.05 0  0.025 0.05 0  0.05 0.05 0  0.075 0.05 0  0.1 0.05 0  0.125 0.05 0  0.15 0.05 0  0.175 0.05 0  0.2 0.05 0  0.225 0.05 0  0.25 0.05 0  0.275 0.05 0  0.3 0.05 0  0.325 0.05 0  0.35 0.05 0  0.375 0.05 0  0.4 0.05 0  0.425 0.05 0  0.45 0.05 0  0.475 0.05 0  0.5 0.05 0  0.525 0.05 0  0.55 0.05 0  0.575 0.05 0  0.6 0.05 0  0.625 0.05 0  0.65 0.05 0  0.675 0.05 0  0.7 0.05 0  0.725 0.05 0  0.75 0.05 0  0.775 0.05 0  0.8 0.05 0  0.825 0.05 0  0.85 0.05 0  0.875 0.05 0  0.9 0.05 0  0.925 0.05 0  0.95 0.05 0  0.975 0.05 0  1 0.05 0  0 0.075 0  0.025 0.075 0  0.05 0.075 0  0.075 0.075 0  0.1 0.075 0  0.125 0.075 0  0.15 0.075 0  0.175 0.075 0  0.2 0.075 0  0.225 0.075 0  0.25 0.075 0  0.275 0.075 0  0.3 0.075 0  0.325 0.075 0  0.35 0.075 0  0.375 0.075 0  0.4 0.075 0  0.425 0.075 0  0.45 0.075 0  0.475 0.075 0  0.5 0.075 0  0.525 0.075 0  0.55 0.075 0  0.575 0.075 0  0.6 0.075 0  0.625 0.075 0  0.65 0.075 0  0.675 0.075 0  0.7 0.075 0  0.725 0.075 0  0.75 0.075 0  0.775 0.075 0  0.8 0.075 0  0.825 0.075 0  0.85 0.075 0  0.875 0.075 0  0.9 0.075 0  0.925 0.075 0  0.95 0.075 0  0.975 0.075 0  1 0.075 0  0 0.1 0  0.025 0.1 0  0.05 0.1 0  0.075 0.1 0  0.1 0.1 0  0.125 0.1 0  0.15 0.1 0  0.175 0.1 0  0.2 0.1 0  0.225 0.1 0  0.25 0.1 0  0.275 0.1 0  0.3 0.1 0  0.325 0.1 0  0.35 0.1 0  0.375 0.1 0  0.4 0.1 0  0.425 0.1 0  0.45 0.1 0  0.475 0.1 0  0.5 0.1 0  0.525 0.1 0  0.55 0.1 0  0.575 0.1 0  0.6 0.1 0  0.625 0.1 0  0.65 0.1 0  0.675 0.1 0  0.7 0.1 0  0.725 0.1 0  0.75 0.1 0  0.775 0.1 0  0.8 0.1 0  0.825 0.1 0  0.85 0.1 0  0.875 0.1 0  0.9 0.1 0  0.925 0.1 0  0.95 0.1 0  0.975 0.1 0  1 0.1 0  0 0.125 0  0.025 0.125 0  0.05 0.125 0  0.075 0.125 0  0.1 0.125 0  0.125 0.125 0  0.15 0.125 0  0.175 0.125 0  0.2 0.125 0  0.225 0.125 0  0.25 0.125 0  0.275 0.125 0  0.3 0.125 0  0.325 0.125 0  0.35 0.125 0  0.375 0.125 0  0.4 0.125 0  0.425 0.125 0  0.45 0.125 0  0.475 0.125 0  0.5 0.125 0  0.525 0.125 0  0.55 0.125 0  0.575 0.125 0  0.6 0.125 0  0.625 0.125 0  0.65 0.125 0  0.675 0.125 0  0.7 0.125 0  0.725 0.125 0  0.75 0.125 0  0.775 0.125 0  0.8 0.125 0  0.825 0.125 0  0.85 0.125 0  0.875 0.125 0  0.9 0.125 0  0.925 0.125 0  0.95 0.125 0  0.975 0.125 0  1 0.125 0  0 0.15 0  0.025 0.15 0  0.05 0.15 0  0.075 0.15 0  0.1 0.15 0  0.125 0.15 0  0.15 0.15 0  0.175 0.15 0  0.2 0.15 0  0.225 0.15 0  0.25 0.15 0  0.275 0.15 0  0.3 0.15 0  0.325 0.15 0  0.35 0.15 0  0.375 0.15 0  0.4 0.15 0  0.425 0.15 0  0.45 0.15 0  0.475 0.15 0  0.5 0.15 0  0.525 0.15 0  0.55 0.15 0  0.575 0.15 0  0.6 0.15 0  0.625 0.15 0  0.65 0.15 0  0.675 0.15 0  0.7 0.15 0  0.725 0.15 0  0.75 0.15 0  0.775 0.15 0  0.8 0.15 0  0.825 0.15 0  0.85 0.15 0  0.875 0.15 0  0.9 0.15 0  0.925 0.15 0  0.95 0.15 0  0.975 0.15 0  1 0.15 0  0 0.175 0  0.025 0.175 0  0.05 0.175 0  0.075 0.175 0  0.1 0.175 0  0.125 0.175 0  0.15 0.175 0  0.175 0.175 0  0.2 0.175 0  0.225 0.175 0  0.25 0.175 0  0.275 0.175 0  0.3 0.175 0  0.325 0.175 0  0.35 0.175 0  0.375 0.175 0  0.4 0.175 0  0.425 0.175 0  0.45 0.175 0  0.475 0.175 0  0.5 0.175 0  0.525 0.175 0  0.55 0.175 0  0.575 0.175 0  0.6 0.175 0  0.625 0.175 0  0.65 0.175 0  0.675 0.175 0  0.7 0.175 0  0.725 0.175 0  0.75 0.175 0  0.775 0.175 0  0.8 0.175 0  0.825 0.175 0  0.85 0.175 0  0.875 0.175 0  0.9 0.175 0  0.925 0.175 0  0.95 0.175 0  0.975 0.175 0  1 0.175 0  0 0.2 0  0.025 0.2 0  0.05 0.2 0  0.075 0.2 0  0.1 0.2 0  0.125 0.2 0  0.15 0.2 0  0.175 0.2 0  0.2 0.2 0  0.225 0.2 0  0.25 0.2 0  0.275 0.2 0  0.3 0.2 0  0.325 0.2 0  0.35 0.2 0  0.375 0.2 0  0.4 0.2 0  0.425 0.2 0  0.45 0.2 0  0.475 0.2 0  0.5 0.2 0  0.525 0.2 0  0.55 0.2 0  0.575 0.2 0  0.6 0.2 0  0.625 0.2 0  0.65 0.2 0  0.675 0.2 0  0.7 0.2 0  0.725 0.2 0  0.75 0.2 0  0.775 0.2 0  0.8 0.2 0  0.825 0.2 0  0.85 0.2 0  0.875 0.2 0  0.9 0.2 0  0.925 0.2 0  0.95 0.2 0  0.975 0.2 0  1 0.2 0  0 0.225 0  0.025 0.225 0  0.05 0.225 0  0.075 0.225 0  0.1 0.225 0  0.125 0.225 0  0.15 0.225 0  0.175 0.225 0  0.2 0.225 0  0.225 0.225 0  0.25 0.225 0  0.275 0.225 0  0.3 0.225 0  0.325 0.225 0  0.35 0.225 0  0.375 0.225 0  0.4 0.225 0  0.425 0.225 0  0.45 0.225 0  0.475 0.225 0  0.5 0.225 0  0.525 0.225 0  0.55 0.225 0  0.575 0.225 0  0.6 0.225 0  0.625 0.225 0  0.65 0.225 0  0.675 0.225 0  0.7 0.225 0  0.725 0.225 0  0.75 0.225 0  0.775 0.225 0  0.8 0.225 0  0.825 0.225 0  0.85 0.225 0  0.875 0.225 0  0.9 0.225 0  0.925 0.225 0  0.95 0.225 0  0.975 0.225 0  1 0.225 0  0 0.25 0  0.025 0.25 0  0.05 0.25 0  0.075 0.25 0  0.1 0.25 0  0.125 0.25 0  0.15 0.25 0  0.175 0.25 0  0.2 0.25 0  0.225 0.25 0  0.25 0.25 0  0.275 0.25 0  0.3 0.25 0  0.325 0.25 0  0.35 0.25 0  0.375 0.25 0  0.4 0.25 0  0.425 0.25 0  0.45 0.25 0  0.475 0.25 0  0.5 0.25 0  0.525 0.25 0  0.55 0.25 0  0.575 0.25 0  0.6 0.25 0  0.625 0.25 0  0.65 0.25 0  0.675 0.25 0  0.7 0.25 0  0.725 0.25 0  0.75 0.25 0  0.775 0.25 0  0.8 0.25 0  0.825 0.25 0  0.85 0.25 0  0.875 0.25 0  0.9 0.25 0  0.925 0.25 0  0.95 0.25 0  0.975 0.25 0  1 0.25 0  0 0.275 0  0.025 0.275 0  0.05 0.275 0  0.075 0.275 0  0.1 0.275 0  0.125 0.275 0  0.15 0.275 0  0.175 0.275 0  0.2 0.275 0  0.225 0.275 0  0.25 0.275 0  0.275 0.275 0  0.3 0.275 0  0.325 0.275 0  0.35 0.275 0  0.375 0.275 0  0.4 0.275 0  0.425 0.275 0  0.45 0.275 0  0.475 0.275 0  0.5 0.275 0  0.525 0.275 0  0.55 0.275 0  0.575 0.275 0  0.6 0.275 0  0.625 0.275 0  0.65 0.275 0  0.675 0.275 0  0.7 0.275 0  0.725 0.275 0  0.75 0.275 0  0.775 0.275 0  0.8 0.275 0  0.825 0.275 0  0.85 0.275 0  0.875 0.275 0  0.9 0.275 0  0.925 0.275 0  0.95 0.275 0  0.975 0.275 0  1 0.275 0  0 0.3 0  0.025 0.3 0  0.05 0.3 0  0.075 0.3 0  0.1 0.3 0  0.125 0.3 0  0.15 0.3 0  0.175 0.3 0  0.2 0.3 0  0.225 0.3 0  0.25 0.3 0  0.275 0.3 0  0.3 0.3 0  0.325 0.3 0  0.35 0.3 0  0.375 0.3 0  0.4 0.3 0  0.425 0.3 0  0.45 0.3 0  0.475 0.3 0  0.5 0.3 0  0.525 0.3 0  0.55 0.3 0  0.575 0.3 0  0.6 0.3 0  0.625 0.3 0  0.65 0.3 0  0.675 0.3 0  0.7 0.3 0  0.725 0.3 0  0.75 0.3 0  0.775 0.3 0  0.8 0.3 0  0.825 0.3 0  0.85 0.3 0  0.875 0.3 0  0.9 0.3 0  0.925 0.3 0  0.95 0.3 0  0.975 0.3 0  1 0.3 0  0 0.325 0  0.025 0.325 0  0.05 0.325 0  0.075 0.325 0  0.1 0.325 0  0.125 0.325 0  0.15 0.325 0  0.175 0.325 0  0.2 0.325 0  0.225 0.325 0  0.25 0.325 0  0.275 0.325 0  0.3 0.325 0  0.325 0.325 0  0.35 0.325 0  0.375 0.325 0  0.4 0.325 0  0.425 0.325 0  0.45 0.325 0  0.475 0.325 0  0.5 0.325 0  0.525 0.325 0  0.55 0.325 0  0.575 0.325 0  0.6 0.325 0  0.625 0.325 0  0.65 0.325 0  0.675 0.325 0  0.7 0.325 0  0.725 0.325 0  0.75 0.325 0  0.775 0.325 0  0.8 0.325 0  0.825 0.325 0  0.85 0.325 0  0.875 0.325 0  0.9 0.325 0  0.925 0.325 0  0.95 0.325 0  0.975 0.325 0  1 0.325 0  0 0.35 0  0.025 0.35 0  0.05 0.35 0  0.075 0.35 0  0.1 0.35 0  0.125 0.35 0  0.15 0.35 0  0.175 0.35 0  0.2 0.35 0  0.225 0.35 0  0.25 0.35 0  0.275 0.35 0  0.3 0.35 0  0.325 0.35 0  0.35 0.35 0  0.375 0.35 0  0.4 0.35 0  0.425 0.35 0  0.45 0.35 0  0.475 0.35 0  0.5 0.35 0  0.525 0.35 0  0.55 0.35 0  0.575 0.35 0  0.6 0.35 0  0.625 0.35 0  0.65 0.35 0  0.675 0.35 0  0.7 0.35 0  0.725 0.35 0  0.75 0.35 0  0.775 0.35 0  0.8 0.35 0  0.825 0.35 0  0.85 0.35 0  0.875 0.35 0  0.9 0.35 0  0.925 0.35 0  0.95 0.35 0  0.975 0.35 0  1 0.35 0  0 0.375 0  0.025 0.375 0  0.05 0.375 0  0.075 0.375 0  0.1 0.375 0  0.125 0.375 0  0.15 0.375 0  0.175 0.375 0  0.2 0.375 0  0.225 0.375 0  0.25 0.375 0  0.275 0.375 0  0.3 0.375 0  0.325 0.375 0  0.35 0.375 0  0.375 0.375 0  0.4 0.375 0  0.425 0.375 0  0.45 0.375 0  0.475 0.375 0  0.5 0.375 0  0.525 0.375 0  0.55 0.375 0  0.575 0.375 0  0.6 0.375 0  0.625 0.375 0  0.65 0.375 0  0.675 0.375 0  0.7 0.375 0  0.725 0.375 0  0.75 0.375 0  0.775 0.375 0  0.8 0.375 0  0.825 0.375 0  0.85 0.375 0  0.875 0.375 0  0.9 0.375 0  0.925 0.375 0  0.95 0.375 0  0.975 0.375 0  1 0.375 0  0 0.4 0  0.025 0.4 0  0.05 0.4 0  0.075 0.4 0  0.1 0.4 0  0.125 0.4 0  0.15 0.4 0  0.175 0.4 0  0.2 0.4 0  0.225 0.4 0  0.25 0.4 0  0.275 0.4 0  0.3 0.4 0  0.325 0.4 0  0.35 0.4 0  0.375 0.4 0  0.4 0.4 0  0.425 0.4 0  0.45 0.4 0  0.475 0.4 0  0.5 0.4 0  0.525 0.4 0  0.55 0.4 0  0.575 0.4 0  0.6 0.4 0  0.625 0.4 0  0.65 0.4 0  0.675 0.4 0  0.7 0.4 0  0.725 0.4 0  0.75 0.4 0  0.775 0.4 0  0.8 0.4 0  0.825 0.4 0  0.85 0.4 0  0.875 0.4 0  0.9 0.4 0  0.925 0.4 0  0.95 0.4 0  0.975 0.4 0  1 0.4 0  0 0.425 0  0.025 0.425 0  0.05 0.425 0  0.075 0.425 0  0.1 0.425 0  0.125 0.425 0  0.15 0.425 0  0.175 0.425 0  0.2 0.425 0  0.225 0.425 0  0.25 0.425 0  0.275 0.425 0  0.3 0.425 0  0.325 0.425 0  0.35 0.425 0  0.375 0.425 0  0.4 0.425 0  0.425 0.425 0  0.45 0.425 0  0.475 0.425 0  0.5 0.425 0  0.525 0.425 0  0.55 0.425 0  0.575 0.425 0  0.6 0.425 0  0.625 0.425 0  0.65 0.425 0  0.675 0.425 0  0.7 0.425 0  0.725 0.425 0  0.75 0.425 0  0.775 0.425 0  0.8 0.425 0  0.825 0.425 0  0.85 0.425 0  0.875 0.425 0  0.9 0.425 0  0.925 0.425 0  0.95 0.425 0  0.975 0.425 0  1 0.425 0  0 0.45 0  0.02
[...]
<PointData  Scalars="ControlVisualisation"> 
<DataArray  type="Float64"  Name="ControlVisualisation"  format="ascii">4.3546905571612898e-03  2.9092555107953508e-03  2.9095551444486005e-03  2.9100623341571778e-03  2.9107716948088068e-03  2.9116783504333720e-03  2.9127754568040128e-03  2.9140546887451487e-03  2.9155062559522845e-03  2.9171189183169791e-03  2.9188800252659738e-03  2.9207755411199635e-03  2.9227900505931241e-03  2.9249067293588998e-03  2.9271072612647026e-03  2.9293716820703052e-03  2.9316781292629364e-03  2.9340024782289168e-03  2.9363178444322758e-03  2.9385939223932319e-03  2.9407961101878843e-03  2.9428843302548653e-03  2.9448114398669904e-03  2.9465211462666790e-03  2.9479455235511720e-03  2.9490024135164009e-03  2.9495936747053596e-03  2.9496057614206823e-03  2.9489140416077515e-03  2.9473934688531139e-03  2.9449356755310088e-03  2.9414798133873101e-03  2.9370643110121410e-03  2.9318782683080882e-03  2.9262870598542887e-03  2.9208075119997699e-03  2.9160277721474639e-03  2.9124441123861123e-03  2.9102695190630313e-03  2.9093133222402915e-03  8.6362088054654073e-03  2.9092557059699881e-03  1.4572743132288102e-03  1.4575725491421969e-03  1.4581029522998368e-03  1.4588677475949460e-03  1.4598617403130041e-03  1.4610778636375864e-03  1.4625075450696915e-03  1.4641405490616792e-03  1.4659650027906328e-03  1.4679674108509537e-03  1.4701326578399271e-03  1.4724439924227949e-03  1.4748829751965759e-03  1.4774293699105000e-03  1.4800609546080344e-03  1.4827532285068272e-03  1.4854789921188187e-03  1.4882077800813780e-03  1.4909051205978018e-03  1.4935315765193483e-03  1.4960414800383110e-03  1.4983812329513256e-03  1.5004870059561353e-03  1.5022818474021446e-03  1.5036724761613037e-03  1.5045471810183504e-03  1.5047758076662673e-03  1.5042139339729050e-03  1.5027136633564719e-03  1.5001399692977039e-03  1.4964076559733476e-03  1.4915243179426567e-03  1.4856663195991055e-03  1.4792167370979111e-03  1.4727248534864839e-03  1.4668496983744458e-03  1.4622424115518617e-03  1.4592612610169350e-03  1.4577560982994623e-03  2.9093073885970589e-03  2.9095574370068336e-03  1.4575742606031316e-03  1.4579483640107581e-03  1.4585540374931225e-03  1.4594291191856311e-03  1.4605689361682013e-03  1.4619657002434676e-03  1.4636097542984356e-03  1.4654895474697704e-03  1.4675916745183304e-03  1.4699008783275415e-03  1.4724000554851456e-03  1.4750702439589568e-03  1.4778905734213438e-03  1.4808381545609066e-03  1.4838878791096259e-03  1.4870121013407837e-03  1.4901801768901902e-03  1.4933578458239183e-03  1.4965064574554393e-03  1.4995820223337466e-03  1.5025340094457389e-03  1.5053036863545285e-03  1.5078217049953836e-03  1.5100048298330093e-03  1.5117519934474510e-03  1.5129409044180389e-03  1.5134254573215919e-03  1.5130411649794619e-03  1.5116185526006553e-03  1.5090007971575578e-03  1.5050791728489226e-03  1.4997697703387795e-03  1.4932250598968910e-03  1.4858666965754021e-03  1.4782790628951861e-03  1.4711509434309821e-03  1.4652881418108488e-03  1.4611960326385951e-03  1.4589191112403790e-03  2.9100744508588263e-03  2.9100733037606130e-03  1.4581125486266805e-03  1.4585628010757383e-03  1.4591759204099499e-03  1.4600574795866279e-03  1.4612056928334663e-03  1.4626130034751847e-03  1.4642696925235639e-03  1.4661641646316486e-03  1.4682829668621301e-03  1.4706108114255381e-03  1.4731306044761042e-03  1.4758234620749937e-03  1.4786686974102017e-03  1.4816437544770212e-03  1.4847240566493729e-03  1.4878827344440937e-03  1.4910902104051753e-03  1.4943136447318455e-03  1.4975162970952843e-03  1.5006568325951260e-03  1.5036886205705472e-03  1.5065587706494790e-03  1.5092068060847178e-03  1.5115613704999348e-03  1.5135352694668610e-03  1.5150163611341346e-03  1.5158701129628618e-03  1.5159463032696715e-03  1.5150898858710957e-03  1.5131586228528645e-03  1.5100016839316188e-03  1.5054015587726583e-03  1.4993337651180738e-03  1.4922756181476888e-03  1.4849520578954795e-03  1.4774773958101670e-03  1.4702412077001910e-03  1.4640111601749303e-03  1.4601469781713727e-03  2.9112073201032654e-03  2.9108058673993700e-03  1.4588997417892941e-03  1.4594630795745269e-03  1.4600827965829781e-03  1.4609661102138532e-03  1.4621163016721801e-03  1.4635260971371726e-03  1.4651857865527237e-03  1.4670837977812201e-03  1.4692067113310661e-03  1.4715393148421723e-03  1.4740646627325587e-03  1.4767641354760522e-03  1.4796174838844372e-03  1.4826028334353023e-03  1.4856966111244140e-03  1.4888733447868069e-03  1.4921053046394249e-03  1.4953619709649614e-03  1.4986094903624864e-03  1.5018102503387061e-03  1.5049232423440240e-03  1.5079042458929159e-03  1.5107065434668920e-03  1.5132755290767617e-03  1.5155492563363434e-03  1.5174385536074403e-03  1.5188580292117585e-03  1.5196381821893259e-03  1.5195895195978535e-03  1.5186128939846484e-03  1.5166928272966483e-03  1.5143372010779038e-03  1.5094447315520949e-03  1.5034230529760283e-03  1.4980736132851756e-03  1.4915564074341676e-03  1.4835439604825155e-03  1.4739413114431856e-03  1.4634803186717356e-03  2.9115435548951398e-03  2.9117614713763205e-03  1.4599427987040834e-03  1.4606584594799030e-03  1.4612869092423151e-03  1.4621722791137103e-03  1.4633247837424314e-03  1.4647374562597193e-03  1.4664006033500497e-03  1.4683026672781317e-03  1.4704302620958873e-03  1.4727682601661180e-03  1.4752998906081573e-03  1.4780068536642398e-03  1.4808694413854593e-03  1.4838666454487391e-03  1.4869762063376289e-03  1.4901745220526250e-03  1.4934363106725486e-03  1.4967339837656740e-03  1.5000371269881781e-03  1.5033122960857292e-03  1.5065243171445363e-03  1.5096369118306823e-03  1.5126192190593865e-03  1.5154447528999727e-03  1.5181127092539410e-03  1.5205567109665731e-03  1.5226968746335663e-03  1.5242862482283764e-03  1.5254076244983958e-03  1.5265393003823576e-03  1.5280430682437006e-03  1.5347563210937817e-03  1.5386454004080259e-03  1.5569484452041223e-03  1.6043911217917522e-03  1.6520907768811165e-03  1.6541104354292789e-03  1.5514615843011809e-03  1.4948492237276470e-03  2.9393680045940386e-03  2.9129477614519015e-03  1.4612506553951020e-03  1.4621595695475911e-03  1.4627993022089444e-03  1.4636874066114914e-03  1.4648429726915107e-03  1.4662594241944152e-03  1.4679270667042627e-03  1.4698343289454544e-03  1.4719678371453006e-03  1.4743125346680013e-03  1.4768518237569816e-03  1.4795677415308671e-03  1.4824411749175938e-03  1.4854521126774990e-03  1.4885798777935894e-03  1.4918032383231020e-03  1.4951000906168058e-03  1.4984468379432416e-03  1.5018169379694508e-03  1.5051801167463514e-03  1.5085025686056538e-03  1.5117577084561276e-03  1.5149368421373166e-03  1.5180578879909370e-03  1.5211448152296721e-03  1.5241999733875617e-03  1.5271872327361359e-03  1.5310551088000485e-03  1.5352404698449973e-03  1.5415790077687639e-03  1.5616146923919431e-03  1.6820129845243313e-03  1.8806613430811608e-03  2.2575140247720633e-03  3.5052902128515037e-03  8.6238227661251544e-03  2.1249507410611934e-02  5.6167998283041479e-03  1.9804954451787499e-03  3.0679631246950264e-03  2.9143741573254473e-03  1.4628346292931776e-03  1.4639797180648383e-03  1.4646334895742966e-03  1.4655251826792741e-03  1.4666847705775002e-03  1.4681061238745272e-03  1.4697795001142135e-03  1.4716932648994364e-03  1.4738340131595050e-03  1.4761867260527695e-03  1.4787349531895900e-03  1.4814610430754326e-03  1.4843464426974480e-03  1.4873721448273758e-03  1.4905192425886653e-03  1.4937695804113256e-03  1.4971054170550700e-03  1.5005087641133202e-03  1.5039555156249060e-03  1.5074205695881323e-03  1.5108668889264943e-03  1.5142904832922499e-03  1.5176287247325318e-03  1.5209724035085874e-03  1.5243357731853150e-03  1.5291284527077548e-03  1.5337219722339796e-03  1.5442810659527016e-03  1.5680342377154294e-03  1.6971278229874691e-03  1.9933807632688066e-03  3.2205122606333791e-03  6.1546630761368869e-02  3.3457663520350484e-01  6.2284219802163698e-01  8.8260218146944169e-01  9.8177387746170819e-01  9.8872304836893665e-01  9.8591433498277137e-01  4.2516951302961886e-01  2.9160518163501036e-03  1.4647082760459384e-03  1.4661349258368480e-03  1.4668058351957509e-03  1.4677022727631927e-03  1.4688671729427615e-03  1.4702948724446452e-03  1.4719754944090323e-03  1.4738972570502093e-03  1.4760466578716961e-03  1.4784086717185578e-03  1.4809669513419848e-03  1.4837040739294693e-03  1.4866018808911406e-03  1.4896422304255838e-03  1.4928079399644922e-03  1.4960843522161267e-03  1.4994591486468848e-03  1.5029238512971217e-03  1.5064612711667544e-03  1.5100663479371602e-03  1.5136502743564352e-03  1.5172263770445134e-03  1.5206054692282179e-03  1.5245957783621134e-03  1.5284366035941029e-03  1.5384141290291711e-03  1.5519463192340979e-03  1.6752141751954720e-03  1.9822265898646364e-03  3.2305302757386998e-03  1.2777485549615400e-01  4.9740826802443466e-01  9.3860253406737948e-01  9.9600183604915360e-01  9.9810220392223348e-01  9.9876483790560389e-01  9.9910983880976034e-01  9.9934077101907237e-01  9.9949528914810504e-01  9.9889416072373227e-01  2.9179935316127133e-03  1.4668873812463837e-03  1.4686439877459954e-03  1.4693356550043604e-03  1.4702384893714880e-03  1.4714105329404759e-03  1.4728465370040474e-03  1.4745363323818096e-03  1.4764678504282133e-03  1.4786273970344356e-03  1.4809999021287478e-03  1.4835691255079572e-03  1.4863178323122680e-03  1.4892279877860657e-03  1.4922814828194557e-03  1.4954615162260018e-03  1.4987567886748142e-03  1.5021662058352105e-03  1.5057000791590929e-03  1.5093540611184363e-03  1.5131144865477119e-03  1.5168537985584701e-03  1.5207758144815452e-03  1.5249824138946397e-03  1.5309440235185450e-03  1.5378297938029349e-03  1.6243802025069760e-03  1.8493191641144237e-03  2.7095838464741792e-03  7.9197399690000087e-02  4.6343048969178285e-01  9.6115275119256371e-01  9.9664854755758214e-01  9.9834288861850373e-01  9.9894447188712432e-01  9.9927218319384370e-01  9.9946791609829777e-01  9.9960249877290086e-01  9.9970259722184895e-01  9.9977052218124429e-01  9.9955847418553567e-01  2.9202135385266305e-03  1.4693898437099845e-03  1.4715284214142652e-03  1.4722452968875816e-03  1.4731570361244855e-03  1.4743389684114081e-03  1.4757860774956652e-03  1.4774876096740408e-03  1.4794309668357509e-03  1.4816021616202003e-03  1.4839861636255626e-03  1.4865670669663605e-03  1.4893276917812091e-03  1.4922495455367323e-03  1.4953126004138304e-03  1.4985010724933683e-03  1.5018036802745775e-03  1.5052340590927065e-03  1.5088007237662184e-03  1.5126000027361414e-03  1.5165993743231690e-03  1.5214867462950174e-03  1.5260669610394947e-03  1.5349768542202125e-03  1.5768804473012318e-03  1.7295095988387422e-03  2.2967945137419123e-03  1.0101340254705953e-02  3.4346512980601301e-01  8.8549054805788763e-01  9.9610858944565017e-01  9.9819462114492918e-01  9.9888087958520044e-01  9.9923117846076626e-01  9.9942112882293943e-01  9.9954217743935314e-01  9.9963277862322308e-01  9.9970813592093388e-01  9.9977109860402702e-01  9.9981660280351781e-01  9.9966818801127832e-01  2.9227271002306358e-03  1.4722353623963450e-03  1.4748122708128325e-03  1.4755601715471869e-03  1.4764848162678109e-03  1.4776809468271446e-03  1.4791433456198214e-03  1.4808601561152439e-03  1.4828178835724405e-03  1.4850021575112617e-03  1.4873980374939062e-03  1.4899903563439267e-03  1.4927624670561599e-03  1.4956980621227036e-03  1.4987716992466977e-03  1.5019675834232822e-03  1.5052308688642596e-03  1.5086307021793034e-03  1.5122105663471972e-03  1.5166919065353094e-03  1.5211842143233519e-03  1.5306790841839578e-03  1.5479412006532257e-03  1.6812962153909430e-03  2.0644069053936363e-03  4.1530992786190917e-03  2.3352688624064238e-01  7.2677242024594846e-01  9.9519073119099299e-01  9.9782797377854626e-01  9.9872952220901012e-01  9.9914094246539020e-01  9.9935146414875065e-01  9.9947137423358812e-01  9.9954937627769491e-01  9.9960723851288358e-01  9.9965648795276785e-01  9.9970279628689618e-01  9.9974664677532010e-01  9.9978193350636446e-01  9.9962221788070860e-01  2.9255496993522796e-03  1.4754447650809953e-03  1.4785216198863948e-03  1.4793086646332503e-03  1.4802528133289229e-03  1.4814701339738005e-03  1.4829543918744752e-03  1.4846917349701329e-03  1.4866668784437550e-03  1.4888645090673823e-03  1.4912703499145102e-03  1.4938733785826361e-03  1.4966606861557517e-03  1.4996186456462605e-03  1.5026945190385595e-03  1.5058905255538474e-03  1.5091136476019242e-03  1.5126690928604308e-03  1.5164514877715190e-03  1.5229682199114131e-03  1.5335253697311975e-03  1.6338366149043885e-03  1.8773363306465022e-03  2.8896120409629086e-03  6.5239917444243678e-02  5.4462405233788347e-01  9.8490303606235052e-01  9.9713376341094717e-01  9.9850895713991428e-01  9.9902338510753785e-01  9.9927974950641940e-01  9.9941377855526303e-01  9.9949062296258007e-01  9.9953649153187096e-01  9.9956375952508736e-01  9.9957922827136858e-01  9.9958696186970453e-01  9.9958878732670897e-01  9.9958437983769266e-01  9.9956698069675298e-01  9.9927253030863916e-01  2.9286955314530268e-03  1.4790386816576409e-03  1.4826835520544495e-03  1.4835217844168694e-03  1.4844966142638558e-03  1.4857469041122506e-03  1.4872637482384850e-03  1.4890292363931102e-03  1.4910247624103036e-03  1.4932347791952931e-03  1.4956488143710062e-03  1.4982581958183140e-03  1.5010498248621532e-03  1.5040223887015523e-03  1.5071684495882912e-03  1.5105659887457762e-03  1.5142899740450163e-03  1.5181872832877614e-03  1.5256133131833736e-03  1.5801252772091210e-03  1.7597468237171676e-03  2.4037149478670422e-03  1.6698668409269490e-02  3.8586699341707370e-01  9.0859415598104432e-01  9.9635443854404027e-01  9.9821724114978672e-01  9.9886943826893393e-01  9.9920012869954311e-01  9.9936264218197590e-01  9.9945021455032612e-01  9.9949701393893053e-01  9.9951709019350499e-01  9.9951585689772904e-01  9.9949331083704862e-01  9.9944351883970173e-01  9.9934855076875906e-01  9.9917724206296121e-01  9.9889318348339851e-01  9.9716212466017484e-01  9.8877646172611011e-01  2.9321747100372877e-03  1.4830349916936329e-03  1.4873241386851974e-03  1.4882325473468581e-03  1.4892573270421780e-03  1.4905601859344384e-03  1.4921266789473138e-03  1.4939329854744806e-03  1.4959568954384648e-03  1.4981760910026684e-03  1.5005783458064720e-03  1.5031525184087333e-03  1.5059786200770468e-03  1.5091230948382594e-03  1.5128400507175058e-03  1.5164072803929107e-03  1.5239844664882050e-03  1.5498296254899677e-03  1.6863957822385184e-03  2.1075839329891422e-03  5.1866833854374659e-03  2.0740546291131223e-01  7.4096650175419987e-01  9.9455822347950973e-01  9.9782211174488711e-01  9.9870954411137380e-01  9.9911317829164892e-01  9.9931124355777556e-01  9.9941608871279686e-01  9.9947150891281500e-01  9.9949494609385126e-01  9.9949268346356601e-01  9.9946402625485542e-01  9.9940044933002692e-01  9.9927750409633742e-01  9.9902616357894392e-01  9.9853630368684032e-01  9.9695329405550515e-01  7.9718211476878720e-01  2.3288843408550898e-02  3.6624702174229288e-03  2.9359881122128094e-03  1.4874441871559952e-03  1.4924649411634165e-03  1.4934745309437376e-03  1.4945817607271211e-03  1.4959704349346262e-03  1.4976191178415713e-03  1.4994918234400698e-03  1.5015485332872469e-03  1.5037387048575780e-03  1.5061215961219756e-03  1.5087345998840106e-03  1.5118336129391194e-03  1.5151265606886048e-03  1.5212497816682984e-03  1.5347978964815733e-03  1.6497012984260297e-03  1.9448242810181291e-03  3.2673534279100140e-03  1.2763854351706355e-01  5.5713460521887226e-01  9.8780698135889000e-01  9.9727590125187526e-01  9.9851488725365622e-01  9.9901130385706050e-01  9.9925720210435121e-01  9.9938359909086394e-01  9.9945061327969165e-01  9.9948139983764039e-01  9.9948446773572974e-01  9.9946027962016426e-01  9.9940160881303286e-01  9.9928759224444108e-01  9.9906071519851958e-01  9.9860868070040731e-01  9.9742401361614441e-01  9.7898075200908530e-01  3.5463521341171328e-01  6.5759115478856295e-03  1.7701335802304161e-03  3.0899224029790006e-03  2.9401182656722288e-03  1.4922606942470715e-03  1.4981158692826575e-03  1.4992793401379179e-03  1.5005276919521867e-03  1.5020618770800881e-03  1.5038392274729848e-03  1.5057956982897395e-03  1.5079084526449195e-03  1.5101418504181352e-03  1.5126660023569657e-03  1.5153710621421865e-03  1.5190818999144141e-03  1.5281518314341326e-03  1.6036523532115168e-03  1.8121345947710015e-03  2.6054375343162487e-03  3.2551796034173575e-02  3.8770368621130635e-01  9.2849077161326921e-01  9.9641453995302309e-01  9.9825659412656520e-01  9.9888501397824259e-01  9.9919553670742511e-01  9.9934915356616338e-01  9.9943041979216218e-01  9.9947025976536730e-01  9.9948048647199372e-01  9.9946365933020986e-01  9.9941479215442908e-01  9.9931766775030395e-01  9.9912917744253937e-01  9.9873847262119941e-01  9.9787310448770128e-01  9.9405305495680696e-01  6.3622629482282589e-01  9.2433827636208749e-02  3.1057993998366189e-03  1.8076939751714705e-03  1.5405732894193263e-03  2.9293380447896903e-03  2.9445097493915528e-03  1.4974455071464418e-03  1.5042658367955181e-03  1.5056813978608688e-03  1.5071676068304811e-03  1.5089217257208338e-03  1.5108962760483180e-03  1.5130913499573127e-03  1.5155363355405249e-03  1.5179498325019836e-03  1.5202978431952639e-03  1.5267668349856947e-03  1.5653081116347339e-03  1.7254345563581118e-03  2.2421820086738990e-03  8.6624806598827927e-03  2.5183261232146359e-01  7.5782356680868646e-01  9.9506907737515082e-01  9.9793588761093499e-01  9.9873996012950694e-01  9.9912321398724235e-01  9.9931021516810237e-01  9.9940839864313202e-01  9.9945867544764766e-01  9.9947682041919172e-01  9.9946775086135919e-01  9.9942890460336975e-01  9.9934835359491592e-01  9.9919420225901523e-01  9.9887558931491960e-01  9.9822772614956756e-01  9.9622373652563534e-01  8.2212778633898764e-01  2.7184996330820149e-01  1.0596880235886185e-02  2.2875527860820445e-03  1.7253953208124558e-03  1.5651759581106618e-03  1.5139187839508842e-03  2.9466269480561478e-03  2.9490359483819255e-03  1.5029009559487251e-03  1.5108696661422334e-03  1.5127039396575985e-03  1.5145741257625322e-03  1.5167427089989316e-03  1.5191858995466658e-03  1.5218114481004648e-03  1.5245677737970541e-03  1.5292283268465833e-03  1.5469121828046752e-03  1.6735344583856449e-03  2.0168989848176806e-03  4.0246480697605632e-03  1.2902519620540609e-01  5.7804539957964152e-01  9.9142061290384609e-01  9.9751567966254318e-01  9.9858286654216810e-01  9.9904083492299089e-01  9.9926697031810219e-01  9.9938400813512995e-01  9.9944561785956898e-01  9.9947212335079694e-01  9.9947076339061192e-01  9.9944108016997246e-01  9.9937451037678149e-01  9.9924744443515756e-01  9.9899548294066220e-01  9.9849061335216971e-01  9.9718687215814361e-01  9.8247854764608089e-01  4.4555000382905535e-01  6.3088480060489241e-02  2.8404167806824004e-03  1.8792643885069832e-03  1.6494484345864488e-03  1.5627782023112861e-03  1.5386220977816527e-03  1.5174959479609441e-03  2.9565721332284883e-03  2.9534264797991465e-03  1.5083915496867800e-03  1.5177817567870152e-03  1.5204178276647868e-03  1.5230638672933711e-03  1.5259687418903896e-03  1.5288889534478313e-03  1.5326224128391107e-03  1.5447388612984162e-03  1.6327696539800629e-03  1.8629502621885382e-03  2.8548446871641117e-03  5.0976961842434498e-02  4.0329436798990270e-01  9.7163161661438946e-01  9.9687552870422247e-01  9.9838000240691593e-01  9.9894110781501078e-01  9.9921827829790399e-01  9.9935763002399403e-01  9.9943140214933346e-01  9.9946634951518332e-01  9.9947247580998888e-01  9.9945123119792056e-01  9.9939661428162851e-01  9.9929077825417922e-01  9.9908681928368204e-01  9.9866915094241360e-01  9.9773194171040569e-01  9.9353781017506149e-01  6.3131592293343597e-01  1.5230955442939462e-01  4.3577268442213137e-03  2.0724353568536301e-03  1.6957495875982291e-03  1.5684296061983813e-03  1.5472370330064300e-03  1.5396837121212995e-03  1.5317986365340904e-03  1.5171578362940532e-03  2.9589128973741660e-03  2.9570713300639448e-03  1.5134390314736471e-03  1.5249218610124805e-03  1.5293329964215239e-03  1.5330478603033419e-03  1.5367865428151661e-03  1.5453609897575710e-03  1.5894691038877155e-03  1.761164172