<?xml version="1.0"?>
<VTKFile type="UnstructuredGrid"  version="0.1"  >
<UnstructuredGrid>
<Piece  NumberOfPoints="1681" NumberOfCells="3200">
<Points>
<DataArray  type="Float64"  NumberOfComponents="3"  format="ascii">0 0 0  0.025 0 0  0.05 0 0  0.075 0 0  0.1 0 0  0.125 0 0  0.15 0 0  0.175 0 0  0.2 0 0  0.225 0 0  0.25 0 0  0.275 0 0  0.3 0 0  0.325 0 0  0.35 0 0  0.375 0 0  0.4 0 0  0.425 0 0  0.45 0 0  0.475 0 0  0.5 0 0  0.525 0 0  0.55 0 0  0.575 0 0  0.6 0 0  0.625 0 0  0.65 0 0  0.675 0 0  0.7 0 0  0.725 0 0  0.75 0 0  0.775 0 0  0.8 0 0  0.825 0 0  0.85 0 0  0.875 0 0  0.9 0 0  0.925 0 0  0.95 0 0  0.975 0 0  1 0 0  0 0.025 0  0.025 0.025 0  0.05 0.025 0  0.075 0.025 0  0.1 0.025 0  0.125 0.025 0  0.15 0.025 0  0.175 0.025 0  0.2 0.025 0  0.225 0.025 0  0.25 0.025 0  0.275 0.025 0  0.3 0.025 0  0.325 0.025 0  0.35 0.025 0  0.375 0.025 0  0.4 0.025 0  0.425 0.025 0  0.45 0.025 0  0.475 0.025 0  0.5 0.025 0  0.525 0.025 0  0.55 0.025 0  0.575 0.025 0  0.6 0.025 0  0.625 0.025 0  0.65 0.025 0  0.675 0.025 0  0.7 0.025 0  0.725 0.025 0  0.75 0.025 0  0.775 0.025 0  0.8 0.025 0  0.825 0.025 0  0.85 0.025 0  0.875 0.025 0  0.9 0.025 0  0.925 0.025 0  0.95 0.025 0  0.975 0.025 0  1 0.025 0  0 0.05 0  0.025 0.05 0  0.05 0.05 0  0.075 0.05 0  0.1 0.05 0  0.125 0.05 0  0.15 0.05 0  0.175 0.05 0  0.2 0.05 0  0.225 0.05 0  0.25 0.05 0  0.275 0.05 0  0.3 0.05 0  0.325 0.05 0  0.35 0.05 0  0.375 0.05 0  0.4 0.05 0  0.425 0.05 0  0.45 0.05 0  0.475 0.05 0  0.5 0.05 0  0.525 0.05 0  0.55 0.05 0  0.575 0.05 0  0.6 0.05 0  0.625 0.05 0  0.65 0.05 0  0.675 0.05 0  0.7 0.05 0  0.725 0.05 0  0.75 0.05 0  0.775 0.05 0  0.8 0.05 0  0.825 0.05 0  0.85 0.05 0  0.875 0.05 0  0.9 0.05 0  0.925 0.05 0  0.95 0.05 0  0.975 0.05 0  1 0.05 0  0 0.075 0  0.025 0.075 0  0.05 0.075 0  0.075 0.075 0  0.1 0.075 0  0.125 0.075 0  0.15 0.075 0  0.175 0.075 0  0.2 0.075 0  0.225 0.075 0  0.25 0.075 0  0.275 0.075 0  0.3 0.075 0  0.325 0.075 0  0.35 0.075 0  0.375 0.075 0  0.4 0.075 0  0.425 0.075 0  0.45 0.075 0  0.475 0.075 0  0.5 0.075 0  0.525 0.075 0  0.55 0.075 0  0.575 0.075 0  0.6 0.075 0  0.625 0.075 0  0.65 0.075 0  0.675 0.075 0  0.7 0.075 0  0.725 0.075 0  0.75 0.075 0  0.775 0.075 0  0.8 0.075 0  0.825 0.075 0  0.85 0.075 0  0.875 0.075 0  0.9 0.075 0  0.925 0.075 0  0.95 0.075 0  0.975 0.075 0  1 0.075 0  0 0.1 0  0.025 0.1 0  0.05 0.1 0  0.075 0.1 0  0.1 0.1 0  0.125 0.1 0  0.15 0.1 0  0.175 0.1 0  0.2 0.1 0  0.225 0.1 0  0.25 0.1 0  0.275 0.1 0  0.3 0.1 0  0.325 0.1 0  0.35 0.1 0  0.375 0.1 0  0.4 0.1 0  0.425 0.1 0  0.45 0.1 0  0.475 0.1 0  0.5 0.1 0  0.525 0.1 0  0.55 0.1 0  0.575 0.1 0  0.6 0.1 0  0.625 0.1 0  0.65 0.1 0  0.675 0.1 0  0.7 0.1 0  0.725 0.1 0  0.75 0.1 0  0.775 0.1 0  0.8 0.1 0  0.825 0.1 0  0.85 0.1 0  0.875 0.1 0  0.9 0.1 0  0.925 0.1 0  0.95 0.1 0  0.975 0.1 0  1 0.1 0  0 0.125 0  0.025 0.125 0  0.05 0.125 0  0.075 0.125 0  0.1 0.125 0  0.125 0.125 0  0.15 0.125 0  0.175 0.125 0  0.2 0.125 0  0.225 0.125 0  0.25 0.125 0  0.275 0.125 0  0.3 0.125 0  0.325 0.125 0  0.35 0.125 0  0.375 0.125 0  0.4 0.125 0  0.425 0.125 0  0.45 0.125 0  0.475 0.125 0  0.5 0.125 0  0.525 0.125 0  0.55 0.125 0  0.575 0.125 0  0.6 0.125 0  0.625 0.125 0  0.65 0.125 0  0.675 0.125 0  0.7 0.125 0  0.725 0.125 0  0.75 0.125 0  0.775 0.125 0  0.8 0.125 0  0.825 0.125 0  0.85 0.125 0  0.875 0.125 0  0.9 0.125 0  0.925 0.125 0  0.95 0.125 0  0.975 0.125 0  1 0.125 0  0 0.15 0  0.025 0.15 0  0.05 0.15 0  0.075 0.15 0  0.1 0.15 0  0.125 0.15 0  0.15 0.15 0  0.175 0.15 0  0.2 0.15 0  0.225 0.15 0  0.25 0.15 0  0.275 0.15 0  0.3 0.15 0  0.325 0.15 0  0.35 0.15 0  0.375 0.15 0  0.4 0.15 0  0.425 0.15 0  0.45 0.15 0  0.475 0.15 0  0.5 0.15 0  0.525 0.15 0  0.55 0.15 0  0.575 0.15 0  0.6 0.15 0  0.625 0.15 0  0.65 0.15 0  0.675 0.15 0  0.7 0.15 0  0.725 0.15 0  0.75 0.15 0  0.775 0.15 0  0.8 0.15 0  0.825 0.15 0  0.85 0.15 0  0.875 0.15 0  0.9 0.15 0  0.925 0.15 0  0.95 0.15 0  0.975 0.15 0  1 0.15 0  0 0.175 0  0.025 0.175 0  0.05 0.175 0  0.075 0.175 0  0.1 0.175 0  0.125 0.175 0  0.15 0.175 0  0.175 0.175 0  0.2 0.175 0  0.225 0.175 0  0.25 0.175 0  0.275 0.175 0  0.3 0.175 0  0.325 0.175 0  0.35 0.175 0  0.375 0.175 0  0.4 0.175 0  0.425 0.175 0  0.45 0.175 0  0.475 0.175 0  0.5 0.175 0  0.525 0.175 0  0.55 0.175 0  0.575 0.175 0  0.6 0.175 0  0.625 0.175 0  0.65 0.175 0  0.675 0.175 0  0.7 0.175 0  0.725 0.175 0  0.75 0.175 0  0.775 0.175 0  0.8 0.175 0  0.825 0.175 0  0.85 0.175 0  0.875 0.175 0  0.9 0.175 0  0.925 0.175 0  0.95 0.175 0  0.975 0.175 0  1 0.175 0  0 0.2 0  0.025 0.2 0  0.05 0.2 0  0.075 0.2 0  0.1 0.2 0  0.125 0.2 0  0.15 0.2 0  0.175 0.2 0  0.2 0.2 0  0.225 0.2 0  0.25 0.2 0  0.275 0.2 0  0.3 0.2 0  0.325 0.2 0  0.35 0.2 0  0.375 0.2 0  0.4 0.2 0  0.425 0.2 0  0.45 0.2 0  0.475 0.2 0  0.5 0.2 0  0.525 0.2 0  0.55 0.2 0  0.575 0.2 0  0.6 0.2 0  0.625 0.2 0  0.65 0.2 0  0.675 0.2 0  0.7 0.2 0  0.725 0.2 0  0.75 0.2 0  0.775 0.2 0  0.8 0.2 0  0.825 0.2 0  0.85 0.2 0  0.875 0.2 0  0.9 0.2 0  0.925 0.2 0  0.95 0.2 0  0.975 0.2 0  1 0.2 0  0 0.225 0  0.025 0.225 0  0.05 0.225 0  0.075 0.225 0  0.1 0.225 0  0.125 0.225 0  0.15 0.225 0  0.175 0.225 0  0.2 0.225 0  0.225 0.225 0  0.25 0.225 0  0.275 0.225 0  0.3 0.225 0  0.325 0.225 0  0.35 0.225 0  0.375 0.225 0  0.4 0.225 0  0.425 0.225 0  0.45 0.225 0  0.475 0.225 0  0.5 0.225 0  0.525 0.225 0  0.55 0.225 0  0.575 0.225 0  0.6 0.225 0  0.625 0.225 0  0.65 0.225 0  0.675 0.225 0  0.7 0.225 0  0.725 0.225 0  0.75 0.225 0  0.775 0.225 0  0.8 0.225 0  0.825 0.225 0  0.85 0.225 0  0.875 0.225 0  0.9 0.225 0  0.925 0.225 0  0.95 0.225 0  0.975 0.225 0  1 0.225 0  0 0.25 0  0.025 0.25 0  0.05 0.25 0  0.075 0.25 0  0.1 0.25 0  0.125 0.25 0  0.15 0.25 0  0.175 0.25 0  0.2 0.25 0  0.225 0.25 0  0.25 0.25 0  0.275 0.25 0  0.3 0.25 0  0.325 0.25 0  0.35 0.25 0  0.375 0.25 0  0.4 0.25 0  0.425 0.25 0  0.45 0.25 0  0.475 0.25 0  0.5 0.25 0  0.525 0.25 0  0.55 0.25 0  0.575 0.25 0  0.6 0.25 0  0.625 0.25 0  0.65 0.25 0  0.675 0.25 0  0.7 0.25 0  0.725 0.25 0  0.75 0.25 0  0.775 0.25 0  0.8 0.25 0  0.825 0.25 0  0.85 0.25 0  0.875 0.25 0  0.9 0.25 0  0.925 0.25 0  0.95 0.25 0  0.975 0.25 0  1 0.25 0  0 0.275 0  0.025 0.275 0  0.05 0.275 0  0.075 0.275 0  0.1 0.275 0  0.125 0.275 0  0.15 0.275 0  0.175 0.275 0  0.2 0.275 0  0.225 0.275 0  0.25 0.275 0  0.275 0.275 0  0.3 0.275 0  0.325 0.275 0  0.35 0.275 0  0.375 0.275 0  0.4 0.275 0  0.425 0.275 0  0.45 0.275 0  0.475 0.275 0  0.5 0.275 0  0.525 0.275 0  0.55 0.275 0  0.575 0.275 0  0.6 0.275 0  0.625 0.275 0  0.65 0.275 0  0.675 0.275 0  0.7 0.275 0  0.725 0.275 0  0.75 0.275 0  0.775 0.275 0  0.8 0.275 0  0.825 0.275 0  0.85 0.275 0  0.875 0.275 0  0.9 0.275 0  0.925 0.275 0  0.95 0.275 0  0.975 0.275 0  1 0.275 0  0 0.3 0  0.025 0.3 0  0.05 0.3 0  0.075 0.3 0  0.1 0.3 0  0.125 0.3 0  0.15 0.3 0  0.175 0.3 0  0.2 0.3 0  0.225 0.3 0  0.25 0.3 0  0.275 0.3 0  0.3 0.3 0  0.325 0.3 0  0.35 0.3 0  0.375 0.3 0  0.4 0.3 0  0.425 0.3 0  0.45 0.3 0  0.475 0.3 0  0.5 0.3 0  0.525 0.3 0  0.55 0.3 0  0.575 0.3 0  0.6 0.3 0  0.625 0.3 0  0.65 0.3 0  0.675 0.3 0  0.7 0.3 0  0.725 0.3 0  0.75 0.3 0  0.775 0.3 0  0.8 0.3 0  0.825 0.3 0  0.85 0.3 0  0.875 0.3 0  0.9 0.3 0  0.925 0.3 0  0.95 0.3 0  0.975 0.3 0  1 0.3 0  0 0.325 0  0.025 0.325 0  0.05 0.325 0  0.075 0.325 0  0.1 0.325 0  0.125 0.325 0  0.15 0.325 0  0.175 0.325 0  0.2 0.325 0  0.225 0.325 0  0.25 0.325 0  0.275 0.325 0  0.3 0.325 0  0.325 0.325 0  0.35 0.325 0  0.375 0.325 0  0.4 0.325 0  0.425 0.325 0  0.45 0.325 0  0.475 0.325 0  0.5 0.325 0  0.525 0.325 0  0.55 0.325 0  0.575 0.325 0  0.6 0.325 0  0.625 0.325 0  0.65 0.325 0  0.675 0.325 0  0.7 0.325 0  0.725 0.325 0  0.75 0.325 0  0.775 0.325 0  0.8 0.325 0  0.825 0.325 0  0.85 0.325 0  0.875 0.325 0  0.9 0.325 0  0.925 0.325 0  0.95 0.325 0  0.975 0.325 0  1 0.325 0  0 0.35 0  0.025 0.35 0  0.05 0.35 0  0.075 0.35 0  0.1 0.35 0  0.125 0.35 0  0.15 0.35 0  0.175 0.35 0  0.2 0.35 0  0.225 0.35 0  0.25 0.35 0  0.275 0.35 0  0.3 0.35 0  0.325 0.35 0  0.35 0.35 0  0.375 0.35 0  0.4 0.35 0  0.425 0.35 0  0.45 0.35 0  0.475 0.35 0  0.5 0.35 0  0.525 0.35 0  0.55 0.35 0  0.575 0.35 0  0.6 0.35 0  0.625 0.35 0  0.65 0.35 0  0.675 0.35 0  0.7 0.35 0  0.725 0.35 0  0.75 0.35 0  0.775 0.35 0  0.8 0.35 0  0.825 0.35 0  0.85 0.35 0  0.875 0.35 0  0.9 0.35 0  0.925 0.35 0  0.95 0.35 0  0.975 0.35 0  1 0.35 0  0 0.375 0  0.025 0.375 0  0.05 0.375 0  0.075 0.375 0  0.1 0.375 0  0.125 0.375 0  0.15 0.375 0  0.175 0.375 0  0.2 0.375 0  0.225 0.375 0  0.25 0.375 0  0.275 0.375 0  0.3 0.375 0  0.325 0.375 0  0.35 0.375 0  0.375 0.375 0  0.4 0.375 0  0.425 0.375 0  0.45 0.375 0  0.475 0.375 0  0.5 0.375 0  0.525 0.375 0  0.55 0.375 0  0.575 0.375 0  0.6 0.375 0  0.625 0.375 0  0.65 0.375 0  0.675 0.375 0  0.7 0.375 0  0.725 0.375 0  0.75 0.375 0  0.775 0.375 0  0.8 0.375 0  0.825 0.375 0  0.85 0.375 0  0.875 0.375 0  0.9 0.375 0  0.925 0.375 0  0.95 0.375 0  0.975 0.375 0  1 0.375 0  0 0.4 0  0.025 0.4 0  0.05 0.4 0  0.075 0.4 0  0.1 0.4 0  0.125 0.4 0  0.15 0.4 0  0.175 0.4 0  0.2 0.4 0  0.225 0.4 0  0.25 0.4 0  0.275 0.4 0  0.3 0.4 0  0.325 0.4 0  0.35 0.4 0  0.375 0.4 0  0.4 0.4 0  0.425 0.4 0  0.45 0.4 0  0.475 0.4 0  0.5 0.4 0  0.525 0.4 0  0.55 0.4 0  0.575 0.4 0  0.6 0.4 0  0.625 0.4 0  0.65 0.4 0  0.675 0.4 0  0.7 0.4 0  0.725 0.4 0  0.75 0.4 0  0.775 0.4 0  0.8 0.4 0  0.825 0.4 0  0.85 0.4 0  0.875 0.4 0  0.9 0.4 0  0.925 0.4 0  0.95 0.4 0  0.975 0.4 0  1 0.4 0  0 0.425 0  0.025 0.425 0  0.05 0.425 0  0.075 0.425 0  0.1 0.425 0  0.125 0.425 0  0.15 0.425 0  0.175 0.425 0  0.2 0.425 0  0.225 0.425 0  0.25 0.425 0  0.275 0.425 0  0.3 0.425 0  0.325 0.425 0  0.35 0.425 0  0.375 0.425 0  0.4 0.425 0  0.425 0.425 0  0.45 0.425 0  0.475 0.425 0  0.5 0.425 0  0.525 0.425 0  0.55 0.425 0  0.575 0.425 0  0.6 0.425 0  0.625 0.425 0  0.65 0.425 0  0.675 0.425 0  0.7 0.425 0  0.725 0.425 0  0.75 0.425 0  0.775 0.425 0  0.8 0.425 0  0.825 0.425 0  0.85 0.425 0  0.875 0.425 0  0.9 0.425 0  0.925 0.425 0  0.95 0.425 0  0.975 0.425 0  1 0.425 0  0 0.45 0  0.02
[...]
<PointData  Scalars="ControlVisualisation"> 
<DataArray  type="Float64"  Name="ControlVisualisation"  format="ascii">3.2722151979395520e-01  2.6363227391905147e-01  2.6365357885639223e-01  2.6369513287355273e-01  2.6375688817534326e-01  2.6383801190244388e-01  2.6393723904012711e-01  2.6405294887559366e-01  2.6418315279472127e-01  2.6432551242334523e-01  2.6447739895594308e-01  2.6463597833902058e-01  2.6479831833260298e-01  2.6496151206092344e-01  2.6512281181163178e-01  2.6527976287185451e-01  2.6543031973311698e-01  2.6557291727307808e-01  2.6570646094081191e-01  2.6583019922481799e-01  2.6594345652719142e-01  2.6604523247208545e-01  2.6613370434237132e-01  2.6620571385491609e-01  2.6625638295514303e-01  2.6627900580536162e-01  2.6626534098392390e-01  2.6620641844247139e-01  2.6609406710790134e-01  2.6592282164385239e-01  2.6569168418655642e-01  2.6540516381738838e-01  2.6507307748704645e-01  2.6471115491771779e-01  2.6434586101621860e-01  2.6401885144454573e-01  2.6377611912586135e-01  2.6364514954570206e-01  2.6361115633567050e-01  2.6362140894206604e-01  4.0651693830209562e-01  2.6363227287030050e-01  1.5644237675571646e-01  1.5651651791232704e-01  1.5664984665782000e-01  1.5684567158163737e-01  1.5710137908827376e-01  1.5741248759092369e-01  1.5777315142903761e-01  1.5817616111190980e-01  1.5861315878460608e-01  1.5907494565876790e-01  1.5955188226640352e-01  1.6003435868712748e-01  1.6051330172011655e-01  1.6098068196675627e-01  1.6142997231854186e-01  1.6185649021604062e-01  1.6225753029232218e-01  1.6263217329139856e-01  1.6298066470961334e-01  1.6330330845136909e-01  1.6359891479069499e-01  1.6386298092617185e-01  1.6408594774130505e-01  1.6425193180860556e-01  1.6433833530543940e-01  1.6431696105661783e-01  1.6415722351693005e-01  1.6383148960767988e-01  1.6332121486829632e-01  1.6262411541737951e-01  1.6175964888689737e-01  1.6076803104258772e-01  1.5970720718257780e-01  1.5865718784501198e-01  1.5772203717391542e-01  1.5701186484728483e-01  1.5659516352714278e-01  1.5642853584532687e-01  1.5639766682207393e-01  2.6362124146175919e-01  2.6365358411044121e-01  1.5651658736389398e-01  1.5664554038872278e-01  1.5683921447725979e-01  1.5712236424231982e-01  1.5749309749733023e-01  1.5794514338711807e-01  1.5846992072106875e-01  1.5905718860513379e-01  1.5969580378962481e-01  1.6037468337056116e-01  1.6108402748712181e-01  1.6181666284996604e-01  1.6256927413910946e-01  1.6334318942443674e-01  1.6414433259551167e-01  1.6498200422539180e-01  1.6586633926107217e-01  1.6680460592318852e-01  1.6779687896939524e-01  1.6883191193464944e-01  1.6988416418126603e-01  1.7091283680737029e-01  1.7186336730839047e-01  1.7267125264847955e-01  1.7326806074879070e-01  1.7358882790373989e-01  1.7357851192798116e-01  1.7319393057096194e-01  1.7240024733060122e-01  1.7116495182166416e-01  1.6945959630615637e-01  1.6729053712550687e-01  1.6477574013391635e-01  1.6221393098085565e-01  1.5997690162678149e-01  1.5829837952829023e-01  1.5722298779518826e-01  1.5666020309289821e-01  1.5642674975775323e-01  2.6360583887586131e-01  2.6369522996150063e-01  1.5665030726204437e-01  1.5683986377229708e-01  1.5705178810491741e-01  1.5735283117341570e-01  1.5774572093911246e-01  1.5822549512397530e-01  1.5878412645752221e-01  1.5941224345956084e-01  1.6010055967390144e-01  1.6084175781348550e-01  1.6163288000343237e-01  1.6247786403057782e-01  1.6338938932093311e-01  1.6438867656561515e-01  1.6550170035191908e-01  1.6675094175927463e-01  1.6814361717429407e-01  1.6965972486712733e-01  1.7124476561672439e-01  1.7281116100249908e-01  1.7424929683402710e-01  1.7544543418917610e-01  1.7630187957091673e-01  1.7675530058329422e-01  1.7679058830212219e-01  1.7644572285443239e-01  1.7580891951774077e-01  1.7500739600624082e-01  1.7419083811359071e-01  1.7346620813653679e-01  1.7283502848617072e-01  1.7211332591557993e-01  1.7081375451616548e-01  1.6835747656128858e-01  1.6487410494531332e-01  1.6142732965733522e-01  1.5882848955963186e-01  1.5740084744221286e-01  1.5668364615206734e-01  2.6362376060535936e-01  2.6375735979281040e-01  1.5684735950267231e-01  1.5712514249784107e-01  1.5735529184220309e-01  1.5766755067905441e-01  1.5807207594295911e-01  1.5856600105938598e-01  1.5914236847013158e-01  1.5979311571792484e-01  1.6051122114948810e-01  1.6129345274807991e-01  1.6214372583685435e-01  1.6307639039233685e-01  1.6411779085119726e-01  1.6530350672776473e-01  1.6666868510513480e-01  1.6823100036826460e-01  1.6997021913936727e-01  1.7181285651734882e-01  1.7363098009152747e-01  1.7525888178053636e-01  1.7652335698863703e-01  1.7727829591055494e-01  1.7743503453145809e-01  1.7698110064294448e-01  1.7598332970936617e-01  1.7457506336790643e-01  1.7294925216684001e-01  1.7133507473109835e-01  1.7001483222742789e-01  1.6924000585688226e-01  1.6932052870336137e-01  1.7075404287829862e-01  1.7386376094994846e-01  1.7833661130878481e-01  1.8258996345259684e-01  1.7981377799835102e-01  1.6813182424717835e-01  1.5958772190165574e-01  1.5771391745724644e-01  2.6383280660511288e-01  2.6383944775080165e-01  1.5710586505971530e-01  1.5750087110931513e-01  1.5775419436210381e-01  1.5807864369807043e-01  1.5849449478431984e-01  1.5900167626252909e-01  1.5959465880968071e-01  1.6026700822468923e-01  1.6101437269476024e-01  1.6183803699358376e-01  1.6274897531239865e-01  1.6377124455411232e-01  1.6494213280149833e-01  1.6630544026374242e-01  1.6789510224118526e-01  1.6971058104044506e-01  1.7169220240532684e-01  1.7370919745065588e-01  1.7557015717096863e-01  1.7705553434758772e-01  1.7796254896708424e-01  1.7815016770204503e-01  1.7757341751702915e-01  1.7629693966035587e-01  1.7449723095364258e-01  1.7246563727289388e-01  1.7066225037195434e-01  1.6982059848321929e-01  1.7150895055937068e-01  1.7808545558195449e-01  1.9191201263243557e-01  2.1594399889051311e-01  2.5239577159278404e-01  2.9597980542604435e-01  3.2158331318808769e-01  2.8862341647548551e-01  2.2428416785116068e-01  1.9814489472981062e-01  1.6295687250039503e-01  2.6610966251509360e-01  2.6394060298613869e-01  1.5742215533931991e-01  1.5796248221813960e-01  1.5824587578960969e-01  1.5858614605815027e-01  1.5901635810712303e-01  1.5954025079002476e-01  1.6015439024234820e-01  1.6085478384318677e-01  1.6164095768088058e-01  1.6252035287649094e-01  1.6351276742103313e-01  1.6465290330424004e-01  1.6598733403585753e-01  1.6756167800156338e-01  1.6939648336260396e-01  1.7145724024607031e-01  1.7363166893343568e-01  1.7572894539379164e-01  1.7750684586235468e-01  1.7872052022534965e-01  1.7917987174335354e-01  1.7880351425749061e-01  1.7766128852307003e-01  1.7601474653684943e-01  1.7441205729596607e-01  1.7394998235221532e-01  1.7707399253184647e-01  1.8822251614197522e-01  2.1517059282479434e-01  2.7680367161952346e-01  4.0933467825645492e-01  6.1420718639262062e-01  7.3353923267066790e-01  6.9115376515408045e-01  7.6475239737778311e-01  7.8906299794650880e-01  7.4358271442620893e-01  9.3064270759725676e-01  2.1167813976864241e-01  2.7608631171177617e-01  2.6405957729165641e-01  1.5779104361899796e-01  1.5850316142220408e-01  1.5882510547644732e-01  1.5918687911352358e-01  1.5963696436164213e-01  1.6018431044729353e-01  1.6082879540521708e-01  1.6157048166276486e-01  1.6241509289428552e-01  1.6337921839136771e-01  1.6449443288366616e-01  1.6580717436689893e-01  1.6736959905555279e-01  1.6921784353437599e-01  1.7134021327882021e-01  1.7364726836553096e-01  1.7596132894664784e-01  1.7803734518314157e-01  1.7961271956193717e-01  1.8047438162197987e-01  1.8053109799607370e-01  1.7989193746686441e-01  1.7896803674208378e-01  1.7869924498903039e-01  1.8123927133065201e-01  1.9145411500990514e-01  2.1926405211349209e-01  2.8939483681416178e-01  4.5291914480638612e-01  6.7840437186202673e-01  7.3120094158660420e-01  8.5062580348603145e-01  8.9193613157728091e-01  9.1553973299309077e-01  9.3176158288585020e-01  9.4272171805246396e-01  9.4915723250185668e-01  9.5060712208630860e-01  9.4525003988358836e-01  9.2425560614597924e-01  2.6419465624801247e-01  1.5820550311494416e-01  1.5911423462246194e-01  1.5948579515858288e-01  1.5987775912616867e-01  1.6035671039271795e-01  1.6093893337711707e-01  1.6162979277372336e-01  1.6243623059257237e-01  1.6337387309543902e-01  1.6447253381004523e-01  1.6577819238799882e-01  1.6734675571368202e-01  1.6922473777498204e-01  1.7141717110782431e-01  1.7385359033265324e-01  1.7637170802361177e-01  1.7873553995046632e-01  1.8068943149480748e-01  1.8203671159177737e-01  1.8273454631992186e-01  1.8300530445541252e-01  1.8350139386298298e-01  1.8569289777406522e-01  1.9330617338352729e-01  2.1540599949890932e-01  2.7326149564158692e-01  4.2213562283164241e-01  6.9177243022955159e-01  7.7815990803433277e-01  8.6526288089150061e-01  9.0765077646581382e-01  9.3149530201877262e-01  9.4812114711848183e-01  9.5962021949683474e-01  9.6819963856535096e-01  9.7479289127169833e-01  9.8010761998403539e-01  9.8424495193664630e-01  9.8712661621366449e-01  9.7165901003933564e-01  2.6434355617358518e-01  1.5865649501329812e-01  1.5978583232518109e-01  1.6022310433706377e-01  1.6065938289298862e-01  1.6118233825875605e-01  1.6181910655000600e-01  1.6258431967516154e-01  1.6349628835660845e-01  1.6458547595376374e-01  1.6589847274977079e-01  1.6749388098739892e-01  1.6942478715582152e-01  1.7170681892738210e-01  1.7428215300686881e-01  1.7700168058751709e-01  1.7964645357520376e-01  1.8199410617765605e-01  1.8391869070907635e-01  1.8551706999980710e-01  1.8725562026234632e-01  1.9016342094609265e-01  1.9653896436985677e-01  2.1291464815492095e-01  2.5651594120548443e-01  3.6679501832230954e-01  6.1312320300261858e-01  8.5763395057955560e-01  8.4844740360530224e-01  9.0835009851811899e-01  9.3145029545856206e-01  9.4841723252052934e-01  9.5934605058950007e-01  9.6778999917027053e-01  9.7445618774715537e-01  9.7981178625501519e-01  9.8429622220224688e-01  9.8804761874606550e-01  9.9107986108342672e-01  9.9314673164425582e-01  9.8700048996897305e-01  2.6450335144012055e-01  1.5913288695588559e-01  1.6050830475259578e-01  1.6103763146536801e-01  1.6154288712904427e-01  1.6213641782724994e-01  1.6286225438163987e-01  1.6375046272815627e-01  1.6483671078164869e-01  1.6617036712300104e-01  1.6781258371458066e-01  1.6982004205368986e-01  1.7221323382317752e-01  1.7494039965324756e-01  1.7786274634051003e-01  1.8078821117004956e-01  1.8356268145711604e-01  1.8621045054675989e-01  1.8910033269630433e-01  1.9311305800245651e-01  1.9988362765399909e-01  2.1348033542550338e-01  2.4638550317647154e-01  3.2573455607229762e-01  5.0583527619533919e-01  8.2287791473741678e-01  8.8144333119860074e-01  8.9427855008044499e-01  9.2778457891401434e-01  9.4473965364531409e-01  9.5652697439622503e-01  9.6404371733917227e-01  9.7037541181746823e-01  9.7584867554749311e-01  9.8024930962481671e-01  9.8404107647527783e-01  9.8732818472771122e-01  9.9023719131327326e-01  9.9263926171533268e-01  9.9430614312582366e-01  9.8989978173979398e-01  2.6467044864825551e-01  1.5962159111673313e-01  1.6127511339848399e-01  1.6194344520643209e-01  1.6256258846435159e-01  1.6327391858892071e-01  1.6414840130828087e-01  1.6524006906997160e-01  1.6660660061687116e-01  1.6831269520865527e-01  1.7041597388498483e-01  1.7293617826927030e-01  1.7582160772967240e-01  1.7894388054772623e-01  1.8215571643670150e-01  1.8542589295096945e-01  1.8903829624100985e-01  1.9380874923799390e-01  2.0122625188986867e-01  2.1409011058777366e-01  2.4061540599268708e-01  3.0304966602467148e-01  4.3166131779214689e-01  6.8280974337461509e-01  9.6321368599909918e-01  8.8257069939749477e-01  9.1981771885453345e-01  9.3957194356304674e-01  9.5283817015991978e-01  9.6113995307223354e-01  9.6637863345663355e-01  9.7078848338027368e-01  9.7532303060092695e-01  9.7900517311705748e-01  9.8213496346801366e-01  9.8488351346029068e-01  9.8737603263102125e-01  9.8970888843763427e-01  9.9175513422125994e-01  9.9327368237726821e-01  9.8860993876067926e-01  2.6484065649675903e-01  1.6010810787362975e-01  1.6208808796240912e-01  1.6298166887215793e-01  1.6379569133465163e-01  1.6470507973296156e-01  1.6582245064243678e-01  1.6723355383813285e-01  1.6901324827881153e-01  1.7121885965983935e-01  1.7386413815835550e-01  1.7689354860253670e-01  1.8019664488693873e-01  1.8370466747433728e-01  1.8758950588743234e-01  1.9253526429786702e-01  1.9997584254778084e-01  2.1233264342378586e-01  2.3519622784067024e-01  2.8554581446162819e-01  3.8884304332745540e-01  5.7179670459571752e-01  8.7637129151919457e-01  9.5216255986210241e-01  9.0419845392465270e-01  9.3536051522088870e-01  9.4781297433040657e-01  9.5809647790760111e-01  9.6403555503055827e-01  9.6781478444250135e-01  9.7051086744195880e-01  9.7377821896374706e-01  9.7699278110277665e-01  9.7945832625365781e-01  9.8154154048729692e-01  9.8330216321614627e-01  9.8483665084465077e-01  9.8621518218375404e-01  9.8733201123380365e-01  9.8788951587556995e-01  9.7999512339125461e-01  2.6500943797659177e-01  1.6057779186995530e-01  1.6296607702403379e-01  1.6423835467638623e-01  1.6538087225569020e-01  1.6660606786419602e-01  1.6808574530547021e-01  1.6993579879141560e-01  1.7222247768173804e-01  1.7495306393258159e-01  1.7807075389819629e-01  1.8150245168781609e-01  1.8531149953678622e-01  1.8997311309846635e-01  1.9671594958615218e-01  2.0779563468646936e-01  2.2756156435469249e-01  2.6817326443355854e-01  3.5597120557374806e-01  5.0245043574923276e-01  7.4312571594966226e-01  9.9887346930416099e-01  9.0450940043788297e-01  9.2513093416026437e-01  9.4514521147756614e-01  9.5391056736955837e-01  9.6165731968242707e-01  9.6586194211877630e-01  9.6870509567584440e-01  9.7041349562222601e-01  9.7197744821622456e-01  9.7434004827072074e-01  9.7643857732247097e-01  9.7778557818535938e-01  9.7861201352473304e-01  9.7886996399661330e-01  9.7836732714031738e-01  9.7658163952550703e-01  9.7203657832776313e-01  9.5854466211656497e-01  9.1482716183731028e-01  2.6517242439607930e-01  1.6101806252738474e-01  1.6395690745150435e-01  1.6585318640394150e-01  1.6749851079403788e-01  1.6915497259644785e-01  1.7107032012218892e-01  1.7337241405396736e-01  1.7608547854254680e-01  1.7916954201154964e-01  1.8262241686223293e-01  1.8670378791305151e-01  1.9229887369144122e-01  2.0133591393535819e-01  2.1751411278767019e-01  2.4992349297069533e-01  3.2197307302188377e-01  4.5061105254220135e-01  6.4383536310966016e-01  9.2729673045831262e-01  9.5096050187492365e-01  9.1309177487935000e-01  9.4050080712608153e-01  9.5149036232202666e-01  9.5840024114929623e-01  9.6412605411913921e-01  9.6692282908570715e-01  9.6898237333635806e-01  9.7045904844736641e-01  9.7103625660357296e-01  9.7174473487016411e-01  9.7299035679224444e-01  9.7384215106620309e-01  9.7374292422190378e-01  9.7255384019487690e-01  9.6975717357234303e-01  9.6387110638777251e-01  9.5033704899808036e-01  9.1233005767915532e-01  6.1687801564993050e-01  3.3067239813254368e-01  2.6532608981911776e-01  1.6142172706592967e-01  1.6514954937594450e-01  1.6797666323299762e-01  1.7022130775601399e-01  1.7227294565020124e-01  1.7448612039720190e-01  1.7699825923400961e-01  1.7984045494158238e-01  1.8312859417320132e-01  1.8738961563636330e-01  1.9405001052768783e-01  2.0616448064467660e-01  2.3088833552893734e-01  2.8693952414030427e-01  3.9884762512677940e-01  5.7120337107722052e-01  8.2960147188429922e-01  9.9161467033530459e-01  9.0725521051585867e-01  9.3197674269823838e-01  9.4989353309656244e-01  9.5589923863133963e-01  9.6173995154892677e-01  9.6583528654572104e-01  9.6736884908000775e-01  9.6857291646409949e-01  9.6994712637799763e-01  9.7069052945419343e-01  9.7063186603005203e-01  9.7038481322960091e-01  9.7005790597471120e-01  9.6897706344460122e-01  9.6635071404629991e-01  9.6116973014230256e-01  9.5110841178610050e-01  9.2908208494923683e-01  8.6918195844394486e-01  5.0001007810174192e-01  2.1167799761675177e-01  2.7267566236012164e-01  2.6546867905345367e-01  1.6179084864074039e-01  1.6667065097613887e-01  1.7058895460660525e-01  1.7313275585917454e-01  1.7514474729483390e-01  1.7718401919506030e-01  1.7948862031659285e-01  1.8237317903686603e-01  1.8675392759239967e-01  1.9493365928310830e-01  2.1247146369742737e-01  2.5358902478434747e-01  3.4440982006588061e-01  5.0329473208737729e-01  7.4748785385449235e-01  9.8391249100309097e-01  9.1395443279340516e-01  9.2234007064078194e-01  9.4597253321122854e-01  9.5464016492680681e-01  9.5927939308859467e-01  9.6431451995261985e-01  9.6691009129491157e-01  9.6725469108122042e-01  9.6752135831033692e-01  9.6850551754127168e-01  9.6958311237897032e-01  9.6990927836065799e-01  9.6933100493670232e-01  9.6795439977950037e-01  9.6554304737522445e-01  9.6130675598683468e-01  9.5370419387465155e-01  9.3936974375916693e-01  9.0923808945031970e-01  8.3182095942075718e-01  4.6716908077865449e-01  3.7929089746971933e-01  1.8260959103547403e-01  2.6810857486264889e-01  2.6559898134849053e-01  1.6213656954371022e-01  1.6863209387097414e-01  1.7312838025117117e-01  1.7485449216993049e-01  1.7594107867184111e-01  1.7734191010967670e-01  1.7974640223747293e-01  1.8474631854338827e-01  1.9647843782144689e-01  2.2512117648454064e-01  2.9288442477331122e-01  4.3233465283601746e-01  6.7284198784332827e-01  9.4865461235924708e-01  9.2913834868156209e-01  9.1308425617793942e-01  9.3996776058510212e-01  9.5270450760475989e-01  9.5749223970003794e-01  9.6233454282873021e-01  9.6623167705181456e-01  9.6733697755464210e-01  9.6667195097462133e-01  9.6613434658982966e-01  9.6657152622110387e-01  9.6762505319075609e-01  9.6827039227342404e-01  9.6789363183903854e-01  9.6626476470849876e-01  9.6304032497173653e-01  9.5735038388815108e-01  9.4726917342745431e-01  9.2848179214724424e-01  8.9077214079869371e-01  7.9829957332951440e-01  4.1529856130612935e-01  3.7259312954807189e-01  1.9667835850258372e-01  1.7219138572392864e-01  2.6564301279604724e-01  2.6571377720812811e-01  1.6248450116598981e-01  1.7097363720573386e-01  1.7406109564327421e-01  1.7319604456591875e-01  1.7313837306654414e-01  1.7563664451718033e-01  1.8350311490798085e-01  2.0358027218454142e-01  2.5153999301475904e-01  3.6409999420697625e-01  5.9353693601091184e-01  8.9559793212477357e-01  9.4026076746113452e-01  9.0358922028912614e-01  9.3285883419171900e-01  9.4920506800029381e-01  9.5558832588222731e-01  9.6057044132245284e-01  9.6505085912426369e-01  9.6730360373339097e-01  9.6711714030062079e-01  9.6589939955768522e-01  9.6508210649656334e-01  9.6529850822300689e-01  9.6619541500520456e-01  9.6675862814887459e-01  9.6621784186689907e-01  9.6412451605062133e-01  9.5989037265989985e-01  9.5231372729789399e-01  9.3895274899645942e-01  9.1540028247638572e-01  8.6989925759062492e-01  7.4120514410720417e-01  5.2672610790062180e-01  3.5656518574699103e-01  2.2660275738148966e-01  1.6554701909837319e-01  1.6608043830105881e-01  2.6559874127556432e-01  2.6580469584914734e-01  1.6286534075382872e-01  1.7307926134121795e-01  1.7124294606408810e-01  1.6837578797280203e-01  1.7260124152559761e-01  1.8760731780923065e-01  2.2226707309722094e-01  3.0625913477304362e-01  5.0644918148986606e-01  8.1887454038239083e-01  9.3239316243223935e-01  8.9147693086636870e-01  9.2468217662702346e-01  9.4420516210906202e-01  9.5289668373843461e-01  9.5895685277647658e-01  9.6388037146084282e-01  9.6675179045689552e-01  9.6730862845473131e-01  9.6639863972488227e-01  9.6530503967392201e-01  9.6490949651815461e-01  9.6540606775512239e-01  9.6621214124349208e-01  9.6635617474362945e-01  9.6501538159567224e-01  9.6155302424843248e-01  9.5524673666376880e-01  9.4494638753648752e-01  9.2875196383043412e-01  8.9889345258504250e-01  8.3239141956492568e-01  7.5457292778026419e-01  5.2905260196913440e-01  3.1019687747535929e-01  2.1839312098651198e-01  1.7197989458034549e-01  1.7046538263685088e-01  1.6412662669255274e-01  2.6574570872166775e-01  2.6582679486108751e-01  1.6332136374681386e-01  1.7351514455354836e-01  1.6581073490588813e-01  1.7288181378445766e-01  2.0013391904514388e-01  2.5865809956281716e-01  4.0888677307795573e-01  7.007810377