<?xml version="1.0"?>
<VTKFile type="UnstructuredGrid"  version="0.1"  >
<UnstructuredGrid>
<Piece  NumberOfPoints="1681" NumberOfCells="3200">
<Points>
<DataArray  type="Float64"  NumberOfComponents="3"  format="ascii">0 0 0  0.025 0 0  0.05 0 0  0.075 0 0  0.1 0 0  0.125 0 0  0.15 0 0  0.175 0 0  0.2 0 0  0.225 0 0  0.25 0 0  0.275 0 0  0.3 0 0  0.325 0 0  0.35 0 0  0.375 0 0  0.4 0 0  0.425 0 0  0.45 0 0  0.475 0 0  0.5 0 0  0.525 0 0  0.55 0 0  0.575 0 0  0.6 0 0  0.625 0 0  0.65 0 0  0.675 0 0  0.7 0 0  0.725 0 0  0.75 0 0  0.775 0 0  0.8 0 0  0.825 0 0  0.85 0 0  0.875 0 0  0.9 0 0  0.925 0 0  0.95 0 0  0.975 0 0  1 0 0  0 0.025 0  0.025 0.025 0  0.05 0.025 0  0.075 0.025 0  0.1 0.025 0  0.125 0.025 0  0.15 0.025 0  0.175 0.025 0  0.2 0.025 0  0.225 0.025 0  0.25 0.025 0  0.275 0.025 0  0.3 0.025 0  0.325 0.025 0  0.35 0.025 0  0.375 0.025 0  0.4 0.025 0  0.425 0.025 0  0.45 0.025 0  0.475 0.025 0  0.5 0.025 0  0.525 0.025 0  0.55 0.025 0  0.575 0.025 0  0.6 0.025 0  0.625 0.025 0  0.65 0.025 0  0.675 0.025 0  0.7 0.025 0  0.725 0.025 0  0.75 0.025 0  0.775 0.025 0  0.8 0.025 0  0.825 0.025 0  0.85 0.025 0  0.875 0.025 0  0.9 0.025 0  0.925 0.025 0  0.95 0.025 0  0.975 0.025 0  1 0.025 0  0 0.05 0  0.025 0.05 0  0.05 0.05 0  0.075 0.05 0  0.1 0.05 0  0.125 0.05 0  0.15 0.05 0  0.175 0.05 0  0.2 0.05 0  0.225 0.05 0  0.25 0.05 0  0.275 0.05 0  0.3 0.05 0  0.325 0.05 0  0.35 0.05 0  0.375 0.05 0  0.4 0.05 0  0.425 0.05 0  0.45 0.05 0  0.475 0.05 0  0.5 0.05 0  0.525 0.05 0  0.55 0.05 0  0.575 0.05 0  0.6 0.05 0  0.625 0.05 0  0.65 0.05 0  0.675 0.05 0  0.7 0.05 0  0.725 0.05 0  0.75 0.05 0  0.775 0.05 0  0.8 0.05 0  0.825 0.05 0  0.85 0.05 0  0.875 0.05 0  0.9 0.05 0  0.925 0.05 0  0.95 0.05 0  0.975 0.05 0  1 0.05 0  0 0.075 0  0.025 0.075 0  0.05 0.075 0  0.075 0.075 0  0.1 0.075 0  0.125 0.075 0  0.15 0.075 0  0.175 0.075 0  0.2 0.075 0  0.225 0.075 0  0.25 0.075 0  0.275 0.075 0  0.3 0.075 0  0.325 0.075 0  0.35 0.075 0  0.375 0.075 0  0.4 0.075 0  0.425 0.075 0  0.45 0.075 0  0.475 0.075 0  0.5 0.075 0  0.525 0.075 0  0.55 0.075 0  0.575 0.075 0  0.6 0.075 0  0.625 0.075 0  0.65 0.075 0  0.675 0.075 0  0.7 0.075 0  0.725 0.075 0  0.75 0.075 0  0.775 0.075 0  0.8 0.075 0  0.825 0.075 0  0.85 0.075 0  0.875 0.075 0  0.9 0.075 0  0.925 0.075 0  0.95 0.075 0  0.975 0.075 0  1 0.075 0  0 0.1 0  0.025 0.1 0  0.05 0.1 0  0.075 0.1 0  0.1 0.1 0  0.125 0.1 0  0.15 0.1 0  0.175 0.1 0  0.2 0.1 0  0.225 0.1 0  0.25 0.1 0  0.275 0.1 0  0.3 0.1 0  0.325 0.1 0  0.35 0.1 0  0.375 0.1 0  0.4 0.1 0  0.425 0.1 0  0.45 0.1 0  0.475 0.1 0  0.5 0.1 0  0.525 0.1 0  0.55 0.1 0  0.575 0.1 0  0.6 0.1 0  0.625 0.1 0  0.65 0.1 0  0.675 0.1 0  0.7 0.1 0  0.725 0.1 0  0.75 0.1 0  0.775 0.1 0  0.8 0.1 0  0.825 0.1 0  0.85 0.1 0  0.875 0.1 0  0.9 0.1 0  0.925 0.1 0  0.95 0.1 0  0.975 0.1 0  1 0.1 0  0 0.125 0  0.025 0.125 0  0.05 0.125 0  0.075 0.125 0  0.1 0.125 0  0.125 0.125 0  0.15 0.125 0  0.175 0.125 0  0.2 0.125 0  0.225 0.125 0  0.25 0.125 0  0.275 0.125 0  0.3 0.125 0  0.325 0.125 0  0.35 0.125 0  0.375 0.125 0  0.4 0.125 0  0.425 0.125 0  0.45 0.125 0  0.475 0.125 0  0.5 0.125 0  0.525 0.125 0  0.55 0.125 0  0.575 0.125 0  0.6 0.125 0  0.625 0.125 0  0.65 0.125 0  0.675 0.125 0  0.7 0.125 0  0.725 0.125 0  0.75 0.125 0  0.775 0.125 0  0.8 0.125 0  0.825 0.125 0  0.85 0.125 0  0.875 0.125 0  0.9 0.125 0  0.925 0.125 0  0.95 0.125 0  0.975 0.125 0  1 0.125 0  0 0.15 0  0.025 0.15 0  0.05 0.15 0  0.075 0.15 0  0.1 0.15 0  0.125 0.15 0  0.15 0.15 0  0.175 0.15 0  0.2 0.15 0  0.225 0.15 0  0.25 0.15 0  0.275 0.15 0  0.3 0.15 0  0.325 0.15 0  0.35 0.15 0  0.375 0.15 0  0.4 0.15 0  0.425 0.15 0  0.45 0.15 0  0.475 0.15 0  0.5 0.15 0  0.525 0.15 0  0.55 0.15 0  0.575 0.15 0  0.6 0.15 0  0.625 0.15 0  0.65 0.15 0  0.675 0.15 0  0.7 0.15 0  0.725 0.15 0  0.75 0.15 0  0.775 0.15 0  0.8 0.15 0  0.825 0.15 0  0.85 0.15 0  0.875 0.15 0  0.9 0.15 0  0.925 0.15 0  0.95 0.15 0  0.975 0.15 0  1 0.15 0  0 0.175 0  0.025 0.175 0  0.05 0.175 0  0.075 0.175 0  0.1 0.175 0  0.125 0.175 0  0.15 0.175 0  0.175 0.175 0  0.2 0.175 0  0.225 0.175 0  0.25 0.175 0  0.275 0.175 0  0.3 0.175 0  0.325 0.175 0  0.35 0.175 0  0.375 0.175 0  0.4 0.175 0  0.425 0.175 0  0.45 0.175 0  0.475 0.175 0  0.5 0.175 0  0.525 0.175 0  0.55 0.175 0  0.575 0.175 0  0.6 0.175 0  0.625 0.175 0  0.65 0.175 0  0.675 0.175 0  0.7 0.175 0  0.725 0.175 0  0.75 0.175 0  0.775 0.175 0  0.8 0.175 0  0.825 0.175 0  0.85 0.175 0  0.875 0.175 0  0.9 0.175 0  0.925 0.175 0  0.95 0.175 0  0.975 0.175 0  1 0.175 0  0 0.2 0  0.025 0.2 0  0.05 0.2 0  0.075 0.2 0  0.1 0.2 0  0.125 0.2 0  0.15 0.2 0  0.175 0.2 0  0.2 0.2 0  0.225 0.2 0  0.25 0.2 0  0.275 0.2 0  0.3 0.2 0  0.325 0.2 0  0.35 0.2 0  0.375 0.2 0  0.4 0.2 0  0.425 0.2 0  0.45 0.2 0  0.475 0.2 0  0.5 0.2 0  0.525 0.2 0  0.55 0.2 0  0.575 0.2 0  0.6 0.2 0  0.625 0.2 0  0.65 0.2 0  0.675 0.2 0  0.7 0.2 0  0.725 0.2 0  0.75 0.2 0  0.775 0.2 0  0.8 0.2 0  0.825 0.2 0  0.85 0.2 0  0.875 0.2 0  0.9 0.2 0  0.925 0.2 0  0.95 0.2 0  0.975 0.2 0  1 0.2 0  0 0.225 0  0.025 0.225 0  0.05 0.225 0  0.075 0.225 0  0.1 0.225 0  0.125 0.225 0  0.15 0.225 0  0.175 0.225 0  0.2 0.225 0  0.225 0.225 0  0.25 0.225 0  0.275 0.225 0  0.3 0.225 0  0.325 0.225 0  0.35 0.225 0  0.375 0.225 0  0.4 0.225 0  0.425 0.225 0  0.45 0.225 0  0.475 0.225 0  0.5 0.225 0  0.525 0.225 0  0.55 0.225 0  0.575 0.225 0  0.6 0.225 0  0.625 0.225 0  0.65 0.225 0  0.675 0.225 0  0.7 0.225 0  0.725 0.225 0  0.75 0.225 0  0.775 0.225 0  0.8 0.225 0  0.825 0.225 0  0.85 0.225 0  0.875 0.225 0  0.9 0.225 0  0.925 0.225 0  0.95 0.225 0  0.975 0.225 0  1 0.225 0  0 0.25 0  0.025 0.25 0  0.05 0.25 0  0.075 0.25 0  0.1 0.25 0  0.125 0.25 0  0.15 0.25 0  0.175 0.25 0  0.2 0.25 0  0.225 0.25 0  0.25 0.25 0  0.275 0.25 0  0.3 0.25 0  0.325 0.25 0  0.35 0.25 0  0.375 0.25 0  0.4 0.25 0  0.425 0.25 0  0.45 0.25 0  0.475 0.25 0  0.5 0.25 0  0.525 0.25 0  0.55 0.25 0  0.575 0.25 0  0.6 0.25 0  0.625 0.25 0  0.65 0.25 0  0.675 0.25 0  0.7 0.25 0  0.725 0.25 0  0.75 0.25 0  0.775 0.25 0  0.8 0.25 0  0.825 0.25 0  0.85 0.25 0  0.875 0.25 0  0.9 0.25 0  0.925 0.25 0  0.95 0.25 0  0.975 0.25 0  1 0.25 0  0 0.275 0  0.025 0.275 0  0.05 0.275 0  0.075 0.275 0  0.1 0.275 0  0.125 0.275 0  0.15 0.275 0  0.175 0.275 0  0.2 0.275 0  0.225 0.275 0  0.25 0.275 0  0.275 0.275 0  0.3 0.275 0  0.325 0.275 0  0.35 0.275 0  0.375 0.275 0  0.4 0.275 0  0.425 0.275 0  0.45 0.275 0  0.475 0.275 0  0.5 0.275 0  0.525 0.275 0  0.55 0.275 0  0.575 0.275 0  0.6 0.275 0  0.625 0.275 0  0.65 0.275 0  0.675 0.275 0  0.7 0.275 0  0.725 0.275 0  0.75 0.275 0  0.775 0.275 0  0.8 0.275 0  0.825 0.275 0  0.85 0.275 0  0.875 0.275 0  0.9 0.275 0  0.925 0.275 0  0.95 0.275 0  0.975 0.275 0  1 0.275 0  0 0.3 0  0.025 0.3 0  0.05 0.3 0  0.075 0.3 0  0.1 0.3 0  0.125 0.3 0  0.15 0.3 0  0.175 0.3 0  0.2 0.3 0  0.225 0.3 0  0.25 0.3 0  0.275 0.3 0  0.3 0.3 0  0.325 0.3 0  0.35 0.3 0  0.375 0.3 0  0.4 0.3 0  0.425 0.3 0  0.45 0.3 0  0.475 0.3 0  0.5 0.3 0  0.525 0.3 0  0.55 0.3 0  0.575 0.3 0  0.6 0.3 0  0.625 0.3 0  0.65 0.3 0  0.675 0.3 0  0.7 0.3 0  0.725 0.3 0  0.75 0.3 0  0.775 0.3 0  0.8 0.3 0  0.825 0.3 0  0.85 0.3 0  0.875 0.3 0  0.9 0.3 0  0.925 0.3 0  0.95 0.3 0  0.975 0.3 0  1 0.3 0  0 0.325 0  0.025 0.325 0  0.05 0.325 0  0.075 0.325 0  0.1 0.325 0  0.125 0.325 0  0.15 0.325 0  0.175 0.325 0  0.2 0.325 0  0.225 0.325 0  0.25 0.325 0  0.275 0.325 0  0.3 0.325 0  0.325 0.325 0  0.35 0.325 0  0.375 0.325 0  0.4 0.325 0  0.425 0.325 0  0.45 0.325 0  0.475 0.325 0  0.5 0.325 0  0.525 0.325 0  0.55 0.325 0  0.575 0.325 0  0.6 0.325 0  0.625 0.325 0  0.65 0.325 0  0.675 0.325 0  0.7 0.325 0  0.725 0.325 0  0.75 0.325 0  0.775 0.325 0  0.8 0.325 0  0.825 0.325 0  0.85 0.325 0  0.875 0.325 0  0.9 0.325 0  0.925 0.325 0  0.95 0.325 0  0.975 0.325 0  1 0.325 0  0 0.35 0  0.025 0.35 0  0.05 0.35 0  0.075 0.35 0  0.1 0.35 0  0.125 0.35 0  0.15 0.35 0  0.175 0.35 0  0.2 0.35 0  0.225 0.35 0  0.25 0.35 0  0.275 0.35 0  0.3 0.35 0  0.325 0.35 0  0.35 0.35 0  0.375 0.35 0  0.4 0.35 0  0.425 0.35 0  0.45 0.35 0  0.475 0.35 0  0.5 0.35 0  0.525 0.35 0  0.55 0.35 0  0.575 0.35 0  0.6 0.35 0  0.625 0.35 0  0.65 0.35 0  0.675 0.35 0  0.7 0.35 0  0.725 0.35 0  0.75 0.35 0  0.775 0.35 0  0.8 0.35 0  0.825 0.35 0  0.85 0.35 0  0.875 0.35 0  0.9 0.35 0  0.925 0.35 0  0.95 0.35 0  0.975 0.35 0  1 0.35 0  0 0.375 0  0.025 0.375 0  0.05 0.375 0  0.075 0.375 0  0.1 0.375 0  0.125 0.375 0  0.15 0.375 0  0.175 0.375 0  0.2 0.375 0  0.225 0.375 0  0.25 0.375 0  0.275 0.375 0  0.3 0.375 0  0.325 0.375 0  0.35 0.375 0  0.375 0.375 0  0.4 0.375 0  0.425 0.375 0  0.45 0.375 0  0.475 0.375 0  0.5 0.375 0  0.525 0.375 0  0.55 0.375 0  0.575 0.375 0  0.6 0.375 0  0.625 0.375 0  0.65 0.375 0  0.675 0.375 0  0.7 0.375 0  0.725 0.375 0  0.75 0.375 0  0.775 0.375 0  0.8 0.375 0  0.825 0.375 0  0.85 0.375 0  0.875 0.375 0  0.9 0.375 0  0.925 0.375 0  0.95 0.375 0  0.975 0.375 0  1 0.375 0  0 0.4 0  0.025 0.4 0  0.05 0.4 0  0.075 0.4 0  0.1 0.4 0  0.125 0.4 0  0.15 0.4 0  0.175 0.4 0  0.2 0.4 0  0.225 0.4 0  0.25 0.4 0  0.275 0.4 0  0.3 0.4 0  0.325 0.4 0  0.35 0.4 0  0.375 0.4 0  0.4 0.4 0  0.425 0.4 0  0.45 0.4 0  0.475 0.4 0  0.5 0.4 0  0.525 0.4 0  0.55 0.4 0  0.575 0.4 0  0.6 0.4 0  0.625 0.4 0  0.65 0.4 0  0.675 0.4 0  0.7 0.4 0  0.725 0.4 0  0.75 0.4 0  0.775 0.4 0  0.8 0.4 0  0.825 0.4 0  0.85 0.4 0  0.875 0.4 0  0.9 0.4 0  0.925 0.4 0  0.95 0.4 0  0.975 0.4 0  1 0.4 0  0 0.425 0  0.025 0.425 0  0.05 0.425 0  0.075 0.425 0  0.1 0.425 0  0.125 0.425 0  0.15 0.425 0  0.175 0.425 0  0.2 0.425 0  0.225 0.425 0  0.25 0.425 0  0.275 0.425 0  0.3 0.425 0  0.325 0.425 0  0.35 0.425 0  0.375 0.425 0  0.4 0.425 0  0.425 0.425 0  0.45 0.425 0  0.475 0.425 0  0.5 0.425 0  0.525 0.425 0  0.55 0.425 0  0.575 0.425 0  0.6 0.425 0  0.625 0.425 0  0.65 0.425 0  0.675 0.425 0  0.7 0.425 0  0.725 0.425 0  0.75 0.425 0  0.775 0.425 0  0.8 0.425 0  0.825 0.425 0  0.85 0.425 0  0.875 0.425 0  0.9 0.425 0  0.925 0.425 0  0.95 0.425 0  0.975 0.425 0  1 0.425 0  0 0.45 0  0.02
[...]
<PointData  Scalars="ControlVisualisation"> 
<DataArray  type="Float64"  Name="ControlVisualisation"  format="ascii">3.5587128086252287e-03  2.3740315045957874e-03  2.3742797556582430e-03  2.3747001334334548e-03  2.3752881524342672e-03  2.3760397219779830e-03  2.3769490947715506e-03  2.3780092598602856e-03  2.3792119474039895e-03  2.3805476347249998e-03  2.3820055742014290e-03  2.3835738117259676e-03  2.3852391912691064e-03  2.3869873332306906e-03  2.3888025712416141e-03  2.3906678302194175e-03  2.3925644271977574e-03  2.3944717756198904e-03  2.3963669723378318e-03  2.3982242416042644e-03  2.4000142037347086e-03  2.4017029267881067e-03  2.4032507466854296e-03  2.4046108859805682e-03  2.4057280076410750e-03  2.4065368919026662e-03  2.4069616357963210e-03  2.4069159696240637e-03  2.4063052752422956e-03  2.4050328846392769e-03  2.4030120051704994e-03  2.4001909355565857e-03  2.3965973051270177e-03  2.3923821550531021e-03  2.3878412734945867e-03  2.3833936301218875e-03  2.3795158921379343e-03  2.3766101833143684e-03  2.3748487212000135e-03  2.3740756714174908e-03  7.1146417312210330e-03  2.3740316659686391e-03  1.1880773369049098e-03  1.1883240263363352e-03  1.1887627893603977e-03  1.1893954780051639e-03  1.1902177517027685e-03  1.1912236876260021e-03  1.1924060784266033e-03  1.1937562928878832e-03  1.1952642896419338e-03  1.1969186230133761e-03  1.1987064406835408e-03  1.2006134683849549e-03  1.2026239674002119e-03  1.2047206482886949e-03  1.2068845214633500e-03  1.2090946635624057e-03  1.2113278779137583e-03  1.2135582263867344e-03  1.2157564055008726e-03  1.2178889327252339e-03  1.2199170983108098e-03  1.2217956596995917e-03  1.2234712565874230e-03  1.2248807158172590e-03  1.2259494943640842e-03  1.2265910132377733e-03  1.2267068989181380e-03  1.2261888873252046e-03  1.2249243008208991e-03  1.2228064582957855e-03  1.2197637540391879e-03  1.2157973169174274e-03  1.2110466464973272e-03  1.2058211639209030e-03  1.2005652840464359e-03  1.1958116955768387e-03  1.1920861098994322e-03  1.1896771840159501e-03  1.1884620813010570e-03  2.3740708390432683e-03  2.3742816525415913e-03  1.1883254407898526e-03  1.1886352850802189e-03  1.1891367848502906e-03  1.1898613845422433e-03  1.1908051973984458e-03  1.1919616979457963e-03  1.1933227656428418e-03  1.1948786562188864e-03  1.1966180255393785e-03  1.1985279240185477e-03  1.2005937957570319e-03  1.2027994653590675e-03  1.2051270967707941e-03  1.2075571053012993e-03  1.2100680004070528e-03  1.2126361352385296e-03  1.2152353401491481e-03  1.2178364198171378e-03  1.2204064961530770e-03  1.2229081656561533e-03  1.2252984148466792e-03  1.2275271987025216e-03  1.2295356074706696e-03  1.2312540008926817e-03  1.2326002494444303e-03  1.2334792055823229e-03  1.2337820332227283e-03  1.2333894322768219e-03  1.2321756554246497e-03  1.2300182776495674e-03  1.2268221521290440e-03  1.2225084689813405e-03  1.2171954665357346e-03  1.2112253849386519e-03  1.2050747634366932e-03  1.1993007188366809e-03  1.1945537899858152e-03  1.1912416924868456e-03  1.1893995399496781e-03  2.3746900132339370e-03  2.3747092143850839e-03  1.1887707223872776e-03  1.1891440363603195e-03  1.1896519002527457e-03  1.1903820681533118e-03  1.1913331051756457e-03  1.1924986957080337e-03  1.1938706778542711e-03  1.1954392778209279e-03  1.1971931166239044e-03  1.1991192211542635e-03  1.2012030428306183e-03  1.2034284682244257e-03  1.2057778086565227e-03  1.2082317492370033e-03  1.2107692337998206e-03  1.2133672597629973e-03  1.2160005652871193e-03  1.2186412007474234e-03  1.2212579989659285e-03  1.2238159012876923e-03  1.2262751437798639e-03  1.2285900382354184e-03  1.2307076312310606e-03  1.2325654070154573e-03  1.2340886357632100e-03  1.2351886241261083e-03  1.2357682367109383e-03  1.2357301224285107e-03  1.2349690377605584e-03  1.2333784070465194e-03  1.2308214829103931e-03  1.2270953364509935e-03  1.2221663473595775e-03  1.2164288434128824e-03  1.2104889053394740e-03  1.2044302417493131e-03  1.1985666827654977e-03  1.1935189496621540e-03  1.1903868438884937e-03  2.3756042516199704e-03  2.3753164500922080e-03  1.1894219304385372e-03  1.1898894920982775e-03  1.1904030315737250e-03  1.1911348134594369e-03  1.1920876885609067e-03  1.1932555974554474e-03  1.1946303952592191e-03  1.1962023334708594e-03  1.1979600638365442e-03  1.1998906761806825e-03  1.2019797434421457e-03  1.2042113688948814e-03  1.2065682226052648e-03  1.2090315472351025e-03  1.2115811071257416e-03  1.2141950501971706e-03  1.2168496684667632e-03  1.2195190427277301e-03  1.2221746560717210e-03  1.2247849690555060e-03  1.2273153435933175e-03  1.2297271801961674e-03  1.2319774754711065e-03  1.2340124257445618e-03  1.2357706309125520e-03  1.2371757163386515e-03  1.2381672311005396e-03  1.2386530322316524e-03  1.2385323584514301e-03  1.2377338603718124e-03  1.2362563891374148e-03  1.2343946772234160e-03  1.2304157856681912e-03  1.2255011626787515e-03  1.2211506305221465e-03  1.2158543069989171e-03  1.2093502707975767e-03  1.2015698536813112e-03  1.1930931462873352e-03  2.3758734483958948e-03  2.3761085629860662e-03  1.1902847726806853e-03  1.1908793024349772e-03  1.1914003702171655e-03  1.1921340709202680e-03  1.1930891195927019e-03  1.1942597382492597e-03  1.1956378048302179e-03  1.1972135857206028e-03  1.1989757589444146e-03  1.2009114799152777e-03  1.2030064608337201e-03  1.2052450654039494e-03  1.2076104072761850e-03  1.2100844349951204e-03  1.2126479724233201e-03  1.2152806695124641e-03  1.2179608084763992e-03  1.2206649746999147e-03  1.2233678577115621e-03  1.2260422672376904e-03  1.2286597189121418e-03  1.2311895260472046e-03  1.2336013347295227e-03  1.2358580597894141e-03  1.2379384363894199e-03  1.2397483408104312e-03  1.2412250364514724e-03  1.2422442673037386e-03  1.2430906201599176e-03  1.2440218272664596e-03  1.2455930206150612e-03  1.2512861873167172e-03  1.2548118282563660e-03  1.2704457779262972e-03  1.3099031850322496e-03  1.3486697211223507e-03  1.3497456406543042e-03  1.2651401724570951e-03  1.2187386561457610e-03  2.3987669095114593e-03  2.3770918004493908e-03  1.1913665488060563e-03  1.1921221853770246e-03  1.1926530140012946e-03  1.1933892907642133e-03  1.1943472397731964e-03  1.1955214422431628e-03  1.1969037841194432e-03  1.1984845193939522e-03  1.2002523278644404e-03  1.2021944113757921e-03  1.2042966144009510e-03  1.2065435750579002e-03  1.2089189007032800e-03  1.2114053586478289e-03  1.2139850365832758e-03  1.2166394256917230e-03  1.2193492490423228e-03  1.2220942876521952e-03  1.2248527070423199e-03  1.2276013013507679e-03  1.2303152548819069e-03  1.2329771941190608e-03  1.2355776679184192e-03  1.2381168444123075e-03  1.2405696610811609e-03  1.2428085374542319e-03  1.2448774350968120e-03  1.2473606282036270e-03  1.2508030131052768e-03  1.2560571571101817e-03  1.2751997145959185e-03  1.3792073750318009e-03  1.5456618088347145e-03  1.8625483370684553e-03  2.9344031049506774e-03  7.8230778996684781e-03  2.2081500920212507e-02  4.7078297065431002e-03  1.6164197018538550e-03  2.5040602337149951e-03  2.3782738211423045e-03  1.1926764665467261e-03  1.1936290110619177e-03  1.1941720416188202e-03  1.1949117377551763e-03  1.1958735359484630e-03  1.1970524338709339e-03  1.1984402856659161e-03  1.2000272841500548e-03  1.2018020619750252e-03  1.2037518248065710e-03  1.2058625172430312e-03  1.2081190328873069e-03  1.2105054655011137e-03  1.2130054392244791e-03  1.2156024663802635e-03  1.2182803730083893e-03  1.2210230199320110e-03  1.2238141408436824e-03  1.2266335602144677e-03  1.2294637224046171e-03  1.2322816109603008e-03  1.2351001044074439e-03  1.2378710638250956e-03  1.2406866213638922e-03  1.2434729480524022e-03  1.2472127742033916e-03  1.2505332592950384e-03  1.2572013903787457e-03  1.2801196185520457e-03  1.3929639222694066e-03  1.6485388077803721e-03  2.7822953449036115e-03  8.8527251411669672e-02  3.4911888477725966e-01  6.2275904138328153e-01  8.8498706805937422e-01  9.8476876519932544e-01  9.9062585401879044e-01  9.8811224058710312e-01  4.2418682158998250e-01  2.3796636360554884e-03  1.1942254929410475e-03  1.1954127988849862e-03  1.1959708049381393e-03  1.1967150658784478e-03  1.1976819964752792e-03  1.1988670403098270e-03  1.2002619455258982e-03  1.2018567592121403e-03  1.2036399866037998e-03  1.2055987692409721e-03  1.2077190907407111e-03  1.2099860329453558e-03  1.2123840888334878e-03  1.2148977195965975e-03  1.2175119405111125e-03  1.2202132305280979e-03  1.2229890478834631e-03  1.2258290313868429e-03  1.2287171878512383e-03  1.2316513378537301e-03  1.2345719772859599e-03  1.2375182501307529e-03  1.2403677211915154e-03  1.2438891371671376e-03  1.2474335007876241e-03  1.2560778994419536e-03  1.2685683201484662e-03  1.3689163489334999e-03  1.6298407573827336e-03  2.8377064198726685e-03  1.4518061810998015e-01  5.0281392333724007e-01  9.5065124077633234e-01  9.9681382024699638e-01  9.9846433207942231e-01  9.9899365542329754e-01  9.9927472314842636e-01  9.9946285210297936e-01  9.9958814584330025e-01  9.9909674639146906e-01  2.3812714871116426e-03  1.1960263077487512e-03  1.1974887243966915e-03  1.1980649708405963e-03  1.1988154202400667e-03  1.1997892959901453e-03  1.2009824640486098e-03  1.2023864317533284e-03  1.2039909591431103e-03  1.2057842975129200e-03  1.2077534260319803e-03  1.2098843098854223e-03  1.2121621680857273e-03  1.2145717626347785e-03  1.2170979260910414e-03  1.2197264592312327e-03  1.2224465089330974e-03  1.2252538907338404e-03  1.2281496806029642e-03  1.2311244777797701e-03  1.2341562063809292e-03  1.2371702827036536e-03  1.2403623874903448e-03  1.2439882406284537e-03  1.2491639918721842e-03  1.2566844475975641e-03  1.3371843447757905e-03  1.5347093623095287e-03  2.3030030265140441e-03  7.6077281312206785e-02  4.8809967199060655e-01  9.6931237340867793e-01  9.9733777967262516e-01  9.9866539432739787e-01  9.9914558500320427e-01  9.9940940189156890e-01  9.9956708567951158e-01  9.9967616494428757e-01  9.9975752324726075e-01  9.9981280392059835e-01  9.9963972407073631e-01  2.3831086414810472e-03  1.1980931554124239e-03  1.1998740168605209e-03  1.2004725251738894e-03  1.2012315752447987e-03  1.2022150707786295e-03  1.2034191819854827e-03  1.2048349334326388e-03  1.2064515566475662e-03  1.2082568717784489e-03  1.2102376264890211e-03  1.2123798165001381e-03  1.2146686199704076e-03  1.2170887040824714e-03  1.2196240530341681e-03  1.2222626096014672e-03  1.2249943556179492e-03  1.2278284098226392e-03  1.2307558302711772e-03  1.2338421800680694e-03  1.2370211827097660e-03  1.2409226769988370e-03  1.2444973829813459e-03  1.2522997076636997e-03  1.2888040772489119e-03  1.4315363430960956e-03  1.9448492678038394e-03  1.4177698952189640e-02  3.6800086073160287e-01  8.9975866081354661e-01  9.9680051027894345e-01  9.9853881356486596e-01  9.9909589224813589e-01  9.9937748050826614e-01  9.9952952878038204e-01  9.9962710024733792e-01  9.9970054188699964e-01  9.9976187232825786e-01  9.9981321773961351e-01  9.9985035341278761e-01  9.9972925211998442e-01  2.3851869968265597e-03  1.2004415238250970e-03  1.2025877197949233e-03  1.2032137118607111e-03  1.2039850918651384e-03  1.2049822985445513e-03  1.2062015123728391e-03  1.2076328634340289e-03  1.2092646947064799e-03  1.2110841590090081e-03  1.2130775680027220e-03  1.2152309559142949e-03  1.2175296003749049e-03  1.2199601414763710e-03  1.2225037410543299e-03  1.2251510108238349e-03  1.2278601070998870e-03  1.2306898476137785e-03  1.2336523574220152e-03  1.2373108426878433e-03  1.2408782863885968e-03  1.2484274003187080e-03  1.2628052633153267e-03  1.3844377060094224e-03  1.7008977364321219e-03  3.7972654333342033e-03  2.5140071938672831e-01  7.5570349438961215e-01  9.9527571920579272e-01  9.9824934631014750e-01  9.9897394255321159e-01  9.9930507864979179e-01  9.9947328132745594e-01  9.9956955285402516e-01  9.9963244424322661e-01  9.9967928178428378e-01  9.9971932848034761e-01  9.9975714021578244e-01  9.9979304861506813e-01  9.9982198436456893e-01  9.9969170988420342e-01  2.3875183637899807e-03  1.2030875221005013e-03  1.2056501968820492e-03  1.2063108456998508e-03  1.2071004870716489e-03  1.2081178225095478e-03  1.2093585004910338e-03  1.2108111047654292e-03  1.2124623406048196e-03  1.2142979663218958e-03  1.2163037885275061e-03  1.2184677716365509e-03  1.2207776945571739e-03  1.2232219350275801e-03  1.2257633533871630e-03  1.2284085261871371e-03  1.2310968974528775e-03  1.2340806066817840e-03  1.2373247860714160e-03  1.2426734966149591e-03  1.2516058349394117e-03  1.3369178645411743e-03  1.5372177718577899e-03  2.4630286955726229e-03  1.3523197326741637e-01  5.5971439111467680e-01  9.8769169590901573e-01  9.9776350803086655e-01  9.9880858816177287e-01  9.9921433670095838e-01  9.9941623260852241e-01  9.9952295465224983e-01  9.9958446275442447e-01  9.9962126655594064e-01  9.9964314821201616e-01  9.9965553673074403e-01  9.9966170151412526e-01  9.9966316802188548e-01  9.9965978281776446e-01  9.9964604940448221e-01  9.9940608432527789e-01  2.3901131926776157e-03  1.2060467286576591e-03  1.2090821800121421e-03  1.2097878834500990e-03  1.2106054501831427e-03  1.2116532823134927e-03  1.2129254303510266e-03  1.2144075306556605e-03  1.2160834468829909e-03  1.2179375597713797e-03  1.2199568533911615e-03  1.2221287153756908e-03  1.2244406094278372e-03  1.2268850390024853e-03  1.2294687972556745e-03  1.2322581879891418e-03  1.2353688453413188e-03  1.2386060107603006e-03  1.2451592929751990e-03  1.2897216543375331e-03  1.4435385706213126e-03  1.9969798679198457e-03  2.2597421296982501e-02  3.7068889655061293e-01  9.2974479031415724e-01  9.9704237748398328e-01  9.9856886102358655e-01  9.9909790747068294e-01  9.9935559141986174e-01  9.9948357376532349e-01  9.9955249901909693e-01  9.9958928412957326e-01  9.9960478530847652e-01  9.9960312589164302e-01  9.9958415021836056e-01  9.9954282818146112e-01  9.9946414675166029e-01  9.9932107180254859e-01  9.9908589593199770e-01  9.9765315085387107e-01  9.9062470994857321e-01  2.3929782971836449e-03  1.2093320735659004e-03  1.2129030397178497e-03  1.2136697625384544e-03  1.2145313226731018e-03  1.2156262003053162e-03  1.2169450052317097e-03  1.2184695606258969e-03  1.2201811826498636e-03  1.2220579164783792e-03  1.2240816163093433e-03  1.2262310178808211e-03  1.2285629502319193e-03  1.2311169517786940e-03  1.2341165962135696e-03  1.2370191322144313e-03  1.2432124870177367e-03  1.2632068803006661e-03  1.3784481152903699e-03  1.7244518147049271e-03  4.5220448837938743e-03  2.3846950585492832e-01  7.6043841084692798e-01  9.9552670193239845e-01  9.9825109032574100e-01  9.9896446701460984e-01  9.9928675208771811e-01  9.9944408779302596e-01  9.9952679083415463e-01  9.9956993870826505e-01  9.9958751937183088e-01  9.9958439677167632e-01  9.9955975783567097e-01  9.9950633972374403e-01  9.9940366045559459e-01  9.9919365013441996e-01  9.9878919806533695e-01  9.9743436015214670e-01  7.6516513701776612e-01  1.7909173047753128e-02  2.9856428204557517e-03  2.3961127504135453e-03  1.2129500958646328e-03  1.2171279150632662e-03  1.2179811692168193e-03  1.2189130534542918e-03  1.2200816590591090e-03  1.2214737242832010e-03  1.2230646017904042e-03  1.2248239467050588e-03  1.2267068755959590e-03  1.2287366897847218e-03  1.2309236275033770e-03  1.2334560172978792e-03  1.2361596875469240e-03  1.2408922045985820e-03  1.2512442072140023e-03  1.3423131746326815e-03  1.5755467529495674e-03  2.6486742317770842e-03  1.2100885828436918e-01  5.6941533647740339e-01  9.9012176420097797e-01  9.9782393086142829e-01  9.9880827408724404e-01  9.9920526813709809e-01  9.9940094105223298e-01  9.9950157115463178e-01  9.9955440212542157e-01  9.9957793953313689e-01  9.9957891516445119e-01  9.9955754003025321e-01  9.9950765804926034e-01  9.9941143350424400e-01  9.9921964392002427e-01  9.9883466227840489e-01  9.9783302125903706e-01  9.7873587285004315e-01  3.5680412120660626e-01  5.0678516096257127e-03  1.4319967852640656e-03  2.5221991541731241e-03  2.3995007207489680e-03  1.2168940946580946e-03  1.2217620191689173e-03  1.2227444126850502e-03  1.2237930934499187e-03  1.2250815670801637e-03  1.2265823263825223e-03  1.2282555498303069e-03  1.2300891644305225e-03  1.2320593489812300e-03  1.2342554466913624e-03  1.2365790764516751e-03  1.2395034308721464e-03  1.2465695141772801e-03  1.3020458593138873e-03  1.4647560549200891e-03  2.0970054131641300e-03  3.1480943575046369e-02  3.9788943953184908e-01  9.3355835737003900e-01  9.9711669487879429e-01  9.9859982728993379e-01  9.9910314649988374e-01  9.9935113168631795e-01  9.9947414814921554e-01  9.9953884992818853e-01  9.9957002361099023e-01  9.9957709512825654e-01  9.9956183607720128e-01  9.9951989423407706e-01  9.9943745363967018e-01  9.9927766711670851e-01  9.9895076772520774e-01  9.9821399724495286e-01  9.9449055217348770e-01  6.0228758072981170e-01  1.2825248388373697e-01  2.5322612741799670e-03  1.4739144748170804e-03  1.2557130427024547e-03  2.3905137272616601e-03  2.4030964583292040e-03  1.2211306038258487e-03  1.2267930328215856e-03  1.2279833497368495e-03  1.2292266822557484e-03  1.2306912595788535e-03  1.2323422362193748e-03  1.2342060894444604e-03  1.2363427871223836e-03  1.2385749784885529e-03  1.2407897277281047e-03  1.2459807796263663e-03  1.2729495739560695e-03  1.3983302845752424e-03  1.8052244395380763e-03  5.9388772163991039e-03  2.4429386997568991e-01  7.5604785525935059e-01  9.9591041213222053e-01  9.9832295103452240e-01  9.9898127472736920e-01  9.9929129511882075e-01  9.9944248981959816e-01  9.9952142044964409e-01  9.9956137026313063e-01  9.9957519469966771e-01  9.9956667273808930e-01  9.9953336486869493e-01  9.9946500948695227e-01  9.9933413463474785e-01  9.9906158264166622e-01  9.9850439443793826e-01  9.9673483118060580e-01  7.9790660964805460e-01  2.6190374225793678e-01  5.8025765981844155e-03  1.8245820495518025e-03  1.4139453713971014e-03  1.2775010082181019e-03  1.2353943771522690e-03  2.4051597732425950e-03  2.4067979977801276e-03  1.2255793016531019e-03  1.2321799587024244e-03  1.2337113217506406e-03  1.2352699690521955e-03  1.2370567241593413e-03  1.2390399869243083e-03  1.2412139849656812e-03  1.2436494351981289e-03  1.2477194548048301e-03  1.2612899134966825e-03  1.3570391205251229e-03  1.6257954493689073e-03  2.9997681926312593e-03  1.2608834870155430e-01  5.7376013695409034e-01  9.9233425150098442e-01  9.9795966452603180e-01  9.9884742342653499e-01  9.9922014123253944e-01  9.9940583906131919e-01  9.9950127495420582e-01  9.9955103941780832e-01  9.9957203256091576e-01  9.9957016827405643e-01  9.9954486329264247e-01  9.9948881323505490e-01  9.9938165760038622e-01  9.9916719836975521e-01  9.9873664581695687e-01  9.9758393481956831e-01  9.7796007671758600e-01  4.2030149392468669e-01  4.3161088396825524e-02  2.2906734172606219e-03  1.5177307712092665e-03  1.3317632670310708e-03  1.2719696730109282e-03  1.2549392176807765e-03  1.2378439543484663e-03  2.4133287032112390e-03  2.4103959168008462e-03  1.2300562912643273e-03  1.2378039070383238e-03  1.2399689546976971e-03  1.2421801874606536e-03  1.2445887830821335e-03  1.2468862374063589e-03  1.2496963522713243e-03  1.2590420563420013e-03  1.3238383702487673e-03  1.5087533337665990e-03  2.2419211258674285e-03  4.0254330721572751e-02  4.0203458017020077e-01  9.6384297891940884e-01  9.9739153489017396e-01  9.9867111610746562e-01  9.9913239838127665e-01  9.9936337608306147e-01  9.9947850775153424e-01  9.9953903775145980e-01  9.9956746257084861e-01  9.9957213737082884e-01  9.9955418443643773e-01  9.9950857055067610e-01  9.9942004214690261e-01  9.9924811919005974e-01  9.9889911220024363e-01  9.9810592553062494e-01  9.9400491370650312e-01  6.0510524120923703e-01  1.3246046476417039e-01  3.2477020513554011e-03  1.6652852623787410e-03  1.3790320971208084e-03  1.2797231080022660e-03  1.2614717517974898e-03  1.2551765268902513e-03  1.2492396950663216e-03  1.2373099236061206e-03  2.4150328959433613e-03  2.4134168928658982e-03  1.2341814858197828e-03  1.2435703684343042e-03  1.2470691780853357e-03  1.2502649112290712e-03  1.2535963255655672e-03  1.2600047468253805e-03  1.2917817126327316e-03  1.423864418