<?xml version="1.0"?>
<VTKFile type="UnstructuredGrid"  version="0.1"  >
<UnstructuredGrid>
<Piece  NumberOfPoints="1681" NumberOfCells="3200">
<Points>
<DataArray  type="Float64"  NumberOfComponents="3"  format="ascii">0 0 0  0.025 0 0  0.05 0 0  0.075 0 0  0.1 0 0  0.125 0 0  0.15 0 0  0.175 0 0  0.2 0 0  0.225 0 0  0.25 0 0  0.275 0 0  0.3 0 0  0.325 0 0  0.35 0 0  0.375 0 0  0.4 0 0  0.425 0 0  0.45 0 0  0.475 0 0  0.5 0 0  0.525 0 0  0.55 0 0  0.575 0 0  0.6 0 0  0.625 0 0  0.65 0 0  0.675 0 0  0.7 0 0  0.725 0 0  0.75 0 0  0.775 0 0  0.8 0 0  0.825 0 0  0.85 0 0  0.875 0 0  0.9 0 0  0.925 0 0  0.95 0 0  0.975 0 0  1 0 0  0 0.025 0  0.025 0.025 0  0.05 0.025 0  0.075 0.025 0  0.1 0.025 0  0.125 0.025 0  0.15 0.025 0  0.175 0.025 0  0.2 0.025 0  0.225 0.025 0  0.25 0.025 0  0.275 0.025 0  0.3 0.025 0  0.325 0.025 0  0.35 0.025 0  0.375 0.025 0  0.4 0.025 0  0.425 0.025 0  0.45 0.025 0  0.475 0.025 0  0.5 0.025 0  0.525 0.025 0  0.55 0.025 0  0.575 0.025 0  0.6 0.025 0  0.625 0.025 0  0.65 0.025 0  0.675 0.025 0  0.7 0.025 0  0.725 0.025 0  0.75 0.025 0  0.775 0.025 0  0.8 0.025 0  0.825 0.025 0  0.85 0.025 0  0.875 0.025 0  0.9 0.025 0  0.925 0.025 0  0.95 0.025 0  0.975 0.025 0  1 0.025 0  0 0.05 0  0.025 0.05 0  0.05 0.05 0  0.075 0.05 0  0.1 0.05 0  0.125 0.05 0  0.15 0.05 0  0.175 0.05 0  0.2 0.05 0  0.225 0.05 0  0.25 0.05 0  0.275 0.05 0  0.3 0.05 0  0.325 0.05 0  0.35 0.05 0  0.375 0.05 0  0.4 0.05 0  0.425 0.05 0  0.45 0.05 0  0.475 0.05 0  0.5 0.05 0  0.525 0.05 0  0.55 0.05 0  0.575 0.05 0  0.6 0.05 0  0.625 0.05 0  0.65 0.05 0  0.675 0.05 0  0.7 0.05 0  0.725 0.05 0  0.75 0.05 0  0.775 0.05 0  0.8 0.05 0  0.825 0.05 0  0.85 0.05 0  0.875 0.05 0  0.9 0.05 0  0.925 0.05 0  0.95 0.05 0  0.975 0.05 0  1 0.05 0  0 0.075 0  0.025 0.075 0  0.05 0.075 0  0.075 0.075 0  0.1 0.075 0  0.125 0.075 0  0.15 0.075 0  0.175 0.075 0  0.2 0.075 0  0.225 0.075 0  0.25 0.075 0  0.275 0.075 0  0.3 0.075 0  0.325 0.075 0  0.35 0.075 0  0.375 0.075 0  0.4 0.075 0  0.425 0.075 0  0.45 0.075 0  0.475 0.075 0  0.5 0.075 0  0.525 0.075 0  0.55 0.075 0  0.575 0.075 0  0.6 0.075 0  0.625 0.075 0  0.65 0.075 0  0.675 0.075 0  0.7 0.075 0  0.725 0.075 0  0.75 0.075 0  0.775 0.075 0  0.8 0.075 0  0.825 0.075 0  0.85 0.075 0  0.875 0.075 0  0.9 0.075 0  0.925 0.075 0  0.95 0.075 0  0.975 0.075 0  1 0.075 0  0 0.1 0  0.025 0.1 0  0.05 0.1 0  0.075 0.1 0  0.1 0.1 0  0.125 0.1 0  0.15 0.1 0  0.175 0.1 0  0.2 0.1 0  0.225 0.1 0  0.25 0.1 0  0.275 0.1 0  0.3 0.1 0  0.325 0.1 0  0.35 0.1 0  0.375 0.1 0  0.4 0.1 0  0.425 0.1 0  0.45 0.1 0  0.475 0.1 0  0.5 0.1 0  0.525 0.1 0  0.55 0.1 0  0.575 0.1 0  0.6 0.1 0  0.625 0.1 0  0.65 0.1 0  0.675 0.1 0  0.7 0.1 0  0.725 0.1 0  0.75 0.1 0  0.775 0.1 0  0.8 0.1 0  0.825 0.1 0  0.85 0.1 0  0.875 0.1 0  0.9 0.1 0  0.925 0.1 0  0.95 0.1 0  0.975 0.1 0  1 0.1 0  0 0.125 0  0.025 0.125 0  0.05 0.125 0  0.075 0.125 0  0.1 0.125 0  0.125 0.125 0  0.15 0.125 0  0.175 0.125 0  0.2 0.125 0  0.225 0.125 0  0.25 0.125 0  0.275 0.125 0  0.3 0.125 0  0.325 0.125 0  0.35 0.125 0  0.375 0.125 0  0.4 0.125 0  0.425 0.125 0  0.45 0.125 0  0.475 0.125 0  0.5 0.125 0  0.525 0.125 0  0.55 0.125 0  0.575 0.125 0  0.6 0.125 0  0.625 0.125 0  0.65 0.125 0  0.675 0.125 0  0.7 0.125 0  0.725 0.125 0  0.75 0.125 0  0.775 0.125 0  0.8 0.125 0  0.825 0.125 0  0.85 0.125 0  0.875 0.125 0  0.9 0.125 0  0.925 0.125 0  0.95 0.125 0  0.975 0.125 0  1 0.125 0  0 0.15 0  0.025 0.15 0  0.05 0.15 0  0.075 0.15 0  0.1 0.15 0  0.125 0.15 0  0.15 0.15 0  0.175 0.15 0  0.2 0.15 0  0.225 0.15 0  0.25 0.15 0  0.275 0.15 0  0.3 0.15 0  0.325 0.15 0  0.35 0.15 0  0.375 0.15 0  0.4 0.15 0  0.425 0.15 0  0.45 0.15 0  0.475 0.15 0  0.5 0.15 0  0.525 0.15 0  0.55 0.15 0  0.575 0.15 0  0.6 0.15 0  0.625 0.15 0  0.65 0.15 0  0.675 0.15 0  0.7 0.15 0  0.725 0.15 0  0.75 0.15 0  0.775 0.15 0  0.8 0.15 0  0.825 0.15 0  0.85 0.15 0  0.875 0.15 0  0.9 0.15 0  0.925 0.15 0  0.95 0.15 0  0.975 0.15 0  1 0.15 0  0 0.175 0  0.025 0.175 0  0.05 0.175 0  0.075 0.175 0  0.1 0.175 0  0.125 0.175 0  0.15 0.175 0  0.175 0.175 0  0.2 0.175 0  0.225 0.175 0  0.25 0.175 0  0.275 0.175 0  0.3 0.175 0  0.325 0.175 0  0.35 0.175 0  0.375 0.175 0  0.4 0.175 0  0.425 0.175 0  0.45 0.175 0  0.475 0.175 0  0.5 0.175 0  0.525 0.175 0  0.55 0.175 0  0.575 0.175 0  0.6 0.175 0  0.625 0.175 0  0.65 0.175 0  0.675 0.175 0  0.7 0.175 0  0.725 0.175 0  0.75 0.175 0  0.775 0.175 0  0.8 0.175 0  0.825 0.175 0  0.85 0.175 0  0.875 0.175 0  0.9 0.175 0  0.925 0.175 0  0.95 0.175 0  0.975 0.175 0  1 0.175 0  0 0.2 0  0.025 0.2 0  0.05 0.2 0  0.075 0.2 0  0.1 0.2 0  0.125 0.2 0  0.15 0.2 0  0.175 0.2 0  0.2 0.2 0  0.225 0.2 0  0.25 0.2 0  0.275 0.2 0  0.3 0.2 0  0.325 0.2 0  0.35 0.2 0  0.375 0.2 0  0.4 0.2 0  0.425 0.2 0  0.45 0.2 0  0.475 0.2 0  0.5 0.2 0  0.525 0.2 0  0.55 0.2 0  0.575 0.2 0  0.6 0.2 0  0.625 0.2 0  0.65 0.2 0  0.675 0.2 0  0.7 0.2 0  0.725 0.2 0  0.75 0.2 0  0.775 0.2 0  0.8 0.2 0  0.825 0.2 0  0.85 0.2 0  0.875 0.2 0  0.9 0.2 0  0.925 0.2 0  0.95 0.2 0  0.975 0.2 0  1 0.2 0  0 0.225 0  0.025 0.225 0  0.05 0.225 0  0.075 0.225 0  0.1 0.225 0  0.125 0.225 0  0.15 0.225 0  0.175 0.225 0  0.2 0.225 0  0.225 0.225 0  0.25 0.225 0  0.275 0.225 0  0.3 0.225 0  0.325 0.225 0  0.35 0.225 0  0.375 0.225 0  0.4 0.225 0  0.425 0.225 0  0.45 0.225 0  0.475 0.225 0  0.5 0.225 0  0.525 0.225 0  0.55 0.225 0  0.575 0.225 0  0.6 0.225 0  0.625 0.225 0  0.65 0.225 0  0.675 0.225 0  0.7 0.225 0  0.725 0.225 0  0.75 0.225 0  0.775 0.225 0  0.8 0.225 0  0.825 0.225 0  0.85 0.225 0  0.875 0.225 0  0.9 0.225 0  0.925 0.225 0  0.95 0.225 0  0.975 0.225 0  1 0.225 0  0 0.25 0  0.025 0.25 0  0.05 0.25 0  0.075 0.25 0  0.1 0.25 0  0.125 0.25 0  0.15 0.25 0  0.175 0.25 0  0.2 0.25 0  0.225 0.25 0  0.25 0.25 0  0.275 0.25 0  0.3 0.25 0  0.325 0.25 0  0.35 0.25 0  0.375 0.25 0  0.4 0.25 0  0.425 0.25 0  0.45 0.25 0  0.475 0.25 0  0.5 0.25 0  0.525 0.25 0  0.55 0.25 0  0.575 0.25 0  0.6 0.25 0  0.625 0.25 0  0.65 0.25 0  0.675 0.25 0  0.7 0.25 0  0.725 0.25 0  0.75 0.25 0  0.775 0.25 0  0.8 0.25 0  0.825 0.25 0  0.85 0.25 0  0.875 0.25 0  0.9 0.25 0  0.925 0.25 0  0.95 0.25 0  0.975 0.25 0  1 0.25 0  0 0.275 0  0.025 0.275 0  0.05 0.275 0  0.075 0.275 0  0.1 0.275 0  0.125 0.275 0  0.15 0.275 0  0.175 0.275 0  0.2 0.275 0  0.225 0.275 0  0.25 0.275 0  0.275 0.275 0  0.3 0.275 0  0.325 0.275 0  0.35 0.275 0  0.375 0.275 0  0.4 0.275 0  0.425 0.275 0  0.45 0.275 0  0.475 0.275 0  0.5 0.275 0  0.525 0.275 0  0.55 0.275 0  0.575 0.275 0  0.6 0.275 0  0.625 0.275 0  0.65 0.275 0  0.675 0.275 0  0.7 0.275 0  0.725 0.275 0  0.75 0.275 0  0.775 0.275 0  0.8 0.275 0  0.825 0.275 0  0.85 0.275 0  0.875 0.275 0  0.9 0.275 0  0.925 0.275 0  0.95 0.275 0  0.975 0.275 0  1 0.275 0  0 0.3 0  0.025 0.3 0  0.05 0.3 0  0.075 0.3 0  0.1 0.3 0  0.125 0.3 0  0.15 0.3 0  0.175 0.3 0  0.2 0.3 0  0.225 0.3 0  0.25 0.3 0  0.275 0.3 0  0.3 0.3 0  0.325 0.3 0  0.35 0.3 0  0.375 0.3 0  0.4 0.3 0  0.425 0.3 0  0.45 0.3 0  0.475 0.3 0  0.5 0.3 0  0.525 0.3 0  0.55 0.3 0  0.575 0.3 0  0.6 0.3 0  0.625 0.3 0  0.65 0.3 0  0.675 0.3 0  0.7 0.3 0  0.725 0.3 0  0.75 0.3 0  0.775 0.3 0  0.8 0.3 0  0.825 0.3 0  0.85 0.3 0  0.875 0.3 0  0.9 0.3 0  0.925 0.3 0  0.95 0.3 0  0.975 0.3 0  1 0.3 0  0 0.325 0  0.025 0.325 0  0.05 0.325 0  0.075 0.325 0  0.1 0.325 0  0.125 0.325 0  0.15 0.325 0  0.175 0.325 0  0.2 0.325 0  0.225 0.325 0  0.25 0.325 0  0.275 0.325 0  0.3 0.325 0  0.325 0.325 0  0.35 0.325 0  0.375 0.325 0  0.4 0.325 0  0.425 0.325 0  0.45 0.325 0  0.475 0.325 0  0.5 0.325 0  0.525 0.325 0  0.55 0.325 0  0.575 0.325 0  0.6 0.325 0  0.625 0.325 0  0.65 0.325 0  0.675 0.325 0  0.7 0.325 0  0.725 0.325 0  0.75 0.325 0  0.775 0.325 0  0.8 0.325 0  0.825 0.325 0  0.85 0.325 0  0.875 0.325 0  0.9 0.325 0  0.925 0.325 0  0.95 0.325 0  0.975 0.325 0  1 0.325 0  0 0.35 0  0.025 0.35 0  0.05 0.35 0  0.075 0.35 0  0.1 0.35 0  0.125 0.35 0  0.15 0.35 0  0.175 0.35 0  0.2 0.35 0  0.225 0.35 0  0.25 0.35 0  0.275 0.35 0  0.3 0.35 0  0.325 0.35 0  0.35 0.35 0  0.375 0.35 0  0.4 0.35 0  0.425 0.35 0  0.45 0.35 0  0.475 0.35 0  0.5 0.35 0  0.525 0.35 0  0.55 0.35 0  0.575 0.35 0  0.6 0.35 0  0.625 0.35 0  0.65 0.35 0  0.675 0.35 0  0.7 0.35 0  0.725 0.35 0  0.75 0.35 0  0.775 0.35 0  0.8 0.35 0  0.825 0.35 0  0.85 0.35 0  0.875 0.35 0  0.9 0.35 0  0.925 0.35 0  0.95 0.35 0  0.975 0.35 0  1 0.35 0  0 0.375 0  0.025 0.375 0  0.05 0.375 0  0.075 0.375 0  0.1 0.375 0  0.125 0.375 0  0.15 0.375 0  0.175 0.375 0  0.2 0.375 0  0.225 0.375 0  0.25 0.375 0  0.275 0.375 0  0.3 0.375 0  0.325 0.375 0  0.35 0.375 0  0.375 0.375 0  0.4 0.375 0  0.425 0.375 0  0.45 0.375 0  0.475 0.375 0  0.5 0.375 0  0.525 0.375 0  0.55 0.375 0  0.575 0.375 0  0.6 0.375 0  0.625 0.375 0  0.65 0.375 0  0.675 0.375 0  0.7 0.375 0  0.725 0.375 0  0.75 0.375 0  0.775 0.375 0  0.8 0.375 0  0.825 0.375 0  0.85 0.375 0  0.875 0.375 0  0.9 0.375 0  0.925 0.375 0  0.95 0.375 0  0.975 0.375 0  1 0.375 0  0 0.4 0  0.025 0.4 0  0.05 0.4 0  0.075 0.4 0  0.1 0.4 0  0.125 0.4 0  0.15 0.4 0  0.175 0.4 0  0.2 0.4 0  0.225 0.4 0  0.25 0.4 0  0.275 0.4 0  0.3 0.4 0  0.325 0.4 0  0.35 0.4 0  0.375 0.4 0  0.4 0.4 0  0.425 0.4 0  0.45 0.4 0  0.475 0.4 0  0.5 0.4 0  0.525 0.4 0  0.55 0.4 0  0.575 0.4 0  0.6 0.4 0  0.625 0.4 0  0.65 0.4 0  0.675 0.4 0  0.7 0.4 0  0.725 0.4 0  0.75 0.4 0  0.775 0.4 0  0.8 0.4 0  0.825 0.4 0  0.85 0.4 0  0.875 0.4 0  0.9 0.4 0  0.925 0.4 0  0.95 0.4 0  0.975 0.4 0  1 0.4 0  0 0.425 0  0.025 0.425 0  0.05 0.425 0  0.075 0.425 0  0.1 0.425 0  0.125 0.425 0  0.15 0.425 0  0.175 0.425 0  0.2 0.425 0  0.225 0.425 0  0.25 0.425 0  0.275 0.425 0  0.3 0.425 0  0.325 0.425 0  0.35 0.425 0  0.375 0.425 0  0.4 0.425 0  0.425 0.425 0  0.45 0.425 0  0.475 0.425 0  0.5 0.425 0  0.525 0.425 0  0.55 0.425 0  0.575 0.425 0  0.6 0.425 0  0.625 0.425 0  0.65 0.425 0  0.675 0.425 0  0.7 0.425 0  0.725 0.425 0  0.75 0.425 0  0.775 0.425 0  0.8 0.425 0  0.825 0.425 0  0.85 0.425 0  0.875 0.425 0  0.9 0.425 0  0.925 0.425 0  0.95 0.425 0  0.975 0.425 0  1 0.425 0  0 0.45 0  0.02
[...]
<PointData  Scalars="ControlVisualisation"> 
<DataArray  type="Float64"  Name="ControlVisualisation"  format="ascii">2.5546385889232787e-01  2.3856690559146132e-01  2.3857024372941504e-01  2.3857868944552668e-01  2.3859208274605714e-01  2.3860987799864161e-01  2.3863148104854165e-01  2.3865622368246031e-01  2.3868336317232330e-01  2.3871210124594838e-01  2.3874161178773112e-01  2.3877106753245611e-01  2.3879966438336414e-01  2.3882664254882521e-01  2.3885130414727293e-01  2.3887302728438747e-01  2.3889127684571915e-01  2.3890561240487826e-01  2.3891569374529398e-01  2.3892128450928432e-01  2.3892225441382584e-01  2.3891858037665656e-01  2.3891034675308032e-01  2.3889774471319508e-01  2.3888107061564662e-01  2.3886072310489162e-01  2.3883719849777554e-01  2.3881108397692646e-01  2.3878304806699979e-01  2.3875382793197389e-01  2.3872421319669554e-01  2.3869502614184659e-01  2.3866709854797336e-01  2.3864124566843400e-01  2.3861823883168373e-01  2.3859878054979133e-01  2.3858349501991527e-01  2.3857293730823992e-01  2.3856752255662050e-01  2.3856649743546121e-01  2.7270100398408964e-01  2.3856690283456411e-01  1.8983359737217351e-01  1.8987177511568493e-01  1.8995033032892589e-01  1.9007231484046566e-01  1.9023426125101467e-01  1.9043092321858623e-01  1.9065631013611545e-01  1.9090376454104663e-01  1.9116614313439154e-01  1.9143604930732991e-01  1.9170606424206646e-01  1.9196896123349105e-01  1.9221789302965253e-01  1.9244654863926314e-01  1.9264927920214270e-01  1.9282119477655088e-01  1.9295823551472832e-01  1.9305722157533370e-01  1.9311588621461223e-01  1.9313289617530957e-01  1.9310786257417673e-01  1.9304134416192159e-01  1.9293484367125308e-01  1.9279079622965795e-01  1.9261254761881760e-01  1.9240431893232118e-01  1.9217115336528903e-01  1.9191884059950207e-01  1.9165381447848809e-01  1.9138302083443187e-01  1.9111375387926624e-01  1.9085346249825813e-01  1.9060953049451548e-01  1.9038904232225617e-01  1.9019855409053321e-01  1.9004389418260553e-01  1.8992991180707935e-01  1.8985913787716635e-01  1.8982694858574128e-01  2.3856649628330712e-01  2.3857026554591901e-01  1.8987227789646083e-01  1.8996969124041785e-01  1.9012285152899405e-01  1.9034890981642238e-01  1.9064706940792306e-01  1.9100902715965046e-01  1.9142402266518987e-01  1.9187987305743417e-01  1.9236350632635812e-01  1.9286138538790482e-01  1.9335992617605882e-01  1.9384588522801954e-01  1.9430670008591272e-01  1.9473077554514490e-01  1.9510771414065509e-01  1.9542849390195638e-01  1.9568559947821260e-01  1.9587311434809201e-01  1.9598678226969024e-01  1.9602404526305534e-01  1.9598406420115047e-01  1.9586772551246059e-01  1.9567763535348076e-01  1.9541809985767408e-01  1.9509508745570128e-01  1.9471616737200412e-01  1.9429041663088123e-01  1.9382828750556183e-01  1.9334142755260869e-01  1.9284244633215858e-01  1.9234462587032672e-01  1.9186157673886964e-01  1.9140684688147386e-01  1.9099349888406278e-01  1.9063365474043809e-01  1.9033792267194447e-01  1.9011389980783822e-01  1.8996046335350769e-01  1.8985937322995242e-01  2.3856751518825381e-01  2.3857899814176051e-01  1.8995405768084980e-01  1.9012874372551547e-01  1.9032248560385356e-01  1.9058366305266569e-01  1.9092304408018604e-01  1.9133410470398410e-01  1.9180520038282581e-01  1.9232260154657965e-01  1.9287148955339634e-01  1.9343651268801382e-01  1.9400227657371374e-01  1.9455378231089654e-01  1.9507680995718329e-01  1.9555824004036798e-01  1.9598631156908314e-01  1.9635082037258450e-01  1.9664326472919894e-01  1.9685694726699518e-01  1.9698704249806431e-01  1.9703063842382576e-01  1.9698675895927406e-01  1.9685637146073198e-01  1.9664238076143367e-01  1.9634960823091718e-01  1.9598475134013160e-01  1.9555631706704207e-01  1.9507452038295195e-01  1.9455113849425185e-01  1.9399931178309138e-01  1.9343328439439031e-01  1.9286808077917991e-01  1.9231911966890991e-01  1.9180177115769437e-01  1.9133086229426816e-01  1.9092007192453192e-01  1.9058083680957183e-01  1.9031865331141418e-01  1.9011933645897458e-01  1.8993240628711835e-01  2.3857300205884691e-01  2.3859349801489915e-01  1.9008693802569876e-01  1.9037482553622664e-01  1.9060607529753007e-01  1.9088127399178320e-01  1.9123092050056723e-01  1.9165277762771027e-01  1.9213574352914836e-01  1.9266586927307056e-01  1.9322795360916237e-01  1.9380624967996132e-01  1.9438499580103172e-01  1.9494886880118104e-01  1.9548337414360645e-01  1.9597516815017049e-01  1.9641231307459064e-01  1.9678446999766175e-01  1.9708303774351510e-01  1.9730124795944265e-01  1.9743422644908054e-01  1.9747903002600559e-01  1.9743466594931236e-01  1.9730209863143766e-01  1.9708424503833966e-01  1.9678595718540873e-01  1.9641398704048776e-01  1.9597692656950041e-01  1.9548511360904300e-01  1.9495049318116103e-01  1.9438642419762586e-01  1.9380742316030869e-01  1.9322883983251707e-01  1.9266646458191267e-01  1.9213606871096195e-01  1.9165286643605972e-01  1.9123075381478588e-01  1.9088052655643217e-01  1.9060298834623143e-01  1.9036252241892743e-01  1.9005505631211173e-01  2.3858407641253421e-01  2.3861410507523437e-01  1.9027537036533007e-01  1.9072152786858998e-01  1.9100019683220423e-01  1.9128678769595642e-01  1.9164013030284180e-01  1.9206416324045852e-01  1.9254883919160271e-01  1.9308028306755853e-01  1.9364320541366531e-01  1.9422178565017484e-01  1.9480023899223259e-01  1.9536327848123880e-01  1.9589650110039047e-01  1.9638669903695660e-01  1.9682209969424311e-01  1.9719254149216822e-01  1.9748959549490908e-01  1.9770664458909859e-01  1.9783893144906367e-01  1.9788358530166342e-01  1.9783963525909390e-01  1.9770801503992852e-01  1.9749156067915227e-01  1.9719499951088729e-01  1.9682492546097302e-01  1.9638975280468013e-01  1.9589963825708925e-01  1.9536635977767233e-01  1.9480314049945818e-01  1.9422440747784928e-01  1.9364547801471904e-01  1.9308217058220487e-01  1.9255033620648682e-01  1.9206527829944231e-01  1.9164080587256774e-01  1.9128654478511015e-01  1.9099661477986823e-01  1.9070525532840463e-01  1.9023213403606137e-01  2.3860101676436021e-01  2.3864143750308225e-01  1.9052495569687067e-01  1.9118040314768864e-01  1.9152080040754810e-01  1.9182072394893260e-01  1.9217667372112757e-01  1.9260084886413251e-01  1.9308465252201573e-01  1.9361436329049284e-01  1.9417466161705071e-01  1.9474972977534322e-01  1.9532386014128494e-01  1.9588192248329911e-01  1.9640974019649771e-01  1.9689438395456796e-01  1.9732438918815617e-01  1.9768990725629321e-01  1.9798280294756454e-01  1.9819671165018954e-01  1.9832706917281129e-01  1.9837112489527053e-01  1.9832794686208183e-01  1.9819842373224844e-01  1.9798526543828257e-01  1.9769300069367407e-01  1.9732796609477449e-01  1.9689827838235077e-01  1.9641377870583548e-01  1.9588593592974238e-01  1.9532769528063254e-01  1.9475325972340354e-01  1.9417779381623762e-01  1.9361704379022104e-01  1.9308686311738146e-01  1.9260258539468403e-01  1.9217784342601948e-01  1.9182068792275681e-01  1.9151640895823580e-01  1.9115957805184003e-01  1.9046907721999007e-01  2.3862429020208850e-01  2.3867637218736187e-01  1.9084352530617033e-01  1.9176600464940172e-01  1.9218498318956626e-01  1.9250140724682110e-01  1.9285987339329910e-01  1.9328321945891330e-01  1.9376474868448981e-01  1.9429096745823110e-01  1.9484655453815369e-01  1.9541573732703249e-01  1.9598295132903298e-01  1.9653330932035071e-01  1.9705296221013324e-01  1.9752936830934054e-01  1.9795148135891430e-01  1.9830987054653265e-01  1.9859678803249725e-01  1.9880619945606520e-01  1.9893379182810184e-01  1.9897697064171027e-01  1.9893485510086412e-01  1.9880827680331867e-01  1.9859978379391099e-01  1.9831364802826917e-01  1.9795587078326218e-01  1.9753417706571452e-01  1.9705798688950210e-01  1.9653834892542565e-01  1.9598782061812459e-01  1.9542027921330124e-01  1.9485065002111962e-01  1.9429454133699142e-01  1.9376776673872312e-01  1.9328566171153228e-01  1.9286160253562137e-01  1.9250159280275300e-01  1.9217964387830122e-01  1.9174000008302480e-01  1.9077331215379340e-01  2.3865462375874313e-01  2.3872005769222845e-01  1.9124134193046033e-01  1.9249714740414126e-01  1.9301421101135857e-01  1.9335091121579176e-01  1.9371183042712001e-01  1.9413319697782058e-01  1.9461076906772912e-01  1.9513139421067016e-01  1.9567979795332585e-01  1.9624031304982922e-01  1.9679760169891819e-01  1.9733712314505120e-01  1.9784547232989708e-01  1.9831061693971158e-01  1.9872204846721900e-01  1.9907086463398879e-01  1.9934980160025761e-01  1.9955323388979124e-01  1.9967715761570198e-01  1.9971916969156217e-01  1.9967845223428768e-01  1.9955576763263835e-01  1.9935346620736757e-01  1.9907550454393760e-01  1.9872746893983384e-01  1.9831659473662799e-01  1.9785176861770767e-01  1.9734349800285278e-01  1.9680382935863608e-01  1.9624619658837336e-01  1.9568518169004567e-01  1.9513617160258051e-01  1.9461488014833997e-01  1.9413659590441218e-01  1.9371432043680681e-01  1.9335143023494944e-01  1.9300781485282073e-01  1.9246519458172934e-01  1.9115460844242604e-01  2.3869300420983255e-01  2.3877395814135216e-01  1.9173150995866819e-01  1.9339788431839425e-01  1.9403581660310040e-01  1.9439710240332114e-01  1.9476012598584938e-01  1.9517775386008787e-01  1.9564888976397662e-01  1.9616089178268836e-01  1.9669862266165428e-01  1.9724662122135381e-01  1.9778989972556210e-01  1.9831440512764589e-01  1.9880732662680548e-01  1.9925729122066932e-01  1.9965446971854653e-01  1.9999061512954239e-01  2.0025905514037531e-01  2.0045465853217648e-01  2.0057379217339694e-01  2.0061428157426250e-01  2.0057538405980169e-01  2.0045778011056922e-01  2.0026358460892985e-01  1.9999637621776886e-01  1.9966123954969278e-01  1.9926481096478385e-01  1.9881531482201548e-01  1.9832257326434266e-01  1.9779796932519977e-01  1.9725434117050072e-01  1.9670578477225625e-01  1.9616734183212983e-01  1.9565452598557556e-01  1.9518248790118739e-01  1.9476367786240387e-01  1.9439812244719534e-01  1.9402822779128961e-01  1.9335900213858748e-01  1.9162548482526659e-01  2.3874070527302244e-01  2.3883992370733603e-01  1.9233059543035808e-01  1.9449866722352926e-01  1.9528440840051098e-01  1.9567518298777989e-01  1.9603944286662570e-01  1.9645059511764440e-01  1.9691156803210755e-01  1.9741048363732561e-01  1.9793249782556049e-01  1.9846251920392630e-01  1.9898609411785911e-01  1.9948985380748210e-01  1.9996177926425171e-01  2.0039134450728663e-01  2.0076956926152612e-01  2.0108900788711898e-01  2.0134369917027503e-01  2.0152909834764490e-01  2.0164200810226918e-01  2.0168052112416568e-01  2.0164398279117246e-01  2.0153297884652518e-01  2.0134934984430020e-01  2.0109623071308799e-01  2.0077811075753482e-01  2.0040090552479495e-01  1.9997202794199043e-01  1.9950044153615853e-01  1.9899667411602043e-01  1.9847276662998056e-01  1.9794212919347473e-01  1.9741927221527228e-01  1.9691934465515626e-01  1.9645720206351941e-01  1.9604448055258539e-01  1.9567693646663978e-01  1.9527544885623949e-01  1.9445160507113296e-01  1.9220178898245519e-01  2.3879934404788788e-01  2.3892028519840958e-01  1.9305947001297530e-01  1.9583792736186401e-01  1.9680370708704287e-01  1.9722955507371809e-01  1.9759334865780001e-01  1.9799380601749439e-01  1.9843902814358017e-01  1.9891828329193631e-01  1.9941727835540757e-01  1.9992155100543624e-01  2.0041745387002730e-01  2.0089257542754033e-01  2.0133594743271724e-01  2.0173812430659832e-01  2.0209117518147540e-01  2.0238862029911087e-01  2.0262533843205888e-01  2.0279746672912244e-01  2.0290230894983385e-01  2.0293826292386316e-01  2.0290477478748306e-01  2.0280232360654707e-01  2.0263243804903361e-01  2.0239774377078304e-01  2.0210203795115028e-01  2.0175038385213734e-01  2.0134921439244816e-01  2.0090642863370733e-01  2.0043145933420575e-01  1.9993528437132296e-01  1.9943034860571376e-01  1.9893035391340094e-01  1.9844982201328182e-01  1.9800305210025793e-01  1.9760047016770174e-01  1.9723236120439680e-01  1.9679313660251643e-01  1.9578108784852330e-01  1.9290349441920274e-01  2.3887096082806247e-01  2.3901798087314816e-01  1.9394445173844016e-01  1.9746422251685192e-01  1.9864902515072647e-01  1.9911630238246711e-01  1.9947661721248433e-01  1.9985992553788079e-01  2.0028104085652465e-01  2.0073096349405695e-01  2.0119637034876067e-01  2.0166383230934110e-01  2.0212090689573600e-01  2.0255651537450461e-01  2.0296107548802444e-01  2.0332650626818899e-01  2.0364615577746212e-01  2.0391468708612220e-01  2.0412794902058090e-01  2.0428285141343194e-01  2.0437725793870043e-01  2.0440990474401813e-01  2.0438035003487570e-01  2.0428895697947375e-01  2.0413691082821836e-01  2.0392626976436615e-01  2.0366004729323325e-01  2.0334232161275984e-01  2.0297836372780048e-01  2.0257477121709799e-01  2.0213958783383640e-01  2.0168238168684116e-01  2.0121424489857107e-01  2.0074766134693139e-01  2.0029611276034082e-01  1.9987291485739542e-01  1.9948667727462993e-01  1.9912060505718465e-01  1.9863651345013716e-01  1.9739555100456746e-01  1.9375577678166184e-01  2.3895812636424613e-01  2.3913672733164615e-01  1.9501885070281816e-01  1.9943916999563424e-01  2.0089066989743987e-01  2.0140658035129783e-01  2.0175835396277109e-01  2.0211467410657713e-01  2.0249919022518742e-01  2.0290554689893600e-01  2.0332206644796783e-01  2.0373697618461753e-01  2.0413961584858026e-01  2.0452074845470303e-01  2.0487260145619998e-01  2.0518879180572808e-01  2.0546419425285911e-01  2.0569478856313869e-01  2.0587750854923459e-01  2.0601010792608643e-01  2.0609105128204322e-01  2.0611943430450397e-01  2.0609493510307170e-01  2.0601779731123920e-01  2.0588884517453496e-01  2.0570953083306487e-01  2.0548201345743741e-01  2.0520926912963999e-01  2.0489522745813810e-01  2.0454492702909743e-01  2.0416467511427233e-01  2.0376218803287616e-01  2.0334667514653948e-01  2.0292880360539917e-01  2.0252037246928092e-01  2.0213302006556347e-01  2.0177259465779376e-01  2.0141300725959305e-01  2.0087575262839841e-01  1.9935599393273146e-01  1.9479046964627666e-01  2.3906408590053804e-01  2.3928125143987083e-01  1.9632508262339479e-01  2.0184149736430859e-01  2.0361867269779002e-01  2.0419130788277617e-01  2.0452625724434709e-01  2.0484058106010106e-01  2.0516978181494397e-01  2.0551159142813857e-01  2.0585706228159012e-01  2.0619702988743491e-01  2.0652343988314542e-01  2.0682957008152653e-01  2.0710997186543381e-01  2.0736032524823916e-01  2.0757727004668680e-01  2.0775824243630966e-01  2.0790133136573938e-01  2.0800516113339010e-01  2.0806880189980823e-01  2.0809170696476717e-01  2.0807367519159325e-01  2.0801483717969615e-01  2.0791566481366491e-01  2.0777700495428580e-01  2.0760013894506377e-01  2.0738687036020917e-01  2.0713964252617609e-01  2.0686168516570647e-01  2.0655718454998853e-01  2.0623146319804525e-01  2.0589113940492493e-01  2.0554419980394739e-01  2.0519976776716931e-01  2.0486667882559517e-01  2.0454651983156749e-01  2.0420076733112069e-01  2.0360068197745251e-01  2.0174028813498629e-01  1.9604805036163872e-01  2.3919295392364395e-01  2.3945760732883967e-01  1.9791758899177517e-01  2.0477271180244500e-01  2.0694946199963959e-01  2.0758775655701717e-01  2.0789249435395685e-01  2.0814183238613260e-01  2.0838755481437174e-01  2.0863380062202388e-01  2.0887608897859711e-01  2.0910929944400136e-01  2.0932913195966288e-01  2.0953223327517273e-01  2.0971605873063853e-01  2.0987870021591315e-01  2.1001873438409446e-01  2.1013510324916929e-01  2.1022702688700776e-01  2.1029394309870747e-01  2.1033546780530049e-01  2.1035137033967180e-01  2.1034155907523239e-01  2.1030607456364833e-01  2.1024508920821813e-01  2.1015891451335525e-01  2.1004801900348105e-01  2.0991306174689164e-01  2.0975494827900804e-01  2.0957491637610909e-01  2.0937465851533918e-01  2.0915648414409671e-01  2.0892350972930232e-01  2.0867982052087256e-01  2.0843034674859529e-01  2.0817929862668372e-01  2.0792157362298364e-01  2.0760160459253532e-01  2.0692741725432390e-01  2.0464872446950377e-01  1.9758037609238854e-01  2.3934997942384792e-01  2.3967361158900824e-01  1.9986691631748082e-01  2.0836515974217409e-01  2.1103544830492066e-01  2.1174895678961317e-01  2.1200189391040516e-01  2.1215075946559175e-01  2.1227035488928825e-01  2.1237501156045577e-01  2.1246748309177871e-01  2.1254881800405831e-01  2.1262001068495989e-01  2.1268208403337607e-01  2.1273596031981323e-01  2.1278237077127979e-01  2.1282182815142447e-01  2.1285464519236291e-01  2.1288097819182383e-01  2.1290087937458144e-01  2.1291434616853824e-01  2.1292135961203659e-01  2.1292190718486023e-01  2.1291598732862593e-01  2.1290359478598281e-01  2.1288468704249788e-01  2.1285913447322852e-01  2.1282665890275410e-01  2.1278676887939676e-01  2.1273870484628643e-01  2.1268141381817518e-01  2.1261357840487746e-01  2.1253372072002857e-01  2.1244036448973375e-01  2.1233196839634971e-01  2.1220516307137016e-01  2.1204414845592956e-01  2.1176929702779826e-01  2.1100788922681116e-01  2.0821187936416449e-01  1.9945449445325980e-01  2.3954190943416626e-01  2.3993944188730637e-01  2.0226548199207178e-01  2.1279368843121937e-01  2.1607908053381181e-01  2.1687736878355962e-01  2.1704348089161182e-01  2.1703648729751882e-01  2.1696484540292496e-01  2.1685933444991429e-01  2.1673430554140599e-01  2.1660001785241520e-01  2.1646468653750781e-01  2.1633473081965060e-01  2.1621488909695175e-01  2.1610843542732477e-01  2.1601746516342429e-01  2.1594319498133072e-01  2.1588623935581466e-01  2.1584684361782572e-01  2.1582506495177051e-01  2.1582089918126163e-01  2.1583435399338158e-01  2.1586546916040136e-01  2.1591428391340470e-01  2.1598074998739317e-01  2.1606458828864814e-01  2.1616508794367875e-01  2.1628084886617066e-01  2.1640947736814381e-01  2.1654725770676791e-01  2.1668884173699721e-01  2.1682702599764747e-01  2.1695265657493068e-01  2.1705438337277896e-01  2.1711652140417101e-01  2.1710588598815356e-01  2.1690763908286065e-01  2.1604384413268068e-01  2.1260195940361371e-01  2.0175800139201525e-01  2.3977748901860818e-01  2.4026845516589335e-01  2.0523577655445613e-01  2.1829287630671546e-01  2.2235396458684314e-01  2.2324513308989175e-01  2.2326682356552849e-01  2.2301627414564071e-01  2.2265306465364185e-01  2.2223483090064400e-01  2.2179424069100578e-01  2.2135485611630795e-01  2.2093420029485006e-01  2.2054474272421745e-01  2.2019477219317515e-01  2.1988932956854534e-01  2.1963110152504775e-01  2.1942119715295760e-01  2.1925977671163052e-01  2.1914653312296459e-01  2.1908103989626737e-01  2.1906298310313352e-01  2.1909229218239079e-01  2.1916917852138401e-01  2.1929408440129675e-01  2.1946753735923288e-01  2.1968989784724841e-01  2.1996098297548983e-01  2.2027954541988329e-01  2.2064259193766417e-01  2.2104453904765609e-01  2.2147624331967994e-01  2.2192400030350046e-01  2.2236860464889877e-01  2.2278434170158656e-01  2.2313583000334219e-01  2.2336105964553826e-01  2.2329134279244348e-01  2.2230784839461848e-01  2.1804948287296699e-01  2.0460668873575055e-01  2.4006815318420885e-01  2.4067822940998884e-01  2.0894219954866253e-01  2.2518318974037241e-01  2.3023747812716761e-01  2.3122463774836560e-01  2.3100515003380659e-01  2.3036976725102398e-01  2.2955892034673631e-01  2.2867433650916730e-01  2.2777685404890091e-01  2.2690818439432345e-01  2.2609665195417256e-01  2.2536022915581830e-01  2.2470914127781860e-01  2.2414816973458723e-01  2.2367855169292600e-01  2.2329945109765212e-01  2.2300904372421071e-01  2.2280528549608325e-01  2.2268643339609284e-01  2.2265137610537353e-01  2.2269981535532762e-01  2.2283232138889808e-01  2.2305026925718485e-01  2.2335564561853871e-01  2.2375069793053204e-01  2.2423737974843022e-01  2.2481652779781597e-01  2.2548669297466420e-01  2.2624254435248528e-01  2.2707280753756839e-01  2.2795774012111428e-01  2.2886628751865842e-01  2.2975286849316640e-01  2.3055105271966281e-01  2.3115058574859018e-01  2.3129729957445930e-01  2.3017613643187576e-01  2.2486890706373186e-01  2.0815550585941783e-01  2.4042893944214647e-01  2.4119197407623472e-01  2.1360871369490070e-01  2.3391169700561409e-01  2.4026291858098375e-01  2.4133534186325564e-01  2.4070730819526814e-01  2.3945512870779101e-01  2.3795201747567857e-01  2.363715568