<?xml version="1.0"?>
<VTKFile type="UnstructuredGrid"  version="0.1"  >
<UnstructuredGrid>
<Piece  NumberOfPoints="1681" NumberOfCells="3200">
<Points>
<DataArray  type="Float64"  NumberOfComponents="3"  format="ascii">0 0 0  0.025 0 0  0.05 0 0  0.075 0 0  0.1 0 0  0.125 0 0  0.15 0 0  0.175 0 0  0.2 0 0  0.225 0 0  0.25 0 0  0.275 0 0  0.3 0 0  0.325 0 0  0.35 0 0  0.375 0 0  0.4 0 0  0.425 0 0  0.45 0 0  0.475 0 0  0.5 0 0  0.525 0 0  0.55 0 0  0.575 0 0  0.6 0 0  0.625 0 0  0.65 0 0  0.675 0 0  0.7 0 0  0.725 0 0  0.75 0 0  0.775 0 0  0.8 0 0  0.825 0 0  0.85 0 0  0.875 0 0  0.9 0 0  0.925 0 0  0.95 0 0  0.975 0 0  1 0 0  0 0.025 0  0.025 0.025 0  0.05 0.025 0  0.075 0.025 0  0.1 0.025 0  0.125 0.025 0  0.15 0.025 0  0.175 0.025 0  0.2 0.025 0  0.225 0.025 0  0.25 0.025 0  0.275 0.025 0  0.3 0.025 0  0.325 0.025 0  0.35 0.025 0  0.375 0.025 0  0.4 0.025 0  0.425 0.025 0  0.45 0.025 0  0.475 0.025 0  0.5 0.025 0  0.525 0.025 0  0.55 0.025 0  0.575 0.025 0  0.6 0.025 0  0.625 0.025 0  0.65 0.025 0  0.675 0.025 0  0.7 0.025 0  0.725 0.025 0  0.75 0.025 0  0.775 0.025 0  0.8 0.025 0  0.825 0.025 0  0.85 0.025 0  0.875 0.025 0  0.9 0.025 0  0.925 0.025 0  0.95 0.025 0  0.975 0.025 0  1 0.025 0  0 0.05 0  0.025 0.05 0  0.05 0.05 0  0.075 0.05 0  0.1 0.05 0  0.125 0.05 0  0.15 0.05 0  0.175 0.05 0  0.2 0.05 0  0.225 0.05 0  0.25 0.05 0  0.275 0.05 0  0.3 0.05 0  0.325 0.05 0  0.35 0.05 0  0.375 0.05 0  0.4 0.05 0  0.425 0.05 0  0.45 0.05 0  0.475 0.05 0  0.5 0.05 0  0.525 0.05 0  0.55 0.05 0  0.575 0.05 0  0.6 0.05 0  0.625 0.05 0  0.65 0.05 0  0.675 0.05 0  0.7 0.05 0  0.725 0.05 0  0.75 0.05 0  0.775 0.05 0  0.8 0.05 0  0.825 0.05 0  0.85 0.05 0  0.875 0.05 0  0.9 0.05 0  0.925 0.05 0  0.95 0.05 0  0.975 0.05 0  1 0.05 0  0 0.075 0  0.025 0.075 0  0.05 0.075 0  0.075 0.075 0  0.1 0.075 0  0.125 0.075 0  0.15 0.075 0  0.175 0.075 0  0.2 0.075 0  0.225 0.075 0  0.25 0.075 0  0.275 0.075 0  0.3 0.075 0  0.325 0.075 0  0.35 0.075 0  0.375 0.075 0  0.4 0.075 0  0.425 0.075 0  0.45 0.075 0  0.475 0.075 0  0.5 0.075 0  0.525 0.075 0  0.55 0.075 0  0.575 0.075 0  0.6 0.075 0  0.625 0.075 0  0.65 0.075 0  0.675 0.075 0  0.7 0.075 0  0.725 0.075 0  0.75 0.075 0  0.775 0.075 0  0.8 0.075 0  0.825 0.075 0  0.85 0.075 0  0.875 0.075 0  0.9 0.075 0  0.925 0.075 0  0.95 0.075 0  0.975 0.075 0  1 0.075 0  0 0.1 0  0.025 0.1 0  0.05 0.1 0  0.075 0.1 0  0.1 0.1 0  0.125 0.1 0  0.15 0.1 0  0.175 0.1 0  0.2 0.1 0  0.225 0.1 0  0.25 0.1 0  0.275 0.1 0  0.3 0.1 0  0.325 0.1 0  0.35 0.1 0  0.375 0.1 0  0.4 0.1 0  0.425 0.1 0  0.45 0.1 0  0.475 0.1 0  0.5 0.1 0  0.525 0.1 0  0.55 0.1 0  0.575 0.1 0  0.6 0.1 0  0.625 0.1 0  0.65 0.1 0  0.675 0.1 0  0.7 0.1 0  0.725 0.1 0  0.75 0.1 0  0.775 0.1 0  0.8 0.1 0  0.825 0.1 0  0.85 0.1 0  0.875 0.1 0  0.9 0.1 0  0.925 0.1 0  0.95 0.1 0  0.975 0.1 0  1 0.1 0  0 0.125 0  0.025 0.125 0  0.05 0.125 0  0.075 0.125 0  0.1 0.125 0  0.125 0.125 0  0.15 0.125 0  0.175 0.125 0  0.2 0.125 0  0.225 0.125 0  0.25 0.125 0  0.275 0.125 0  0.3 0.125 0  0.325 0.125 0  0.35 0.125 0  0.375 0.125 0  0.4 0.125 0  0.425 0.125 0  0.45 0.125 0  0.475 0.125 0  0.5 0.125 0  0.525 0.125 0  0.55 0.125 0  0.575 0.125 0  0.6 0.125 0  0.625 0.125 0  0.65 0.125 0  0.675 0.125 0  0.7 0.125 0  0.725 0.125 0  0.75 0.125 0  0.775 0.125 0  0.8 0.125 0  0.825 0.125 0  0.85 0.125 0  0.875 0.125 0  0.9 0.125 0  0.925 0.125 0  0.95 0.125 0  0.975 0.125 0  1 0.125 0  0 0.15 0  0.025 0.15 0  0.05 0.15 0  0.075 0.15 0  0.1 0.15 0  0.125 0.15 0  0.15 0.15 0  0.175 0.15 0  0.2 0.15 0  0.225 0.15 0  0.25 0.15 0  0.275 0.15 0  0.3 0.15 0  0.325 0.15 0  0.35 0.15 0  0.375 0.15 0  0.4 0.15 0  0.425 0.15 0  0.45 0.15 0  0.475 0.15 0  0.5 0.15 0  0.525 0.15 0  0.55 0.15 0  0.575 0.15 0  0.6 0.15 0  0.625 0.15 0  0.65 0.15 0  0.675 0.15 0  0.7 0.15 0  0.725 0.15 0  0.75 0.15 0  0.775 0.15 0  0.8 0.15 0  0.825 0.15 0  0.85 0.15 0  0.875 0.15 0  0.9 0.15 0  0.925 0.15 0  0.95 0.15 0  0.975 0.15 0  1 0.15 0  0 0.175 0  0.025 0.175 0  0.05 0.175 0  0.075 0.175 0  0.1 0.175 0  0.125 0.175 0  0.15 0.175 0  0.175 0.175 0  0.2 0.175 0  0.225 0.175 0  0.25 0.175 0  0.275 0.175 0  0.3 0.175 0  0.325 0.175 0  0.35 0.175 0  0.375 0.175 0  0.4 0.175 0  0.425 0.175 0  0.45 0.175 0  0.475 0.175 0  0.5 0.175 0  0.525 0.175 0  0.55 0.175 0  0.575 0.175 0  0.6 0.175 0  0.625 0.175 0  0.65 0.175 0  0.675 0.175 0  0.7 0.175 0  0.725 0.175 0  0.75 0.175 0  0.775 0.175 0  0.8 0.175 0  0.825 0.175 0  0.85 0.175 0  0.875 0.175 0  0.9 0.175 0  0.925 0.175 0  0.95 0.175 0  0.975 0.175 0  1 0.175 0  0 0.2 0  0.025 0.2 0  0.05 0.2 0  0.075 0.2 0  0.1 0.2 0  0.125 0.2 0  0.15 0.2 0  0.175 0.2 0  0.2 0.2 0  0.225 0.2 0  0.25 0.2 0  0.275 0.2 0  0.3 0.2 0  0.325 0.2 0  0.35 0.2 0  0.375 0.2 0  0.4 0.2 0  0.425 0.2 0  0.45 0.2 0  0.475 0.2 0  0.5 0.2 0  0.525 0.2 0  0.55 0.2 0  0.575 0.2 0  0.6 0.2 0  0.625 0.2 0  0.65 0.2 0  0.675 0.2 0  0.7 0.2 0  0.725 0.2 0  0.75 0.2 0  0.775 0.2 0  0.8 0.2 0  0.825 0.2 0  0.85 0.2 0  0.875 0.2 0  0.9 0.2 0  0.925 0.2 0  0.95 0.2 0  0.975 0.2 0  1 0.2 0  0 0.225 0  0.025 0.225 0  0.05 0.225 0  0.075 0.225 0  0.1 0.225 0  0.125 0.225 0  0.15 0.225 0  0.175 0.225 0  0.2 0.225 0  0.225 0.225 0  0.25 0.225 0  0.275 0.225 0  0.3 0.225 0  0.325 0.225 0  0.35 0.225 0  0.375 0.225 0  0.4 0.225 0  0.425 0.225 0  0.45 0.225 0  0.475 0.225 0  0.5 0.225 0  0.525 0.225 0  0.55 0.225 0  0.575 0.225 0  0.6 0.225 0  0.625 0.225 0  0.65 0.225 0  0.675 0.225 0  0.7 0.225 0  0.725 0.225 0  0.75 0.225 0  0.775 0.225 0  0.8 0.225 0  0.825 0.225 0  0.85 0.225 0  0.875 0.225 0  0.9 0.225 0  0.925 0.225 0  0.95 0.225 0  0.975 0.225 0  1 0.225 0  0 0.25 0  0.025 0.25 0  0.05 0.25 0  0.075 0.25 0  0.1 0.25 0  0.125 0.25 0  0.15 0.25 0  0.175 0.25 0  0.2 0.25 0  0.225 0.25 0  0.25 0.25 0  0.275 0.25 0  0.3 0.25 0  0.325 0.25 0  0.35 0.25 0  0.375 0.25 0  0.4 0.25 0  0.425 0.25 0  0.45 0.25 0  0.475 0.25 0  0.5 0.25 0  0.525 0.25 0  0.55 0.25 0  0.575 0.25 0  0.6 0.25 0  0.625 0.25 0  0.65 0.25 0  0.675 0.25 0  0.7 0.25 0  0.725 0.25 0  0.75 0.25 0  0.775 0.25 0  0.8 0.25 0  0.825 0.25 0  0.85 0.25 0  0.875 0.25 0  0.9 0.25 0  0.925 0.25 0  0.95 0.25 0  0.975 0.25 0  1 0.25 0  0 0.275 0  0.025 0.275 0  0.05 0.275 0  0.075 0.275 0  0.1 0.275 0  0.125 0.275 0  0.15 0.275 0  0.175 0.275 0  0.2 0.275 0  0.225 0.275 0  0.25 0.275 0  0.275 0.275 0  0.3 0.275 0  0.325 0.275 0  0.35 0.275 0  0.375 0.275 0  0.4 0.275 0  0.425 0.275 0  0.45 0.275 0  0.475 0.275 0  0.5 0.275 0  0.525 0.275 0  0.55 0.275 0  0.575 0.275 0  0.6 0.275 0  0.625 0.275 0  0.65 0.275 0  0.675 0.275 0  0.7 0.275 0  0.725 0.275 0  0.75 0.275 0  0.775 0.275 0  0.8 0.275 0  0.825 0.275 0  0.85 0.275 0  0.875 0.275 0  0.9 0.275 0  0.925 0.275 0  0.95 0.275 0  0.975 0.275 0  1 0.275 0  0 0.3 0  0.025 0.3 0  0.05 0.3 0  0.075 0.3 0  0.1 0.3 0  0.125 0.3 0  0.15 0.3 0  0.175 0.3 0  0.2 0.3 0  0.225 0.3 0  0.25 0.3 0  0.275 0.3 0  0.3 0.3 0  0.325 0.3 0  0.35 0.3 0  0.375 0.3 0  0.4 0.3 0  0.425 0.3 0  0.45 0.3 0  0.475 0.3 0  0.5 0.3 0  0.525 0.3 0  0.55 0.3 0  0.575 0.3 0  0.6 0.3 0  0.625 0.3 0  0.65 0.3 0  0.675 0.3 0  0.7 0.3 0  0.725 0.3 0  0.75 0.3 0  0.775 0.3 0  0.8 0.3 0  0.825 0.3 0  0.85 0.3 0  0.875 0.3 0  0.9 0.3 0  0.925 0.3 0  0.95 0.3 0  0.975 0.3 0  1 0.3 0  0 0.325 0  0.025 0.325 0  0.05 0.325 0  0.075 0.325 0  0.1 0.325 0  0.125 0.325 0  0.15 0.325 0  0.175 0.325 0  0.2 0.325 0  0.225 0.325 0  0.25 0.325 0  0.275 0.325 0  0.3 0.325 0  0.325 0.325 0  0.35 0.325 0  0.375 0.325 0  0.4 0.325 0  0.425 0.325 0  0.45 0.325 0  0.475 0.325 0  0.5 0.325 0  0.525 0.325 0  0.55 0.325 0  0.575 0.325 0  0.6 0.325 0  0.625 0.325 0  0.65 0.325 0  0.675 0.325 0  0.7 0.325 0  0.725 0.325 0  0.75 0.325 0  0.775 0.325 0  0.8 0.325 0  0.825 0.325 0  0.85 0.325 0  0.875 0.325 0  0.9 0.325 0  0.925 0.325 0  0.95 0.325 0  0.975 0.325 0  1 0.325 0  0 0.35 0  0.025 0.35 0  0.05 0.35 0  0.075 0.35 0  0.1 0.35 0  0.125 0.35 0  0.15 0.35 0  0.175 0.35 0  0.2 0.35 0  0.225 0.35 0  0.25 0.35 0  0.275 0.35 0  0.3 0.35 0  0.325 0.35 0  0.35 0.35 0  0.375 0.35 0  0.4 0.35 0  0.425 0.35 0  0.45 0.35 0  0.475 0.35 0  0.5 0.35 0  0.525 0.35 0  0.55 0.35 0  0.575 0.35 0  0.6 0.35 0  0.625 0.35 0  0.65 0.35 0  0.675 0.35 0  0.7 0.35 0  0.725 0.35 0  0.75 0.35 0  0.775 0.35 0  0.8 0.35 0  0.825 0.35 0  0.85 0.35 0  0.875 0.35 0  0.9 0.35 0  0.925 0.35 0  0.95 0.35 0  0.975 0.35 0  1 0.35 0  0 0.375 0  0.025 0.375 0  0.05 0.375 0  0.075 0.375 0  0.1 0.375 0  0.125 0.375 0  0.15 0.375 0  0.175 0.375 0  0.2 0.375 0  0.225 0.375 0  0.25 0.375 0  0.275 0.375 0  0.3 0.375 0  0.325 0.375 0  0.35 0.375 0  0.375 0.375 0  0.4 0.375 0  0.425 0.375 0  0.45 0.375 0  0.475 0.375 0  0.5 0.375 0  0.525 0.375 0  0.55 0.375 0  0.575 0.375 0  0.6 0.375 0  0.625 0.375 0  0.65 0.375 0  0.675 0.375 0  0.7 0.375 0  0.725 0.375 0  0.75 0.375 0  0.775 0.375 0  0.8 0.375 0  0.825 0.375 0  0.85 0.375 0  0.875 0.375 0  0.9 0.375 0  0.925 0.375 0  0.95 0.375 0  0.975 0.375 0  1 0.375 0  0 0.4 0  0.025 0.4 0  0.05 0.4 0  0.075 0.4 0  0.1 0.4 0  0.125 0.4 0  0.15 0.4 0  0.175 0.4 0  0.2 0.4 0  0.225 0.4 0  0.25 0.4 0  0.275 0.4 0  0.3 0.4 0  0.325 0.4 0  0.35 0.4 0  0.375 0.4 0  0.4 0.4 0  0.425 0.4 0  0.45 0.4 0  0.475 0.4 0  0.5 0.4 0  0.525 0.4 0  0.55 0.4 0  0.575 0.4 0  0.6 0.4 0  0.625 0.4 0  0.65 0.4 0  0.675 0.4 0  0.7 0.4 0  0.725 0.4 0  0.75 0.4 0  0.775 0.4 0  0.8 0.4 0  0.825 0.4 0  0.85 0.4 0  0.875 0.4 0  0.9 0.4 0  0.925 0.4 0  0.95 0.4 0  0.975 0.4 0  1 0.4 0  0 0.425 0  0.025 0.425 0  0.05 0.425 0  0.075 0.425 0  0.1 0.425 0  0.125 0.425 0  0.15 0.425 0  0.175 0.425 0  0.2 0.425 0  0.225 0.425 0  0.25 0.425 0  0.275 0.425 0  0.3 0.425 0  0.325 0.425 0  0.35 0.425 0  0.375 0.425 0  0.4 0.425 0  0.425 0.425 0  0.45 0.425 0  0.475 0.425 0  0.5 0.425 0  0.525 0.425 0  0.55 0.425 0  0.575 0.425 0  0.6 0.425 0  0.625 0.425 0  0.65 0.425 0  0.675 0.425 0  0.7 0.425 0  0.725 0.425 0  0.75 0.425 0  0.775 0.425 0  0.8 0.425 0  0.825 0.425 0  0.85 0.425 0  0.875 0.425 0  0.9 0.425 0  0.925 0.425 0  0.95 0.425 0  0.975 0.425 0  1 0.425 0  0 0.45 0  0.02
[...]
<PointData  Scalars="ControlVisualisation"> 
<DataArray  type="Float64"  Name="ControlVisualisation"  format="ascii">3.0894228393870136e-06  2.0562844829329313e-06  2.0562803104136469e-06  2.0565014410590667e-06  2.0574300660813279e-06  2.0592461748917365e-06  2.0616581657212624e-06  2.0643469309517149e-06  2.0670594399997687e-06  2.0695558778316178e-06  2.0716563176217030e-06  2.0732907887868315e-06  2.0744870899771858e-06  2.0753234184931581e-06  2.0758884528485385e-06  2.0762600206089529e-06  2.0764981288572866e-06  2.0766453682642107e-06  2.0767299368349446e-06  2.0767688518126383e-06  2.0767703659910774e-06  2.0767352897441154e-06  2.0766571696749128e-06  2.0765213373925699e-06  2.0763028898703108e-06  2.0759638607104140e-06  2.0754503776930294e-06  2.0746919373416559e-06  2.0736061466081485e-06  2.0721171228153705e-06  2.0701870653744916e-06  2.0678578000032259e-06  2.0653080112128271e-06  2.0627124019517620e-06  2.0602071444650709e-06  2.0580879776490531e-06  2.0567813996704671e-06  2.0563251136885790e-06  2.0562803269055923e-06  2.0562839898480896e-06  6.1888222881789005e-06  2.0563154143774009e-06  1.0231717655820823e-06  1.0232028938777788e-06  1.0234922983258731e-06  1.0245493038316575e-06  1.0265010441712885e-06  1.0291388450841049e-06  1.0322202827263853e-06  1.0354347502579363e-06  1.0384601709459808e-06  1.0410400890890667e-06  1.0430687728749855e-06  1.0445672124309712e-06  1.0456241559783199e-06  1.0463449083265036e-06  1.0468237651411553e-06  1.0471343645719262e-06  1.0473295560269706e-06  1.0474448091784435e-06  1.0475020640653977e-06  1.0475127438255569e-06  1.0474795342601598e-06  1.0473968632906162e-06  1.0472500896899170e-06  1.0470134318787061e-06  1.0466468097778178e-06  1.0460922430225056e-06  1.0452716554079628e-06  1.0440896437742064e-06  1.0424504577344575e-06  1.0402877371780498e-06  1.0376350014072454e-06  1.0346548305005432e-06  1.0315426274078414e-06  1.0286907460101109e-06  1.0261034461847803e-06  1.0242253534904435e-06  1.0233692544047387e-06  1.0231749541623597e-06  1.0231570965357026e-06  2.0562877749595706e-06  2.0567506502168661e-06  1.0234625158574314e-06  1.0236924341460722e-06  1.0246502842141638e-06  1.0271411972988268e-06  1.0303658280895172e-06  1.0362468150566047e-06  1.0446133538937476e-06  1.0546826306136293e-06  1.0647827797921662e-06  1.0737916628692767e-06  1.0811999271862060e-06  1.0869756460745102e-06  1.0913177761341600e-06  1.0944981258508140e-06  1.0967770921336747e-06  1.0983702961841240e-06  1.0994412603063396e-06  1.1001050062720515e-06  1.1004345454616602e-06  1.1004665712889088e-06  1.1002048657225710e-06  1.0996209518908710e-06  1.0986520073687499e-06  1.0971964572603735e-06  1.0951084553080896e-06  1.0921940645087752e-06  1.0882153307156494e-06  1.0829136310268268e-06  1.0760753710959583e-06  1.0676460507530618e-06  1.0580151669560127e-06  1.0480321242408219e-06  1.0394632076720218e-06  1.0341544326465886e-06  1.0297224142488979e-06  1.0261920992134142e-06  1.0242482937662709e-06  1.0236289858547084e-06  1.0233872027780753e-06  2.0563949853393496e-06  2.0603534746602120e-06  1.0255809092289044e-06  1.0269377077901663e-06  1.0398037840415041e-06  1.0943958745718285e-06  1.1592034161440756e-06  1.2197081424108322e-06  1.3288559961604239e-06  1.4702573581242937e-06  1.6371465988178442e-06  1.8144219528258704e-06  1.9892680995190501e-06  2.1507497120850556e-06  2.2918085338325704e-06  2.4092210456020746e-06  2.5028468674930044e-06  2.5744485578341319e-06  2.6265916071452798e-06  2.6618338042819966e-06  2.6822276730045378e-06  2.6890589047334494e-06  2.6827313798267827e-06  2.6627369968544376e-06  2.6276894992521765e-06  2.5754446572092536e-06  2.5033708082465963e-06  2.4088586860609082e-06  2.2901471026710414e-06  2.1474353358423547e-06  1.9840959349607671e-06  1.8073428559249890e-06  1.6289787746383495e-06  1.4616898265210977e-06  1.3253286564858615e-06  1.2218267780343261e-06  1.1064900616332632e-06  1.0441835171723402e-06  1.0277513397534048e-06  1.0260484403493106e-06  1.0252395499599199e-06  2.0572655243272144e-06  2.0793896677044797e-06  1.0469904031533423e-06  1.1088559668679684e-06  1.2736479844377515e-06  1.9949267679402756e-06  2.1500430915788072e-05  1.2338539320824146e-01  2.3025221954270003e-01  3.2982328258584526e-01  4.0967111312088605e-01  4.7234008727645782e-01  5.1974982802009584e-01  5.5495151261749809e-01  5.8071011794350558e-01  5.9935838577475919e-01  6.1271561494988624e-01  6.2214188566140327e-01  6.2861669452201185e-01  6.3281627409849095e-01  6.3517645292208968e-01  6.3593734203765095e-01  6.3516943822034522e-01  6.3278197318908047e-01  6.2851395849812697e-01  6.2190754727511710e-01  6.1226308412701314e-01  5.9857619797376116e-01  5.7946107794907364e-01  5.5307257348733896e-01  5.1705905691889664e-01  4.6859124071328712e-01  4.0468953032351196e-01  3.2249125745469298e-01  2.2221217375803434e-01  1.0429462063077105e-01  1.2564275968467454e-05  2.1201037581516343e-06  1.2799167946471261e-06  1.0498470669447782e-06  1.0360080321542617e-06  2.0630311067392365e-06  2.2892620063594938e-06  1.1575974421844005e-06  3.1945190762247342e-06  3.0345529075423316e-01  6.6631825743227424e-01  9.9991283921441854e-01  9.9999574755266107e-01  9.9999748940509303e-01  9.9999804085214350e-01  9.9999829495089276e-01  9.9999843982899572e-01  9.9999852930032462e-01  9.9999858757151616e-01  9.9999862656847660e-01  9.9999865307640046e-01  9.9999867120204500e-01  9.9999868353851007e-01  9.9999869174636458e-01  9.9999869687642096e-01  9.9999869955657994e-01  9.9999870009914671e-01  9.9999869855460621e-01  9.9999869472360792e-01  9.9999868812982684e-01  9.9999867794827269e-01  9.9999866287320727e-01  9.9999864089213741e-01  9.9999860889514858e-01  9.9999856196172521e-01  9.9999849193474888e-01  9.9999838421731102e-01  9.9999820929161576e-01  9.9999789596005062e-01  9.9999721022303634e-01  9.9999477801717307e-01  9.8644091855632043e-01  6.5751597571109066e-01  2.4704182110270825e-01  3.8746505949675764e-06  1.1687650032576460e-06  2.2030501642026367e-06  3.2460720872375379e-06  2.2623943018737447e-01  9.9999559035158236e-01  9.9999886995087062e-01  9.9999925491381625e-01  9.9999936502462672e-01  9.9999942872636849e-01  9.9999947617224783e-01  9.9999950183567399e-01  9.9999951703402656e-01  9.9999952686925253e-01  9.9999953354620597e-01  9.9999953822370813e-01  9.9999954153663151e-01  9.9999954388912937e-01  9.9999954555319337e-01  9.9999954671796876e-01  9.9999954751437525e-01  9.9999954803036439e-01  9.9999954832116777e-01  9.9999954841618122e-01  9.9999954832307070e-01  9.9999954802937197e-01  9.9999954750172371e-01  9.9999954668275948e-01  9.9999954548551628e-01  9.9999954378480371e-01  9.9999954140376313e-01  9.9999953809040143e-01  9.9999953346959503e-01  9.9999952693261396e-01  9.9999951737124615e-01  9.9999950253466796e-01  9.9999947748015827e-01  9.9999943103280564e-01  9.9999933789138529e-01  9.9999916291822466e-01  9.9999867595369163e-01  9.9999408383627586e-01  1.0482006028176553e-01  2.3744950621153608e-06  9.9999924853586530e-01  9.9999962239153140e-01  9.9999972302231088e-01  9.9999974235969080e-01  9.9999975655137052e-01  9.9999976022639780e-01  9.9999975952161846e-01  9.9999975685006948e-01  9.9999975347301251e-01  9.9999975021783616e-01  9.9999974747706044e-01  9.9999974533960212e-01  9.9999974375228540e-01  9.9999974260536773e-01  9.9999974179187912e-01  9.9999974122286184e-01  9.9999974083132193e-01  9.9999974056916707e-01  9.9999974040324757e-01  9.9999974031195049e-01  9.9999974028286909e-01  9.9999974031154004e-01  9.9999974040117767e-01  9.9999974056339225e-01  9.9999974081998311e-01  9.9999974120595636e-01  9.9999974177383477e-01  9.9999974259886326e-01  9.9999974378345147e-01  9.9999974545639869e-01  9.9999974775765599e-01  9.9999975079318137e-01  9.9999975454347956e-01  9.9999975873224578e-01  9.9999976271235835e-01  9.9999976534924528e-01  9.9999976432005155e-01  9.9999975371943473e-01  9.9999971613709482e-01  9.9999961944101223e-01  9.9999720545123993e-01  9.9999986670579921e-01  9.9999991951413592e-01  9.9999990861644772e-01  9.9999989414675461e-01  9.9999987917876354e-01  9.9999986514608297e-01  9.9999985288529147e-01  9.9999984263258113e-01  9.9999983429975725e-01  9.9999982770686113e-01  9.9999982262448261e-01  9.9999981880052213e-01  9.9999981598081267e-01  9.9999981393473059e-01  9.9999981246989933e-01  9.9999981143460193e-01  9.9999981071482891e-01  9.9999981022804185e-01  9.9999980991694981e-01  9.9999980974426850e-01  9.9999980968897728e-01  9.9999980974413771e-01  9.9999980991625226e-01  9.9999981022615270e-01  9.9999981071147293e-01  9.9999981143077876e-01  9.9999981246933434e-01  9.9999981394614390e-01  9.9999981602116006e-01  9.9999981890030520e-01  9.9999982283450406e-01  9.9999982810820154e-01  9.9999983501584055e-01  9.9999984382972140e-01  9.9999985476081132e-01  9.9999986786453521e-01  9.9999988280764540e-01  9.9999989857883409e-01  9.9999991329245963e-01  9.9999992425385364e-01  9.9999980290745738e-01  9.9999993099865414e-01  9.9999996313639450e-01  9.9999995143302989e-01  9.9999993578931301e-01  9.9999991883357631e-01  9.9999990252201210e-01  9.9999988811616047e-01  9.9999987609757568e-01  9.9999986645058758e-01  9.9999985891859000e-01  9.9999985316546447e-01  9.9999984885278159e-01  9.9999984567152123e-01  9.9999984335747805e-01  9.9999984169525102e-01  9.9999984051649560e-01  9.9999983969446182e-01  9.9999983913702239e-01  9.9999983877999121e-01  9.9999983858153230e-01  9.9999983851810903e-01  9.9999983858207242e-01  9.9999983878089360e-01  9.9999983913803780e-01  9.9999983969550443e-01  9.9999984051805502e-01  9.9999984169905243e-01  9.9999984336756498e-01  9.9999984569586198e-01  9.9999984890579052e-01  9.9999985327161689e-01  9.9999985911609290e-01  9.9999986679469088e-01  9.9999987665577494e-01  9.9999988895190683e-01  9.9999990365644587e-01  9.9999992020361306e-01  9.9999993726676994e-01  9.9999995274616493e-01  9.9999996398013524e-01  9.9999992005559801e-01  9.9999994034066675e-01  9.9999997126317730e-01  9.9999996072009811e-01  9.9999994592182972e-01  9.9999992918754244e-01  9.9999991267715693e-01  9.9999989786201893e-01  9.9999988540369611e-01  9.9999987538409085e-01  9.9999986756759529e-01  9.9999986160477194e-01  9.9999985713663597e-01  9.9999985383868351e-01  9.9999985143627046e-01  9.9999984970716327e-01  9.9999984847828649e-01  9.9999984761936056e-01  9.9999984703565314e-01  9.9999984666112096e-01  9.9999984645272311e-01  9.9999984638628081e-01  9.9999984645398909e-01  9.9999984666358532e-01  9.9999984703916722e-01  9.9999984762367122e-01  9.9999984848300172e-01  9.9999984971171751e-01  9.9999985143990555e-01  9.9999985384047496e-01  9.9999985713560380e-01  9.9999986160012477e-01  9.9999986755909942e-01  9.9999987537246382e-01  9.9999988539079343e-01  9.9999989785039978e-01  9.9999991266896071e-01  9.9999992918336456e-01  9.9999994592057606e-01  9.9999996072008412e-01  9.9999997126335438e-01  9.9999994034077588e-01  9.9999992005520300e-01  9.9999996397777846e-01  9.9999995273352671e-01  9.9999993722762082e-01  9.9999992011708283e-01  9.9999990350419143e-01  9.9999988872271450e-01  9.9999987634455001e-01  9.9999986639900729e-01  9.9999985863445429e-01  9.9999985270396230e-01  9.9999984825451871e-01  9.9999984496616678e-01  9.9999984256699437e-01  9.9999984083671689e-01  9.9999983960385397e-01  9.9999983873955334e-01  9.9999983815033111e-01  9.9999983777116064e-01  9.9999983755976662e-01  9.9999983749247257e-01  9.9999983756169353e-01  9.9999983777506474e-01  9.9999983815618065e-01  9.9999983874694964e-01  9.9999983961154770e-01  9.9999984084186833e-01  9.9999984256403429e-01  9.9999984494520777e-01  9.9999984819902465e-01  9.9999985258758528e-01  9.9999985841810979e-01  9.9999986602850810e-01  9.9999987575607052e-01  9.9999988785853511e-01  9.9999990234875447e-01  9.9999991873569694e-01  9.9999993574646728e-01  9.9999995142012799e-01  9.9999996313427220e-01  9.9999993099816520e-01  9.9999980291441504e-01  9.9999992425130146e-01  9.9999991325099935e-01  9.9999989844317561e-01  9.9999988252276084e-01  9.9999986739247415e-01  9.9999985408563918e-01  9.9999984294824307e-01  9.9999983392623049e-01  9.9999982680743948e-01  9.9999982132209819e-01  9.9999981718183362e-01  9.9999981410907612e-01  9.9999981185856035e-01  9.9999981022809881e-01  9.9999980905969288e-01  9.9999980823500501e-01  9.9999980766868102e-01  9.9999980730173021e-01  9.9999980709604674e-01  9.9999980703044589e-01  9.9999980709827119e-01  9.9999980730652027e-01  9.9999980767644547e-01  9.9999980824562884e-01  9.9999980907152919e-01  9.9999981023641060e-01  9.9999981185313591e-01  9.9999981407089744e-01  9.9999981707783114e-01  9.9999982109865149e-01  9.9999982638118190e-01  9.9999983317316654e-01  9.9999984170471301e-01  9.9999985216135834e-01  9.9999986463333757e-01  9.9999987886821018e-01  9.9999989400210998e-01  9.9999990857545118e-01  9.9999991951209211e-01  9.9999986670625329e-01  9.9999720583535034e-01  9.9999961953953209e-01  9.9999971599781001e-01  9.9999975312851541e-01  9.9999976324463580e-01  9.9999976378570588e-01  9.9999976068406826e-01  9.9999975625322945e-01  9.9999975160328436e-01  9.9999974737316499e-01  9.9999974385099777e-01  9.9999974107540102e-01  9.9999973895773075e-01  9.9999973737045822e-01  9.9999973619237958e-01  9.9999973532498365e-01  9.9999973469451320e-01  9.9999973424859290e-01  9.9999973395177943e-01  9.9999973378172247e-01  9.9999973372640572e-01  9.9999973378247298e-01  9.9999973395453656e-01  9.9999973425539379e-01  9.9999973470714043e-01  9.9999973534320330e-01  9.9999973621122107e-01  9.9999973737617975e-01  9.9999973892232719e-01  9.9999974094797339e-01  9.9999974354905530e-01  9.9999974676082037e-01  9.9999975047481571e-01  9.9999975428952437e-01  9.9999975739203861e-01  9.9999975856328704e-01  9.9999975539626751e-01  9.9999974173105521e-01  9.9999972280550620e-01  9.9999962259061237e-01  9.9999924875618784e-01  2.3665837136931686e-06  1.0887272147350674e-01  9.9999409302151154e-01  9.9999866903134160e-01  9.9999915666465367e-01  9.9999932946767833e-01  9.9999942092589189e-01  9.9999946673423989e-01  9.9999949077330619e-01  9.9999950437122753e-01  9.9999951261326148e-01  9.9999951784625984e-01  9.9999952123564995e-01  9.9999952342413057e-01  9.9999952480723264e-01  9.9999952564943451e-01  9.9999952613544907e-01  9.9999952639558654e-01  9.9999952652024882e-01  9.9999952656910740e-01  9.9999952657694724e-01  9.9999952655687685e-01  9.9999952650111823e-01  9.9999952637937428e-01  9.9999952613460619e-01  9.9999952567585304e-01  9.9999952486736343e-01  9.9999952351214716e-01  9.9999952132526204e-01  9.9999951788093155e-01  9.9999951250791530e-01  9.9999950398825199e-01  9.9999949001586563e-01  9.9999946534822581e-01  9.9999941874650577e-01  9.9999935674949081e-01  9.9999924771823212e-01  9.9999886328200893e-01  9.9999561429245942e-01  2.2924451527924042e-01  3.2570364580380159e-06  2.1721606357079994e-06  1.1665183785930954e-06  4.1917588451438507e-06  2.4856113838010682e-01  6.5048410428494174e-01  9.7150989282479028e-01  9.9999425811799136e-01  9.9999700400384717e-01  9.9999775206396457e-01  9.9999808450824235e-01  9.9999826600729225e-01  9.9999837522890711e-01  9.9999844433129548e-01  9.9999848912281364e-01  9.9999851842564236e-01  9.9999853757826729e-01  9.9999854997728133e-01  9.9999855784090019e-01  9.9999856262317510e-01  9.9999856525193864e-01  9.9999856626721251e-01  9.9999856589610436e-01  9.9999856408102372e-01  9.9999856046697089e-01  9.9999855434509277e-01  9.9999854453981518e-01  9.9999852921112886e-01  9.9999850551053882e-01  9.9999846895643940e-01  9.9999841216608298e-01  9.9999832215038642e-01  9.9999817241439071e-01  9.9999790323841242e-01  9.9999730365688910e-01  9.9999531639364936e-01  9.9654767871426353e-01  6.5862068946967156e-01  3.0525340039786203e-01  3.3878038140145343e-06  1.1564324780416642e-06  2.2698511560416464e-06  2.0574454440295581e-06  1.0347962652982866e-06  1.0732450927330590e-06  1.3296081970331193e-06  2.1927200444916870e-06  1.2186197470540826e-05  9.6753263494324865e-02  2.0624570717965376e-01  2.9884832638315573e-01  3.7371713482811264e-01  4.3109077510847166e-01  4.7376595264804555e-01  5.0471223228427420e-01  5.2671522563977546e-01  5.4208677130005178e-01  5.5263857167505681e-01  5.5973245838686558e-01  5.6435777061181069e-01  5.6720561999095431e-01  5.6872929676234796e-01  5.6918767347867971e-01  5.6867116391728711e-01  5.6711056412530192e-01  5.6426904803168643e-01  5.5971701632519977e-01  5.5278911841918066e-01  5.4252358561083813e-01  5.2758732327531199e-01  5.0619951321181456e-01  4.7607565765005461e-01  4.3449840633218989e-01  3.7845491690390631e-01  3.0597010042160200e-01  2.1451968329846940e-01  1.1512651547679169e-01  2.0193978659500564e-05  2.0538367013828845e-06  1.3062251046061424e-06  1.1287666590289060e-06  1.0463466855006366e-06  2.0647285088410164e-06  2.0592882640093306e-06  1.0278805976857528e-06  1.0386903908677816e-06  1.0529245504681736e-06  1.0787489541708566e-06  1.1409643424053089e-06  1.2454042831829173e-06  1.3332958420001293e-06  1.4466839440994584e-06  1.5816469832444142e-06  1.7185634104798581e-06  1.8459729881211289e-06  1.9558082315623209e-06  2.0449420895064531e-06  2.1136654684264903e-06  2.1643606369741899e-06  2.2002396091623281e-06  2.2244869058382029e-06  2.2397820977356573e-06  2.2480924640179528e-06  2.2506137939972374e-06  2.2477695669859754e-06  2.2392170071241488e-06  2.2238433012224724e-06  2.1997666207074476e-06  2.1643905983873481e-06  2.1145994827030319e-06  2.0472144216522223e-06  1.9598203524175326e-06  1.8519743044711646e-06  1.7264995462978229e-06  1.5905377248188459e-06  1.4547529842387980e-06  1.3342882268072134e-06  1.2385517303463248e-06  1.1908911504642359e-06  1.1331036377643661e-06  1.0706990032932560e-06  1.0426331545773232e-06  1.0290719318082943e-06  2.0577880979392701e-06  2.0623517999017836e-06  1.0304942676618766e-06  1.0363357960444080e-06  1.0432836201342311e-06  1.0497425168565978e-06  1.0531825815070938e-06  1.0540334911556707e-06  1.0566393116377971e-06  1.0622623279331271e-06  1.0682292855651106e-06  1.0733607662604960e-06  1.0774733541024026e-06  1.0805443386652253e-06  1.0827276586143017e-06  1.0842101371448576e-06  1.0851735529305620e-06  1.0857725779588326e-06  1.0861290826552474e-06  1.0863334893972613e-06  1.0864487712683857e-06  1.0865146209413975e-06  1.0865506153463594e-06  1.0865578504672834e-06  1.0865188519770535e-06  1.0863957200361217e-06  1.0861266043527060e-06  1.0856208916964581e-06  1.0847541479903844e-06  1.0833653328009115e-06  1.0812614577437718e-06  1.0782407409003375e-06  1.0741470440734740e-06  1.0690023207051479e-06  1.0631228786936717e-06  1.0575941799782280e-06  1.0531131279380854e-06  1.0507463359923986e-06  1.0450996809748931e-06  1.0376573602168946e-06  1.0310385704939478e-06  2.0609927805287085e-06  2.0639138130356811e-06  1.0320582316144157e-06  1.0355265387791308e-06  1.0389495999901124e-06  1.0422087316468310e-06  1.0444391341780745e-06  1.0456335369537840e-06  1.0464697530863789e-06  1.0471274775393041e-06  1.0473502401959664e-06  1.0472837113716090e-06  1.0470131870420067e-06  1.0466237227680212e-06  1.0461964176453494e-06  1.0457823112639150e-06  1.0454117887674112e-06  1.0451006278231547e-06  1.0448561020193472e-06  1.0446809757943903e-06  1.0445759839922319e-06  1.0445412624548299e-06  1.0445771007197017e-06  1.0446842283718450e-06  1.0448637144128187e-06  1.0451164366274630e-06  1.0454419447574873e-06  1.0458363770295529e-06  1.0462889031474163e-06  1.0467760505930520e-06  1.0472536134487543e-06  1.0476473753337845e-06  1.0478496081053549e-06  1.0477332133554470e-06  1.0472167059085989e-06  1.0463052352878683e-06  1.0450849784737566e-06  1.0432124914734115e-06  1.0401255007334517e-06  1.0364539383877625e-06  1.0324413685475176e-06  2.0634588021712587e-06  2.0641362238273831e-06  1.0323104005072098e-06  1.0347482652152678e-06  1.0365241609859164e-06  1.0383208003643457e-06  1.0398145932600619e-06  1.0408772539976219e-06  1.0415980151457314e-06  1.042095272