<?xml version="1.0"?>
<VTKFile type="UnstructuredGrid"  version="0.1"  >
<UnstructuredGrid>
<Piece  NumberOfPoints="1681" NumberOfCells="3200">
<Points>
<DataArray  type="Float64"  NumberOfComponents="3"  format="ascii">0 0 0  0.025 0 0  0.05 0 0  0.075 0 0  0.1 0 0  0.125 0 0  0.15 0 0  0.175 0 0  0.2 0 0  0.225 0 0  0.25 0 0  0.275 0 0  0.3 0 0  0.325 0 0  0.35 0 0  0.375 0 0  0.4 0 0  0.425 0 0  0.45 0 0  0.475 0 0  0.5 0 0  0.525 0 0  0.55 0 0  0.575 0 0  0.6 0 0  0.625 0 0  0.65 0 0  0.675 0 0  0.7 0 0  0.725 0 0  0.75 0 0  0.775 0 0  0.8 0 0  0.825 0 0  0.85 0 0  0.875 0 0  0.9 0 0  0.925 0 0  0.95 0 0  0.975 0 0  1 0 0  0 0.025 0  0.025 0.025 0  0.05 0.025 0  0.075 0.025 0  0.1 0.025 0  0.125 0.025 0  0.15 0.025 0  0.175 0.025 0  0.2 0.025 0  0.225 0.025 0  0.25 0.025 0  0.275 0.025 0  0.3 0.025 0  0.325 0.025 0  0.35 0.025 0  0.375 0.025 0  0.4 0.025 0  0.425 0.025 0  0.45 0.025 0  0.475 0.025 0  0.5 0.025 0  0.525 0.025 0  0.55 0.025 0  0.575 0.025 0  0.6 0.025 0  0.625 0.025 0  0.65 0.025 0  0.675 0.025 0  0.7 0.025 0  0.725 0.025 0  0.75 0.025 0  0.775 0.025 0  0.8 0.025 0  0.825 0.025 0  0.85 0.025 0  0.875 0.025 0  0.9 0.025 0  0.925 0.025 0  0.95 0.025 0  0.975 0.025 0  1 0.025 0  0 0.05 0  0.025 0.05 0  0.05 0.05 0  0.075 0.05 0  0.1 0.05 0  0.125 0.05 0  0.15 0.05 0  0.175 0.05 0  0.2 0.05 0  0.225 0.05 0  0.25 0.05 0  0.275 0.05 0  0.3 0.05 0  0.325 0.05 0  0.35 0.05 0  0.375 0.05 0  0.4 0.05 0  0.425 0.05 0  0.45 0.05 0  0.475 0.05 0  0.5 0.05 0  0.525 0.05 0  0.55 0.05 0  0.575 0.05 0  0.6 0.05 0  0.625 0.05 0  0.65 0.05 0  0.675 0.05 0  0.7 0.05 0  0.725 0.05 0  0.75 0.05 0  0.775 0.05 0  0.8 0.05 0  0.825 0.05 0  0.85 0.05 0  0.875 0.05 0  0.9 0.05 0  0.925 0.05 0  0.95 0.05 0  0.975 0.05 0  1 0.05 0  0 0.075 0  0.025 0.075 0  0.05 0.075 0  0.075 0.075 0  0.1 0.075 0  0.125 0.075 0  0.15 0.075 0  0.175 0.075 0  0.2 0.075 0  0.225 0.075 0  0.25 0.075 0  0.275 0.075 0  0.3 0.075 0  0.325 0.075 0  0.35 0.075 0  0.375 0.075 0  0.4 0.075 0  0.425 0.075 0  0.45 0.075 0  0.475 0.075 0  0.5 0.075 0  0.525 0.075 0  0.55 0.075 0  0.575 0.075 0  0.6 0.075 0  0.625 0.075 0  0.65 0.075 0  0.675 0.075 0  0.7 0.075 0  0.725 0.075 0  0.75 0.075 0  0.775 0.075 0  0.8 0.075 0  0.825 0.075 0  0.85 0.075 0  0.875 0.075 0  0.9 0.075 0  0.925 0.075 0  0.95 0.075 0  0.975 0.075 0  1 0.075 0  0 0.1 0  0.025 0.1 0  0.05 0.1 0  0.075 0.1 0  0.1 0.1 0  0.125 0.1 0  0.15 0.1 0  0.175 0.1 0  0.2 0.1 0  0.225 0.1 0  0.25 0.1 0  0.275 0.1 0  0.3 0.1 0  0.325 0.1 0  0.35 0.1 0  0.375 0.1 0  0.4 0.1 0  0.425 0.1 0  0.45 0.1 0  0.475 0.1 0  0.5 0.1 0  0.525 0.1 0  0.55 0.1 0  0.575 0.1 0  0.6 0.1 0  0.625 0.1 0  0.65 0.1 0  0.675 0.1 0  0.7 0.1 0  0.725 0.1 0  0.75 0.1 0  0.775 0.1 0  0.8 0.1 0  0.825 0.1 0  0.85 0.1 0  0.875 0.1 0  0.9 0.1 0  0.925 0.1 0  0.95 0.1 0  0.975 0.1 0  1 0.1 0  0 0.125 0  0.025 0.125 0  0.05 0.125 0  0.075 0.125 0  0.1 0.125 0  0.125 0.125 0  0.15 0.125 0  0.175 0.125 0  0.2 0.125 0  0.225 0.125 0  0.25 0.125 0  0.275 0.125 0  0.3 0.125 0  0.325 0.125 0  0.35 0.125 0  0.375 0.125 0  0.4 0.125 0  0.425 0.125 0  0.45 0.125 0  0.475 0.125 0  0.5 0.125 0  0.525 0.125 0  0.55 0.125 0  0.575 0.125 0  0.6 0.125 0  0.625 0.125 0  0.65 0.125 0  0.675 0.125 0  0.7 0.125 0  0.725 0.125 0  0.75 0.125 0  0.775 0.125 0  0.8 0.125 0  0.825 0.125 0  0.85 0.125 0  0.875 0.125 0  0.9 0.125 0  0.925 0.125 0  0.95 0.125 0  0.975 0.125 0  1 0.125 0  0 0.15 0  0.025 0.15 0  0.05 0.15 0  0.075 0.15 0  0.1 0.15 0  0.125 0.15 0  0.15 0.15 0  0.175 0.15 0  0.2 0.15 0  0.225 0.15 0  0.25 0.15 0  0.275 0.15 0  0.3 0.15 0  0.325 0.15 0  0.35 0.15 0  0.375 0.15 0  0.4 0.15 0  0.425 0.15 0  0.45 0.15 0  0.475 0.15 0  0.5 0.15 0  0.525 0.15 0  0.55 0.15 0  0.575 0.15 0  0.6 0.15 0  0.625 0.15 0  0.65 0.15 0  0.675 0.15 0  0.7 0.15 0  0.725 0.15 0  0.75 0.15 0  0.775 0.15 0  0.8 0.15 0  0.825 0.15 0  0.85 0.15 0  0.875 0.15 0  0.9 0.15 0  0.925 0.15 0  0.95 0.15 0  0.975 0.15 0  1 0.15 0  0 0.175 0  0.025 0.175 0  0.05 0.175 0  0.075 0.175 0  0.1 0.175 0  0.125 0.175 0  0.15 0.175 0  0.175 0.175 0  0.2 0.175 0  0.225 0.175 0  0.25 0.175 0  0.275 0.175 0  0.3 0.175 0  0.325 0.175 0  0.35 0.175 0  0.375 0.175 0  0.4 0.175 0  0.425 0.175 0  0.45 0.175 0  0.475 0.175 0  0.5 0.175 0  0.525 0.175 0  0.55 0.175 0  0.575 0.175 0  0.6 0.175 0  0.625 0.175 0  0.65 0.175 0  0.675 0.175 0  0.7 0.175 0  0.725 0.175 0  0.75 0.175 0  0.775 0.175 0  0.8 0.175 0  0.825 0.175 0  0.85 0.175 0  0.875 0.175 0  0.9 0.175 0  0.925 0.175 0  0.95 0.175 0  0.975 0.175 0  1 0.175 0  0 0.2 0  0.025 0.2 0  0.05 0.2 0  0.075 0.2 0  0.1 0.2 0  0.125 0.2 0  0.15 0.2 0  0.175 0.2 0  0.2 0.2 0  0.225 0.2 0  0.25 0.2 0  0.275 0.2 0  0.3 0.2 0  0.325 0.2 0  0.35 0.2 0  0.375 0.2 0  0.4 0.2 0  0.425 0.2 0  0.45 0.2 0  0.475 0.2 0  0.5 0.2 0  0.525 0.2 0  0.55 0.2 0  0.575 0.2 0  0.6 0.2 0  0.625 0.2 0  0.65 0.2 0  0.675 0.2 0  0.7 0.2 0  0.725 0.2 0  0.75 0.2 0  0.775 0.2 0  0.8 0.2 0  0.825 0.2 0  0.85 0.2 0  0.875 0.2 0  0.9 0.2 0  0.925 0.2 0  0.95 0.2 0  0.975 0.2 0  1 0.2 0  0 0.225 0  0.025 0.225 0  0.05 0.225 0  0.075 0.225 0  0.1 0.225 0  0.125 0.225 0  0.15 0.225 0  0.175 0.225 0  0.2 0.225 0  0.225 0.225 0  0.25 0.225 0  0.275 0.225 0  0.3 0.225 0  0.325 0.225 0  0.35 0.225 0  0.375 0.225 0  0.4 0.225 0  0.425 0.225 0  0.45 0.225 0  0.475 0.225 0  0.5 0.225 0  0.525 0.225 0  0.55 0.225 0  0.575 0.225 0  0.6 0.225 0  0.625 0.225 0  0.65 0.225 0  0.675 0.225 0  0.7 0.225 0  0.725 0.225 0  0.75 0.225 0  0.775 0.225 0  0.8 0.225 0  0.825 0.225 0  0.85 0.225 0  0.875 0.225 0  0.9 0.225 0  0.925 0.225 0  0.95 0.225 0  0.975 0.225 0  1 0.225 0  0 0.25 0  0.025 0.25 0  0.05 0.25 0  0.075 0.25 0  0.1 0.25 0  0.125 0.25 0  0.15 0.25 0  0.175 0.25 0  0.2 0.25 0  0.225 0.25 0  0.25 0.25 0  0.275 0.25 0  0.3 0.25 0  0.325 0.25 0  0.35 0.25 0  0.375 0.25 0  0.4 0.25 0  0.425 0.25 0  0.45 0.25 0  0.475 0.25 0  0.5 0.25 0  0.525 0.25 0  0.55 0.25 0  0.575 0.25 0  0.6 0.25 0  0.625 0.25 0  0.65 0.25 0  0.675 0.25 0  0.7 0.25 0  0.725 0.25 0  0.75 0.25 0  0.775 0.25 0  0.8 0.25 0  0.825 0.25 0  0.85 0.25 0  0.875 0.25 0  0.9 0.25 0  0.925 0.25 0  0.95 0.25 0  0.975 0.25 0  1 0.25 0  0 0.275 0  0.025 0.275 0  0.05 0.275 0  0.075 0.275 0  0.1 0.275 0  0.125 0.275 0  0.15 0.275 0  0.175 0.275 0  0.2 0.275 0  0.225 0.275 0  0.25 0.275 0  0.275 0.275 0  0.3 0.275 0  0.325 0.275 0  0.35 0.275 0  0.375 0.275 0  0.4 0.275 0  0.425 0.275 0  0.45 0.275 0  0.475 0.275 0  0.5 0.275 0  0.525 0.275 0  0.55 0.275 0  0.575 0.275 0  0.6 0.275 0  0.625 0.275 0  0.65 0.275 0  0.675 0.275 0  0.7 0.275 0  0.725 0.275 0  0.75 0.275 0  0.775 0.275 0  0.8 0.275 0  0.825 0.275 0  0.85 0.275 0  0.875 0.275 0  0.9 0.275 0  0.925 0.275 0  0.95 0.275 0  0.975 0.275 0  1 0.275 0  0 0.3 0  0.025 0.3 0  0.05 0.3 0  0.075 0.3 0  0.1 0.3 0  0.125 0.3 0  0.15 0.3 0  0.175 0.3 0  0.2 0.3 0  0.225 0.3 0  0.25 0.3 0  0.275 0.3 0  0.3 0.3 0  0.325 0.3 0  0.35 0.3 0  0.375 0.3 0  0.4 0.3 0  0.425 0.3 0  0.45 0.3 0  0.475 0.3 0  0.5 0.3 0  0.525 0.3 0  0.55 0.3 0  0.575 0.3 0  0.6 0.3 0  0.625 0.3 0  0.65 0.3 0  0.675 0.3 0  0.7 0.3 0  0.725 0.3 0  0.75 0.3 0  0.775 0.3 0  0.8 0.3 0  0.825 0.3 0  0.85 0.3 0  0.875 0.3 0  0.9 0.3 0  0.925 0.3 0  0.95 0.3 0  0.975 0.3 0  1 0.3 0  0 0.325 0  0.025 0.325 0  0.05 0.325 0  0.075 0.325 0  0.1 0.325 0  0.125 0.325 0  0.15 0.325 0  0.175 0.325 0  0.2 0.325 0  0.225 0.325 0  0.25 0.325 0  0.275 0.325 0  0.3 0.325 0  0.325 0.325 0  0.35 0.325 0  0.375 0.325 0  0.4 0.325 0  0.425 0.325 0  0.45 0.325 0  0.475 0.325 0  0.5 0.325 0  0.525 0.325 0  0.55 0.325 0  0.575 0.325 0  0.6 0.325 0  0.625 0.325 0  0.65 0.325 0  0.675 0.325 0  0.7 0.325 0  0.725 0.325 0  0.75 0.325 0  0.775 0.325 0  0.8 0.325 0  0.825 0.325 0  0.85 0.325 0  0.875 0.325 0  0.9 0.325 0  0.925 0.325 0  0.95 0.325 0  0.975 0.325 0  1 0.325 0  0 0.35 0  0.025 0.35 0  0.05 0.35 0  0.075 0.35 0  0.1 0.35 0  0.125 0.35 0  0.15 0.35 0  0.175 0.35 0  0.2 0.35 0  0.225 0.35 0  0.25 0.35 0  0.275 0.35 0  0.3 0.35 0  0.325 0.35 0  0.35 0.35 0  0.375 0.35 0  0.4 0.35 0  0.425 0.35 0  0.45 0.35 0  0.475 0.35 0  0.5 0.35 0  0.525 0.35 0  0.55 0.35 0  0.575 0.35 0  0.6 0.35 0  0.625 0.35 0  0.65 0.35 0  0.675 0.35 0  0.7 0.35 0  0.725 0.35 0  0.75 0.35 0  0.775 0.35 0  0.8 0.35 0  0.825 0.35 0  0.85 0.35 0  0.875 0.35 0  0.9 0.35 0  0.925 0.35 0  0.95 0.35 0  0.975 0.35 0  1 0.35 0  0 0.375 0  0.025 0.375 0  0.05 0.375 0  0.075 0.375 0  0.1 0.375 0  0.125 0.375 0  0.15 0.375 0  0.175 0.375 0  0.2 0.375 0  0.225 0.375 0  0.25 0.375 0  0.275 0.375 0  0.3 0.375 0  0.325 0.375 0  0.35 0.375 0  0.375 0.375 0  0.4 0.375 0  0.425 0.375 0  0.45 0.375 0  0.475 0.375 0  0.5 0.375 0  0.525 0.375 0  0.55 0.375 0  0.575 0.375 0  0.6 0.375 0  0.625 0.375 0  0.65 0.375 0  0.675 0.375 0  0.7 0.375 0  0.725 0.375 0  0.75 0.375 0  0.775 0.375 0  0.8 0.375 0  0.825 0.375 0  0.85 0.375 0  0.875 0.375 0  0.9 0.375 0  0.925 0.375 0  0.95 0.375 0  0.975 0.375 0  1 0.375 0  0 0.4 0  0.025 0.4 0  0.05 0.4 0  0.075 0.4 0  0.1 0.4 0  0.125 0.4 0  0.15 0.4 0  0.175 0.4 0  0.2 0.4 0  0.225 0.4 0  0.25 0.4 0  0.275 0.4 0  0.3 0.4 0  0.325 0.4 0  0.35 0.4 0  0.375 0.4 0  0.4 0.4 0  0.425 0.4 0  0.45 0.4 0  0.475 0.4 0  0.5 0.4 0  0.525 0.4 0  0.55 0.4 0  0.575 0.4 0  0.6 0.4 0  0.625 0.4 0  0.65 0.4 0  0.675 0.4 0  0.7 0.4 0  0.725 0.4 0  0.75 0.4 0  0.775 0.4 0  0.8 0.4 0  0.825 0.4 0  0.85 0.4 0  0.875 0.4 0  0.9 0.4 0  0.925 0.4 0  0.95 0.4 0  0.975 0.4 0  1 0.4 0  0 0.425 0  0.025 0.425 0  0.05 0.425 0  0.075 0.425 0  0.1 0.425 0  0.125 0.425 0  0.15 0.425 0  0.175 0.425 0  0.2 0.425 0  0.225 0.425 0  0.25 0.425 0  0.275 0.425 0  0.3 0.425 0  0.325 0.425 0  0.35 0.425 0  0.375 0.425 0  0.4 0.425 0  0.425 0.425 0  0.45 0.425 0  0.475 0.425 0  0.5 0.425 0  0.525 0.425 0  0.55 0.425 0  0.575 0.425 0  0.6 0.425 0  0.625 0.425 0  0.65 0.425 0  0.675 0.425 0  0.7 0.425 0  0.725 0.425 0  0.75 0.425 0  0.775 0.425 0  0.8 0.425 0  0.825 0.425 0  0.85 0.425 0  0.875 0.425 0  0.9 0.425 0  0.925 0.425 0  0.95 0.425 0  0.975 0.425 0  1 0.425 0  0 0.45 0  0.02
[...]
<PointData  Scalars="ControlVisualisation"> 
<DataArray  type="Float64"  Name="ControlVisualisation"  format="ascii">1.3700597091189422e-02  9.1367194974107009e-03  9.1812286055278376e-03  9.2484248181243546e-03  9.3261220350830225e-03  9.4031091927402471e-03  9.4710967513301474e-03  9.5254939457945567e-03  9.5648207083871110e-03  9.5896592428458688e-03  9.6016945934299658e-03  9.6030364529407393e-03  9.5958153888131663e-03  9.5819773617733771e-03  9.5632010656865069e-03  9.5408833079118904e-03  9.5161580228264424e-03  9.4899292147253463e-03  9.4629073751935511e-03  9.4356442865085426e-03  9.4085640537878157e-03  9.3819897196763015e-03  9.3561655396605815e-03  9.3312753045536913e-03  9.3074571961550417e-03  9.2848156638534463e-03  9.2634307711913083e-03  9.2433654102822421e-03  9.2246707312129660e-03  9.2073900882068960e-03  9.1915617656323622e-03  9.1772207146434796e-03  9.1643995065840353e-03  9.1531286695872259e-03  9.1434366235518209e-03  9.1353491881184280e-03  9.1288894002323831e-03  9.1240740364361105e-03  9.1209330772503271e-03  9.1194127950950284e-03  2.7690723164439754e-02  9.1375958198714399e-03  4.5909894244012591e-03  4.6433203937079849e-03  4.7274107558631989e-03  4.8309423551264009e-03  4.9389419943693703e-03  5.0387128015440142e-03  5.1217991118367757e-03  5.1841046916417718e-03  5.2250031372588716e-03  5.2461215762628971e-03  5.2502607071434771e-03  5.2406189484461557e-03  5.2203152304377814e-03  5.1921397778136851e-03  5.1584552761850394e-03  5.1211864656737901e-03  5.0818556685836413e-03  5.0416378904320734e-03  5.0014204834675554e-03  4.9618596086158546e-03  4.9234300368514814e-03  4.8864672249908630e-03  4.8512018335375596e-03  4.8177874187440330e-03  4.7863222310952063e-03  4.7568660659069078e-03  4.7294530385325120e-03  4.7041010508615888e-03  4.6808186045907887e-03  4.6596095132015961e-03  4.6404759737527501e-03  4.6234203824887868e-03  4.6084462080735848e-03  4.5955582338558240e-03  4.5847621910636996e-03  4.5760645338491918e-03  4.5694712390290625e-03  4.5649839965677137e-03  4.5624275783560601e-03  9.1194129355412212e-03  9.1918790549488510e-03  4.6529581159214170e-03  4.7261905839590321e-03  4.8284074518178399e-03  4.9535116068711678e-03  5.0831725438147714e-03  5.2020542077256459e-03  5.3000893828957351e-03  5.3724558276923590e-03  5.4184569088452598e-03  5.4401057562401198e-03  5.4408688386046247e-03  5.4247366068366004e-03  5.3956284293110012e-03  5.3570664464940784e-03  5.3120365599663173e-03  5.2629652739891314e-03  5.2117599137577247e-03  5.1598776932963684e-03  5.1084029523963733e-03  5.0581213471066772e-03  5.0095857118889449e-03  4.9631717629726960e-03  4.9191236653396532e-03  4.8775903753895651e-03  4.8386540140068681e-03  4.8023515766584483e-03  4.7686911976432909e-03  4.7376640389536441e-03  4.7092527142123357e-03  4.6834370069598038e-03  4.6601975090519721e-03  4.6395176933863476e-03  4.6213848366658825e-03  4.6057901658843464e-03  4.5927283305960253e-03  4.5821973885671434e-03  4.5741930647014983e-03  4.5686840736963476e-03  4.5649900912530161e-03  9.1209363564916969e-03  9.3034692205774087e-03  4.7853681081115994e-03  4.8847340751739772e-03  4.9868785293727350e-03  5.1049502765695854e-03  5.2219863786797955e-03  5.3246671890220358e-03  5.4053552222593487e-03  5.4610940149463043e-03  5.4922482748750627e-03  5.5012361181950801e-03  5.4915141853466411e-03  5.4668530027779140e-03  5.4308762192848969e-03  5.3868084590206495e-03  5.3373700689393526e-03  5.2847647089329956e-03  5.2307188732865287e-03  5.1765455769866176e-03  5.1232150476081071e-03  5.0714228053930464e-03  5.0216504132575661e-03  4.9742171312508847e-03  4.9293223598299999e-03  4.8870795919682703e-03  4.8475429486781541e-03  4.8107274586003199e-03  4.7766241894573683e-03  4.7452112231671385e-03  4.7164613299169088e-03  4.6903470618862332e-03  4.6668438656882463e-03  4.6459317090803073e-03  4.6275956227504224e-03  4.6118255218654015e-03  4.5986154025536236e-03  4.5879626982956966e-03  4.5798597920583247e-03  4.5742271934918702e-03  4.5695066803636379e-03  9.1240964057130586e-03  9.5060613050102910e-03  5.0349941474312791e-03  5.1980303835664418e-03  5.2827916556447019e-03  5.3688866404095993e-03  5.4478073378968987e-03  5.5122434939940341e-03  5.5578958355915085e-03  5.5833509457385300e-03  5.5893554735182635e-03  5.5780374274373382e-03  5.5522477652907749e-03  5.5150542256527553e-03  5.4694021133716731e-03  5.4179190998082868e-03  5.3628282091765468e-03  5.3059327695054543e-03  5.2486438366977483e-03  5.1920289604695576e-03  5.1368685556585185e-03  5.0837117043858156e-03  5.0329270152185907e-03  4.9847465896943367e-03  4.9393026010596808e-03  4.8966568024493709e-03  4.8568236876109895e-03  4.8197881862538511e-03  4.7855187926433571e-03  4.7539769667969030e-03  4.7251235539733701e-03  4.6989228646383795e-03  4.6753449574840665e-03  4.6543665800864286e-03  4.6359711377434313e-03  4.6201480314827428e-03  4.6068914099564266e-03  4.5961989906323913e-03  4.5880599645970032e-03  4.5823282053924731e-03  4.5761839664273480e-03  9.1289724131543085e-03  9.8042364634031952e-03  5.6307794230931706e-03  5.8737950532734328e-03  5.8510891598564478e-03  5.8184142069027311e-03  5.7991901254489100e-03  5.7862033632671787e-03  5.7712015989018484e-03  5.7493755621563581e-03  5.7186580330068513e-03  5.6789555391314342e-03  5.6313350748488158e-03  5.5774289769749841e-03  5.5190333954280033e-03  5.4578660656368115e-03  5.3954379960150806e-03  5.3330009343892535e-03  5.2715415093346294e-03  5.2118017298313744e-03  5.1543123851931650e-03  5.0994308366716871e-03  5.0473781118857072e-03  4.9982725110321305e-03  4.9521584333291711e-03  4.9090300724289899e-03  4.8688501829768161e-03  4.8315644137479109e-03  4.7971118272231213e-03  4.7654322466615480e-03  4.7364710353492720e-03  4.7101818492808339e-03  4.6865278327908721e-03  4.6654816586404963e-03  4.6470247444972742e-03  4.6311459591107280e-03  4.6178398368016422e-03  4.6071047740104728e-03  4.5989262047105538e-03  4.5930715139696800e-03  4.5850670356071804e-03  9.1355734548224012e-03  1.1853033668551619e-02  7.6459478326789572e-03  7.8721767254630176e-03  7.0563708325497038e-03  6.5789390851517301e-03  6.3212970988086384e-03  6.1627030855296808e-03  6.0510752416020313e-03  5.9610283002552618e-03  5.8805700050402771e-03  5.8039407948225338e-03  5.7286512187080287e-03  5.6539130839658308e-03  5.5797968478522326e-03  5.5067560155122892e-03  5.4353627366175231e-03  5.3661662373252284e-03  5.2996244608716908e-03  5.2360792498666172e-03  5.1757566344989934e-03  5.1187804766119373e-03  5.0651919971565242e-03  5.0149705827816117e-03  4.9680532201310610e-03  4.9243512154596557e-03  4.8837636992690014e-03  4.8461879231372577e-03  4.8115266322243154e-03  4.7796929217718961e-03  4.7506130187237325e-03  4.7242274121802961e-03  4.7004907161298168e-03  4.6793706028076896e-03  4.6608460932060381e-03  4.6449054889053393e-03  4.6315439311533004e-03  4.6207608067234058e-03  4.6125369737123455e-03  4.6065323833431905e-03  4.5962124431174946e-03  9.1439352793922235e-03  1.2241657168356618e-01  6.9317725283868176e-02  2.3606287991879114e-02  1.0969565106008022e-02  8.0606506835196358e-03  7.0776941159948229e-03  6.6516818321162288e-03  6.3973652776085884e-03  6.2166429402697905e-03  6.0733467014735896e-03  5.9515085405344396e-03  5.8430133236136760e-03  5.7435972572637915e-03  5.6510064045120038e-03  5.5640744784082111e-03  5.4822152510385184e-03  5.4051344610332140e-03  5.3326665643407649e-03  5.2646862558754642e-03  5.2010652777381566e-03  5.1416560543557470e-03  5.0862902813088428e-03  5.0347849026035896e-03  4.9869508345925847e-03  4.9426017723492388e-03  4.9015617107046544e-03  4.8636706201400041e-03  4.8287881874717643e-03  4.7967957778027046e-03  4.7675968826146106e-03  4.7411163490086155e-03  4.7172986765952624e-03  4.6961056473125377e-03  4.6775135213998099e-03  4.6615100485110075e-03  4.6480912352098221e-03  4.6372577713292666e-03  4.6289850202605627e-03  4.6228035333871062e-03  4.6096935382959284e-03  9.1541015853462970e-03  6.6328027437616643e-01  5.3237516716597411e-01  3.2105966794641810e-01  9.1689941982568871e-02  1.4770204060495557e-02  8.6461684676538107e-03  7.3031077279870991e-03  6.8091464571086221e-03  6.5113424791978965e-03  6.2934108951303415e-03  6.1191483051872787e-03  5.9726454675810116e-03  5.8452042293511116e-03  5.7317277118762687e-03  5.6291230225315346e-03  5.5354603228105455e-03  5.4494853430395070e-03  5.3703312892054798e-03  5.2973500606818096e-03  5.2300167735883866e-03  5.1678788514535048e-03  5.1105313261828565e-03  5.0576066730929434e-03  5.0087719676744843e-03  4.9637291159323384e-03  4.9222158218155173e-03  4.8840061354467690e-03  4.8489101154613745e-03  4.8167725126146187e-03  4.7874705628463479e-03  4.7609110502591142e-03  4.7370268193869733e-03  4.7157729171502794e-03  4.6971225334507590e-03  4.6810629456327853e-03  4.6675913523605596e-03  4.6567101245712991e-03  4.6483882026150444e-03  4.6420035517350166e-03  4.6256038191417360e-03  9.1661285131205798e-03  9.1454400292392024e-01  8.7495163678347199e-01  6.8985737680186188e-01  4.4402305860070640e-01  1.5979680128335114e-01  1.7964447776891108e-02  8.8617926444691276e-03  7.3510937848930416e-03  6.8462876587249265e-03  6.5366414658656197e-03  6.3036566134322672e-03  6.1153164608509190e-03  5.9571776308472643e-03  5.8208392271508879e-03  5.7010596522714943e-03  5.5944387477067387e-03  5.4986846484686523e-03  5.4121757232434130e-03  5.3336996789106264e-03  5.2623005755128814e-03  5.1971914105358296e-03  5.1377054783479266e-03  5.0832697785713320e-03  5.0333903163584780e-03  4.9876433744362354e-03  4.9456694757516462e-03  4.9071683341126394e-03  4.8718939935076064e-03  4.8396498434541205e-03  4.8102834351265548e-03  4.7836811224932115e-03  4.7597625883269105e-03  4.7384753335239158e-03  4.7197892179356681e-03  4.7036912019019009e-03  4.6901801063917682e-03  4.6792604854819873e-03  4.6708939502901068e-03  4.6642810572856781e-03  4.6440604548826959e-03  9.1800865272717649e-03  9.4827082929372364e-01  9.6646796828334669e-01  9.3512088685725803e-01  7.8077376698894829e-01  4.7792443377383959e-01  1.6696693807095142e-01  1.8540834164175686e-02  8.7383963371708423e-03  7.2874756555761496e-03  6.8058307308245681e-03  6.5021230697462499e-03  6.2686175828590915e-03  6.0778067201075698e-03  5.9171019467646174e-03  5.7789302992012339e-03  5.6583731650859895e-03  5.5520738896822474e-03  5.4576315477204620e-03  5.3732431647378768e-03  5.2974940505906929e-03  5.2292358457933247e-03  5.1675156449369486e-03  5.1115339401099913e-03  5.0606183330362646e-03  5.0142056546602877e-03  4.9718284887298406e-03  4.9331040046688458e-03  4.8977240636396604e-03  4.8654461229107951e-03  4.8360847273444000e-03  4.8095034759714737e-03  4.7856073839558887e-03  4.7643355881695926e-03  4.7456543772274231e-03  4.7295506193283758e-03  4.7160253202254299e-03  4.7050859019903361e-03  4.6966857965562332e-03  4.6898213131009604e-03  4.6652094528704131e-03  9.1960634691696744e-03  8.9825780323325255e-01  9.5934178696387518e-01  9.6152852059073668e-01  9.3261170979897412e-01  7.6649708728280441e-01  4.5739948665528180e-01  1.4781840244132582e-01  1.6557963478081854e-02  8.3988425911671501e-03  7.1519645348791074e-03  6.7170519025694783e-03  6.4306676818547681e-03  6.2054753417229843e-03  6.0192714478398386e-03  5.8617182481870153e-03  5.7263768174791209e-03  5.6088557616214667e-03  5.5059789226328841e-03  5.4153375510187889e-03  5.3350328330658168e-03  5.2635267579531683e-03  5.1995535890250804e-03  5.1420645158644935e-03  5.0901903457391418e-03  5.0432141963651506e-03  5.0005499606974729e-03  4.9617243073972681e-03  4.9263610699084824e-03  4.8941674679549383e-03  4.8649218601793370e-03  4.8384627788595255e-03  4.8146789887530163e-03  4.7935003373764801e-03  4.7748892269512226e-03  4.7588326737989638e-03  4.7453345707757109e-03  4.7344061496652568e-03  4.7259919576577341e-03  4.7188547973487259e-03  4.6892322083943814e-03  9.2141683164216129e-03  6.0327824592377677e-01  7.8809788203123099e-01  9.2093469028079311e-01  9.3952353411001543e-01  8.9471531713079400e-01  7.0766587847209483e-01  4.0837414195620642e-01  1.1099328537118354e-01  1.3915310340269093e-02  7.9695572167901383e-03  6.9837202455423734e-03  6.6039195633132214e-03  6.3392654344904984e-03  6.1262996749565889e-03  5.9484091796416678e-03  5.7974599983891314e-03  5.6680700230714899e-03  5.5563095335573031e-03  5.4591493893925295e-03  5.3741740618467124e-03  5.2994191579004753e-03  5.2332728566943706e-03  5.1744100634292210e-03  5.1217441914626714e-03  5.0743895207574254e-03  5.0316304876586249e-03  4.9928957555315720e-03  4.9577358730225653e-03  4.9258039845059953e-03  4.8968392965416802e-03  4.8706529158640093e-03  4.8471155383098541e-03  4.8261464765511136e-03  4.8077036402498705e-03  4.7917742859056615e-03  4.7783659835266886e-03  4.7674950669988302e-03  4.7590968206830363e-03  4.7516684655118293e-03  4.7163539659978958e-03  9.2345359366130426e-03  5.8998527962772010e-02  4.1475499974740893e-01  7.0689203745575413e-01  8.7500043084388723e-01  9.0273471806229000e-01  8.3948497639257225e-01  6.3660990570952691e-01  3.4004327120526895e-01  6.7181265118416170e-02  1.1615433758627117e-02  7.5599426201084846e-03  6.8128442291876699e-03  6.4816584987722114e-03  6.2377582302161295e-03  6.0380830722761838e-03  5.8705218398875858e-03  5.7285487410654824e-03  5.6074711763863718e-03  5.5036018601691576e-03  5.4139511483270765e-03  5.3360715699250867e-03  5.2679591718310329e-03  5.2079787049449317e-03  5.1548024018384228e-03  5.1073594901349436e-03  5.0647943799485562e-03  5.0264311900120309e-03  4.9917431094855273e-03  4.9603262668674007e-03  4.9318781077009825e-03  4.9061797875119204e-03  4.8830815793773647e-03  4.8624902869366434e-03  4.8443579765227035e-03  4.8286716873579515e-03  4.8154433305876241e-03  4.8046960746544300e-03  4.7963562473617750e-03  4.7886203327979996e-03  4.7468544524030196e-03  9.2573328329699153e-03  1.1574516039251978e-02  4.9910172889768623e-02  4.3105780893902784e-01  6.9744738782431615e-01  8.4537326920496170e-01  8.6735915559437116e-01  7.8392195896419892e-01  5.6297069249326748e-01  2.6314818101493220e-01  4.0042631738286392e-02  9.9204759328461855e-03  7.2175617569534885e-03  6.6492167561627959e-03  6.3554060819329067e-03  6.1301119356393019e-03  5.9443204782600586e-03  5.7888345394769810e-03  5.6579830367808615e-03  5.5473042243166567e-03  5.4531201622130543e-03  5.3724062909867084e-03  5.3027006354816001e-03  5.2420154771197179e-03  5.1887549283746413e-03  5.1416460031399689e-03  5.0996831769479067e-03  5.0620815163445344e-03  5.0282352467306375e-03  4.9976823311158013e-03  4.9700764408531772e-03  4.9451658226375341e-03  4.9227769040933672e-03  4.9028005674382272e-03  4.8851800713751448e-03  4.8699003289402734e-03  4.8569774946613572e-03  4.8464437147504435e-03  4.8382180172811011e-03  4.8301580902090427e-03  4.7810808148637772e-03  9.2827637513090665e-03  1.0117081882558247e-02  8.6078763071075169e-03  1.3637044374267865e-01  4.7545115194085785e-01  7.1161641318490942e-01  8.3226098857674968e-01  8.3690641742079630e-01  7.2749777073129307e-01  4.8517386351516162e-01  1.9086553090473854e-01  2.5594692257098237e-02  8.7237561450988696e-03  6.9378407706244113e-03  6.4897002921512296e-03  6.2249787160932289e-03  6.0174660371690889e-03  5.8470423671579336e-03  5.7059088480803776e-03  5.5884615864529221e-03  5.4901023056632891e-03  5.4070727893260652e-03  5.3363625935481428e-03  5.2755843468715556e-03  5.2228466915615855e-03  5.1766563416977837e-03  5.1358486946811617e-03  5.0995293305134016e-03  5.0670172984957768e-03  5.0377949187423027e-03  5.0114709072100246e-03  4.9877565072247720e-03  4.9664489090435792e-03  4.9474171817861616e-03  4.9305897043316407e-03  4.9159439665094739e-03  4.9034977783078276e-03  4.8932942726689866e-03  4.8852493695606767e-03  4.8768423563124727e-03  4.8194624348656193e-03  9.3110785116954000e-03  1.0014390767282898e-02  6.5002143379453989e-03  1.3442573587563910e-02  2.0693957309301803e-01  5.2552493276627377e-01  7.3358138879682411e-01  8.2431936714068343e-01  8.0486040934289305e-01  6.6571968491724443e-01  4.0597165511559086e-01  1.2548277280508296e-01  1.7001402988001253e-02  7.8850033647704307e-03  6.6985755652695100e-03  6.3284285974585623e-03  6.0886729646893100e-03  5.9006787763110418e-03  5.7486818818092162e-03  5.6247719836934103e-03  5.5229378863965728e-03  5.4384284111281544e-03  5.3675753159044583e-03  5.3075593476129695e-03  5.2561745834733744e-03  5.2116844860073831e-03  5.1727536020393771e-03  5.1383858872376051e-03  5.1078418687056960e-03  5.0805585115925563e-03  5.0560986644306357e-03  5.0341291309963353e-03  5.0144091318393494e-03  4.9967766719807259e-03  4.9811339181529222e-03  4.9674381653917283e-03  4.9556993072104004e-03  4.9459710775181659e-03  4.9381748649828510e-03  4.9293746360561160e-03  4.8625256707828220e-03  9.3425772615976892e-03  9.8783482277617456e-03  5.9109494368598118e-03  7.3588305886379589e-03  1.9433074200017587e-02  2.9006164905662146e-01  5.7999380832842418e-01  7.5231603136459846e-01  8.1298431435514462e-01  7.6753676516807667e-01  5.9777775136366929e-01  3.2204465334754551e-01  7.1205665295270823e-02  1.2373703800764128e-02  7.3093826943797721e-03  6.4752463216022375e-03  6.1593043253252025e-03  5.9466634587096679e-03  5.7829292490766387e-03  5.6533383522050481e-03  5.5492895402534000e-03  5.4645666474633942e-03  5.3947448889581830e-03  5.3366260114115459e-03  5.2876999686700520e-03  5.2459335397279996e-03  5.2097876652115816e-03  5.1781925939707683e-03  5.1504017523410096e-03  5.1258338434881489e-03  5.1039999248290308e-03  5.0845041521413673e-03  5.0670541604739428e-03  5.0514460796311413e-03  5.0375374980058448e-03  5.0252370140257893e-03  5.0145185976668933e-03  5.0054358359586486e-03  4.9979304777474746e-03  4.9886283584861697e-03  4.9109027805861226e-03  9.3776096834815061e-03  9.7199019989303546e-03  5.5880759744845222e-03  6.1751553485110680e-03  7.7710291099277861e-03  3.6322170311355484e-02  3.7226962660414609e-01  6.1424947761099302e-01  7.5756089181727970e-01  7.9883627532365464e-01  7.2553485108452076e-01  5.2556878687732611e-01  2.4306516982412402e-01  4.2454409006028059e-02  1.0156785752015313e-02  6.8897147779818811e-03  6.2525014559135991e-03  5.9838443213234933e-03  5.8048667376716691e-03  5.6708436177259841e-03  5.5666727813808003e-03  5.4835056958640119e-03  5.4161061396015790e-03  5.3612746992847977e-03  5.3162812061178163e-03  5.2785851439344396e-03  5.2463166370399113e-03  5.2184233266583217e-03  5.1943083070603649e-03  5.1734346825231241e-03  5.1552235960563748e-03  5.1391622854022505e-03  5.1248895787603926e-03  5.1121624176129442e-03  5.1007729439659965e-03  5.0905195929290999e-03  5.0812625561702240e-03  5.0730097745185550e-03  5.0657460181070535e-03  5.0556781912415010e-03  4.9653201328821953e-03  9.4165569497483836e-03  9.5522188334021645e-03  5.2978215095242026e-03  5.6703294742718544e-03  6.1324112470708975e-03  8.7051873108327620e-03  1.0027578188252426e-01  4.3809139806788477e-01  6.5710912610218419e-01  7.7016267700177432e-01  7.8438126453985102e-01  6.7886300848670378e-01  4.5933724707302409e-01  1.8569647313612225e-01  3.1257646122966998e-02  9.1733179061442658e-03  6.5908623414080774e-03  6.0483631551498194e-03  5.8200016615299931e-03  5.6763318032634572e-03  5.5738535074364073e-03  5.4940243103493921e-03  5.4298903267605732e-03  5.3797480385175383e-03  5.3408007085609267e-03  5.3090552490318698e-03  5.2818414613639009e-03  5.2584784852347331e-03  5.2390223168894134e-03  5.2230996606150853e-03  5.2098514805106137e-03  5.1984773699850313e-03  5.1885482384038742e-03  5.1798627438422052e-03  5.1721500193633550e-03  5.1649606504423750e-03  5.1578357503073852e-03  5.1505993052070841e-03  5.1432936982169428e-03  5.1318154859194779e-03  5.0265220725678756e-03  9.4597664198614630e-03  9.3940696803861412e-03  5.0425216444526339e-03  5.3116051927538412e-03  5.6073677014384302e-03  6.3260660526423939e-03  1.1141910697360004e-02  1.8496550341868256e-01  5.5508075578743865e-01  7.109658510