<?xml version="1.0"?>
<VTKFile type="UnstructuredGrid"  version="0.1"  >
<UnstructuredGrid>
<Piece  NumberOfPoints="1681" NumberOfCells="3200">
<Points>
<DataArray  type="Float64"  NumberOfComponents="3"  format="ascii">0 0 0  0.025 0 0  0.05 0 0  0.075 0 0  0.1 0 0  0.125 0 0  0.15 0 0  0.175 0 0  0.2 0 0  0.225 0 0  0.25 0 0  0.275 0 0  0.3 0 0  0.325 0 0  0.35 0 0  0.375 0 0  0.4 0 0  0.425 0 0  0.45 0 0  0.475 0 0  0.5 0 0  0.525 0 0  0.55 0 0  0.575 0 0  0.6 0 0  0.625 0 0  0.65 0 0  0.675 0 0  0.7 0 0  0.725 0 0  0.75 0 0  0.775 0 0  0.8 0 0  0.825 0 0  0.85 0 0  0.875 0 0  0.9 0 0  0.925 0 0  0.95 0 0  0.975 0 0  1 0 0  0 0.025 0  0.025 0.025 0  0.05 0.025 0  0.075 0.025 0  0.1 0.025 0  0.125 0.025 0  0.15 0.025 0  0.175 0.025 0  0.2 0.025 0  0.225 0.025 0  0.25 0.025 0  0.275 0.025 0  0.3 0.025 0  0.325 0.025 0  0.35 0.025 0  0.375 0.025 0  0.4 0.025 0  0.425 0.025 0  0.45 0.025 0  0.475 0.025 0  0.5 0.025 0  0.525 0.025 0  0.55 0.025 0  0.575 0.025 0  0.6 0.025 0  0.625 0.025 0  0.65 0.025 0  0.675 0.025 0  0.7 0.025 0  0.725 0.025 0  0.75 0.025 0  0.775 0.025 0  0.8 0.025 0  0.825 0.025 0  0.85 0.025 0  0.875 0.025 0  0.9 0.025 0  0.925 0.025 0  0.95 0.025 0  0.975 0.025 0  1 0.025 0  0 0.05 0  0.025 0.05 0  0.05 0.05 0  0.075 0.05 0  0.1 0.05 0  0.125 0.05 0  0.15 0.05 0  0.175 0.05 0  0.2 0.05 0  0.225 0.05 0  0.25 0.05 0  0.275 0.05 0  0.3 0.05 0  0.325 0.05 0  0.35 0.05 0  0.375 0.05 0  0.4 0.05 0  0.425 0.05 0  0.45 0.05 0  0.475 0.05 0  0.5 0.05 0  0.525 0.05 0  0.55 0.05 0  0.575 0.05 0  0.6 0.05 0  0.625 0.05 0  0.65 0.05 0  0.675 0.05 0  0.7 0.05 0  0.725 0.05 0  0.75 0.05 0  0.775 0.05 0  0.8 0.05 0  0.825 0.05 0  0.85 0.05 0  0.875 0.05 0  0.9 0.05 0  0.925 0.05 0  0.95 0.05 0  0.975 0.05 0  1 0.05 0  0 0.075 0  0.025 0.075 0  0.05 0.075 0  0.075 0.075 0  0.1 0.075 0  0.125 0.075 0  0.15 0.075 0  0.175 0.075 0  0.2 0.075 0  0.225 0.075 0  0.25 0.075 0  0.275 0.075 0  0.3 0.075 0  0.325 0.075 0  0.35 0.075 0  0.375 0.075 0  0.4 0.075 0  0.425 0.075 0  0.45 0.075 0  0.475 0.075 0  0.5 0.075 0  0.525 0.075 0  0.55 0.075 0  0.575 0.075 0  0.6 0.075 0  0.625 0.075 0  0.65 0.075 0  0.675 0.075 0  0.7 0.075 0  0.725 0.075 0  0.75 0.075 0  0.775 0.075 0  0.8 0.075 0  0.825 0.075 0  0.85 0.075 0  0.875 0.075 0  0.9 0.075 0  0.925 0.075 0  0.95 0.075 0  0.975 0.075 0  1 0.075 0  0 0.1 0  0.025 0.1 0  0.05 0.1 0  0.075 0.1 0  0.1 0.1 0  0.125 0.1 0  0.15 0.1 0  0.175 0.1 0  0.2 0.1 0  0.225 0.1 0  0.25 0.1 0  0.275 0.1 0  0.3 0.1 0  0.325 0.1 0  0.35 0.1 0  0.375 0.1 0  0.4 0.1 0  0.425 0.1 0  0.45 0.1 0  0.475 0.1 0  0.5 0.1 0  0.525 0.1 0  0.55 0.1 0  0.575 0.1 0  0.6 0.1 0  0.625 0.1 0  0.65 0.1 0  0.675 0.1 0  0.7 0.1 0  0.725 0.1 0  0.75 0.1 0  0.775 0.1 0  0.8 0.1 0  0.825 0.1 0  0.85 0.1 0  0.875 0.1 0  0.9 0.1 0  0.925 0.1 0  0.95 0.1 0  0.975 0.1 0  1 0.1 0  0 0.125 0  0.025 0.125 0  0.05 0.125 0  0.075 0.125 0  0.1 0.125 0  0.125 0.125 0  0.15 0.125 0  0.175 0.125 0  0.2 0.125 0  0.225 0.125 0  0.25 0.125 0  0.275 0.125 0  0.3 0.125 0  0.325 0.125 0  0.35 0.125 0  0.375 0.125 0  0.4 0.125 0  0.425 0.125 0  0.45 0.125 0  0.475 0.125 0  0.5 0.125 0  0.525 0.125 0  0.55 0.125 0  0.575 0.125 0  0.6 0.125 0  0.625 0.125 0  0.65 0.125 0  0.675 0.125 0  0.7 0.125 0  0.725 0.125 0  0.75 0.125 0  0.775 0.125 0  0.8 0.125 0  0.825 0.125 0  0.85 0.125 0  0.875 0.125 0  0.9 0.125 0  0.925 0.125 0  0.95 0.125 0  0.975 0.125 0  1 0.125 0  0 0.15 0  0.025 0.15 0  0.05 0.15 0  0.075 0.15 0  0.1 0.15 0  0.125 0.15 0  0.15 0.15 0  0.175 0.15 0  0.2 0.15 0  0.225 0.15 0  0.25 0.15 0  0.275 0.15 0  0.3 0.15 0  0.325 0.15 0  0.35 0.15 0  0.375 0.15 0  0.4 0.15 0  0.425 0.15 0  0.45 0.15 0  0.475 0.15 0  0.5 0.15 0  0.525 0.15 0  0.55 0.15 0  0.575 0.15 0  0.6 0.15 0  0.625 0.15 0  0.65 0.15 0  0.675 0.15 0  0.7 0.15 0  0.725 0.15 0  0.75 0.15 0  0.775 0.15 0  0.8 0.15 0  0.825 0.15 0  0.85 0.15 0  0.875 0.15 0  0.9 0.15 0  0.925 0.15 0  0.95 0.15 0  0.975 0.15 0  1 0.15 0  0 0.175 0  0.025 0.175 0  0.05 0.175 0  0.075 0.175 0  0.1 0.175 0  0.125 0.175 0  0.15 0.175 0  0.175 0.175 0  0.2 0.175 0  0.225 0.175 0  0.25 0.175 0  0.275 0.175 0  0.3 0.175 0  0.325 0.175 0  0.35 0.175 0  0.375 0.175 0  0.4 0.175 0  0.425 0.175 0  0.45 0.175 0  0.475 0.175 0  0.5 0.175 0  0.525 0.175 0  0.55 0.175 0  0.575 0.175 0  0.6 0.175 0  0.625 0.175 0  0.65 0.175 0  0.675 0.175 0  0.7 0.175 0  0.725 0.175 0  0.75 0.175 0  0.775 0.175 0  0.8 0.175 0  0.825 0.175 0  0.85 0.175 0  0.875 0.175 0  0.9 0.175 0  0.925 0.175 0  0.95 0.175 0  0.975 0.175 0  1 0.175 0  0 0.2 0  0.025 0.2 0  0.05 0.2 0  0.075 0.2 0  0.1 0.2 0  0.125 0.2 0  0.15 0.2 0  0.175 0.2 0  0.2 0.2 0  0.225 0.2 0  0.25 0.2 0  0.275 0.2 0  0.3 0.2 0  0.325 0.2 0  0.35 0.2 0  0.375 0.2 0  0.4 0.2 0  0.425 0.2 0  0.45 0.2 0  0.475 0.2 0  0.5 0.2 0  0.525 0.2 0  0.55 0.2 0  0.575 0.2 0  0.6 0.2 0  0.625 0.2 0  0.65 0.2 0  0.675 0.2 0  0.7 0.2 0  0.725 0.2 0  0.75 0.2 0  0.775 0.2 0  0.8 0.2 0  0.825 0.2 0  0.85 0.2 0  0.875 0.2 0  0.9 0.2 0  0.925 0.2 0  0.95 0.2 0  0.975 0.2 0  1 0.2 0  0 0.225 0  0.025 0.225 0  0.05 0.225 0  0.075 0.225 0  0.1 0.225 0  0.125 0.225 0  0.15 0.225 0  0.175 0.225 0  0.2 0.225 0  0.225 0.225 0  0.25 0.225 0  0.275 0.225 0  0.3 0.225 0  0.325 0.225 0  0.35 0.225 0  0.375 0.225 0  0.4 0.225 0  0.425 0.225 0  0.45 0.225 0  0.475 0.225 0  0.5 0.225 0  0.525 0.225 0  0.55 0.225 0  0.575 0.225 0  0.6 0.225 0  0.625 0.225 0  0.65 0.225 0  0.675 0.225 0  0.7 0.225 0  0.725 0.225 0  0.75 0.225 0  0.775 0.225 0  0.8 0.225 0  0.825 0.225 0  0.85 0.225 0  0.875 0.225 0  0.9 0.225 0  0.925 0.225 0  0.95 0.225 0  0.975 0.225 0  1 0.225 0  0 0.25 0  0.025 0.25 0  0.05 0.25 0  0.075 0.25 0  0.1 0.25 0  0.125 0.25 0  0.15 0.25 0  0.175 0.25 0  0.2 0.25 0  0.225 0.25 0  0.25 0.25 0  0.275 0.25 0  0.3 0.25 0  0.325 0.25 0  0.35 0.25 0  0.375 0.25 0  0.4 0.25 0  0.425 0.25 0  0.45 0.25 0  0.475 0.25 0  0.5 0.25 0  0.525 0.25 0  0.55 0.25 0  0.575 0.25 0  0.6 0.25 0  0.625 0.25 0  0.65 0.25 0  0.675 0.25 0  0.7 0.25 0  0.725 0.25 0  0.75 0.25 0  0.775 0.25 0  0.8 0.25 0  0.825 0.25 0  0.85 0.25 0  0.875 0.25 0  0.9 0.25 0  0.925 0.25 0  0.95 0.25 0  0.975 0.25 0  1 0.25 0  0 0.275 0  0.025 0.275 0  0.05 0.275 0  0.075 0.275 0  0.1 0.275 0  0.125 0.275 0  0.15 0.275 0  0.175 0.275 0  0.2 0.275 0  0.225 0.275 0  0.25 0.275 0  0.275 0.275 0  0.3 0.275 0  0.325 0.275 0  0.35 0.275 0  0.375 0.275 0  0.4 0.275 0  0.425 0.275 0  0.45 0.275 0  0.475 0.275 0  0.5 0.275 0  0.525 0.275 0  0.55 0.275 0  0.575 0.275 0  0.6 0.275 0  0.625 0.275 0  0.65 0.275 0  0.675 0.275 0  0.7 0.275 0  0.725 0.275 0  0.75 0.275 0  0.775 0.275 0  0.8 0.275 0  0.825 0.275 0  0.85 0.275 0  0.875 0.275 0  0.9 0.275 0  0.925 0.275 0  0.95 0.275 0  0.975 0.275 0  1 0.275 0  0 0.3 0  0.025 0.3 0  0.05 0.3 0  0.075 0.3 0  0.1 0.3 0  0.125 0.3 0  0.15 0.3 0  0.175 0.3 0  0.2 0.3 0  0.225 0.3 0  0.25 0.3 0  0.275 0.3 0  0.3 0.3 0  0.325 0.3 0  0.35 0.3 0  0.375 0.3 0  0.4 0.3 0  0.425 0.3 0  0.45 0.3 0  0.475 0.3 0  0.5 0.3 0  0.525 0.3 0  0.55 0.3 0  0.575 0.3 0  0.6 0.3 0  0.625 0.3 0  0.65 0.3 0  0.675 0.3 0  0.7 0.3 0  0.725 0.3 0  0.75 0.3 0  0.775 0.3 0  0.8 0.3 0  0.825 0.3 0  0.85 0.3 0  0.875 0.3 0  0.9 0.3 0  0.925 0.3 0  0.95 0.3 0  0.975 0.3 0  1 0.3 0  0 0.325 0  0.025 0.325 0  0.05 0.325 0  0.075 0.325 0  0.1 0.325 0  0.125 0.325 0  0.15 0.325 0  0.175 0.325 0  0.2 0.325 0  0.225 0.325 0  0.25 0.325 0  0.275 0.325 0  0.3 0.325 0  0.325 0.325 0  0.35 0.325 0  0.375 0.325 0  0.4 0.325 0  0.425 0.325 0  0.45 0.325 0  0.475 0.325 0  0.5 0.325 0  0.525 0.325 0  0.55 0.325 0  0.575 0.325 0  0.6 0.325 0  0.625 0.325 0  0.65 0.325 0  0.675 0.325 0  0.7 0.325 0  0.725 0.325 0  0.75 0.325 0  0.775 0.325 0  0.8 0.325 0  0.825 0.325 0  0.85 0.325 0  0.875 0.325 0  0.9 0.325 0  0.925 0.325 0  0.95 0.325 0  0.975 0.325 0  1 0.325 0  0 0.35 0  0.025 0.35 0  0.05 0.35 0  0.075 0.35 0  0.1 0.35 0  0.125 0.35 0  0.15 0.35 0  0.175 0.35 0  0.2 0.35 0  0.225 0.35 0  0.25 0.35 0  0.275 0.35 0  0.3 0.35 0  0.325 0.35 0  0.35 0.35 0  0.375 0.35 0  0.4 0.35 0  0.425 0.35 0  0.45 0.35 0  0.475 0.35 0  0.5 0.35 0  0.525 0.35 0  0.55 0.35 0  0.575 0.35 0  0.6 0.35 0  0.625 0.35 0  0.65 0.35 0  0.675 0.35 0  0.7 0.35 0  0.725 0.35 0  0.75 0.35 0  0.775 0.35 0  0.8 0.35 0  0.825 0.35 0  0.85 0.35 0  0.875 0.35 0  0.9 0.35 0  0.925 0.35 0  0.95 0.35 0  0.975 0.35 0  1 0.35 0  0 0.375 0  0.025 0.375 0  0.05 0.375 0  0.075 0.375 0  0.1 0.375 0  0.125 0.375 0  0.15 0.375 0  0.175 0.375 0  0.2 0.375 0  0.225 0.375 0  0.25 0.375 0  0.275 0.375 0  0.3 0.375 0  0.325 0.375 0  0.35 0.375 0  0.375 0.375 0  0.4 0.375 0  0.425 0.375 0  0.45 0.375 0  0.475 0.375 0  0.5 0.375 0  0.525 0.375 0  0.55 0.375 0  0.575 0.375 0  0.6 0.375 0  0.625 0.375 0  0.65 0.375 0  0.675 0.375 0  0.7 0.375 0  0.725 0.375 0  0.75 0.375 0  0.775 0.375 0  0.8 0.375 0  0.825 0.375 0  0.85 0.375 0  0.875 0.375 0  0.9 0.375 0  0.925 0.375 0  0.95 0.375 0  0.975 0.375 0  1 0.375 0  0 0.4 0  0.025 0.4 0  0.05 0.4 0  0.075 0.4 0  0.1 0.4 0  0.125 0.4 0  0.15 0.4 0  0.175 0.4 0  0.2 0.4 0  0.225 0.4 0  0.25 0.4 0  0.275 0.4 0  0.3 0.4 0  0.325 0.4 0  0.35 0.4 0  0.375 0.4 0  0.4 0.4 0  0.425 0.4 0  0.45 0.4 0  0.475 0.4 0  0.5 0.4 0  0.525 0.4 0  0.55 0.4 0  0.575 0.4 0  0.6 0.4 0  0.625 0.4 0  0.65 0.4 0  0.675 0.4 0  0.7 0.4 0  0.725 0.4 0  0.75 0.4 0  0.775 0.4 0  0.8 0.4 0  0.825 0.4 0  0.85 0.4 0  0.875 0.4 0  0.9 0.4 0  0.925 0.4 0  0.95 0.4 0  0.975 0.4 0  1 0.4 0  0 0.425 0  0.025 0.425 0  0.05 0.425 0  0.075 0.425 0  0.1 0.425 0  0.125 0.425 0  0.15 0.425 0  0.175 0.425 0  0.2 0.425 0  0.225 0.425 0  0.25 0.425 0  0.275 0.425 0  0.3 0.425 0  0.325 0.425 0  0.35 0.425 0  0.375 0.425 0  0.4 0.425 0  0.425 0.425 0  0.45 0.425 0  0.475 0.425 0  0.5 0.425 0  0.525 0.425 0  0.55 0.425 0  0.575 0.425 0  0.6 0.425 0  0.625 0.425 0  0.65 0.425 0  0.675 0.425 0  0.7 0.425 0  0.725 0.425 0  0.75 0.425 0  0.775 0.425 0  0.8 0.425 0  0.825 0.425 0  0.85 0.425 0  0.875 0.425 0  0.9 0.425 0  0.925 0.425 0  0.95 0.425 0  0.975 0.425 0  1 0.425 0  0 0.45 0  0.02
[...]
<PointData  Scalars="ControlVisualisation"> 
<DataArray  type="Float64"  Name="ControlVisualisation"  format="ascii">9.8629672497236559e-02  6.7664144231487255e-02  6.7706309200623940e-02  6.7782448204002671e-02  6.7891305862917917e-02  6.8031921145283267e-02  6.8202929480153829e-02  6.8402633513236596e-02  6.8629000829205949e-02  6.8879666318568109e-02  6.9151945762157829e-02  6.9442851262886171e-02  6.9749111695577529e-02  7.0067198248892598e-02  7.0393355027354193e-02  7.0723634084054271e-02  7.1053932945041337e-02  7.1380030717185683e-02  7.1697616264260938e-02  7.2002298920707308e-02  7.2289589267553661e-02  7.2554835459124861e-02  7.2793100678112607e-02  7.2998971172655192e-02  7.3166294016736522e-02  7.3287861378961566e-02  7.3355085416469290e-02  7.3357746439935090e-02  7.3283944896226277e-02  7.3120446340037004e-02  7.2853667758488977e-02  7.2471610082710719e-02  7.1967107403440228e-02  7.1342597755763446e-02  7.0616602411494200e-02  6.9830546102980756e-02  6.9052972989628036e-02  6.8374178383982853e-02  6.7893933060404962e-02  6.7675032466820273e-02  1.9879793472766921e-01  6.7664158353677117e-02  3.3605079925322093e-02  3.3680428348562386e-02  3.3816849747133143e-02  3.4017720870360819e-02  3.4283253483277584e-02  3.4613368394756643e-02  3.5007806895860943e-02  3.5465911195674119e-02  3.5986485252347926e-02  3.6567634787889221e-02  3.7206599815516765e-02  3.7899590276233547e-02  3.8641633681263082e-02  3.9426446108809826e-02  4.0246337015197142e-02  4.1092154740929518e-02  4.1953272668503731e-02  4.2817605652279198e-02  4.3671633337118917e-02  4.4500393115886411e-02  4.5287394104335535e-02  4.6014400215998702e-02  4.6661043594623822e-02  4.7204270444116195e-02  4.7617702099353412e-02  4.7871123536004020e-02  4.7930486374670317e-02  4.7758999840019009e-02  4.7320018372570688e-02  4.6582370771675402e-02  4.5528422339557950e-02  4.4164321640954352e-02  4.2530573294070360e-02  4.0710292101316901e-02  3.8829666975007317e-02  3.7048708494467661e-02  3.5537676278650690e-02  3.4445060105957145e-02  3.3799516951988330e-02  6.7675192038951393e-02  6.7706518885529629e-02  3.3680681201953250e-02  3.3798623025659037e-02  3.3979775437458545e-02  3.4247479811336780e-02  3.4604178276980840e-02  3.5051520382869197e-02  3.5591147059274006e-02  3.6224475175754403e-02  3.6952444138335955e-02  3.7775188520015587e-02  3.8691678536541096e-02  3.9699331755649006e-02  4.0793615149710596e-02  4.1967664268741503e-02  4.3211950668326823e-02  4.4514028489753638e-02  4.5858383761977380e-02  4.7226394429057100e-02  4.8596384961546460e-02  4.9943727625743971e-02  5.1240906362210785e-02  5.2457426624736653e-02  5.3559441178908193e-02  5.4508994752503599e-02  5.5262909081778278e-02  5.5771578682584200e-02  5.5978355737858684e-02  5.5820724296777383e-02  5.5234940595186917e-02  5.4165781259413792e-02  5.2582139680761072e-02  5.0496534133666449e-02  4.7983589785992375e-02  4.5189729049923348e-02  4.2324711371691554e-02  3.9640674581113790e-02  3.7381369841186222e-02  3.5729284003281875e-02  3.4494855429468202e-02  6.7905368128964749e-02  6.7783575678548813e-02  3.3818373287859346e-02  3.3981400647122836e-02  3.4169869496283048e-02  3.4445297459224630e-02  3.4812401868411232e-02  3.5273400634514999e-02  3.5830349429957484e-02  3.6485161824433093e-02  3.7239320413731986e-02  3.8093537745396935e-02  3.9047374498703671e-02  4.0098820998765466e-02  4.1243863601783046e-02  4.2476063368187239e-02  4.3786181360445861e-02  4.5161887210009036e-02  4.6587583488612069e-02  4.8044366296586913e-02  4.9510121013839864e-02  5.0959720487983431e-02  5.2365251545315260e-02  5.3696148768502830e-02  5.4919074001476872e-02  5.5997371662713437e-02  5.6889997460256560e-02  5.7550021856009562e-02  5.7923212684001329e-02  5.7947802303144252e-02  5.7557236914237739e-02  5.6687957625878971e-02  5.5293788342614704e-02  5.3365459007913688e-02  5.0951889138096854e-02  4.8173366499894642e-02  4.5224149470432823e-02  4.2361566059334027e-02  3.9846333163675370e-02  3.7902922205836811e-02  3.5894733934603885e-02  6.8480444202935364e-02  6.7895046479723442e-02  3.4023041327962772e-02  3.4254096338989952e-02  3.4450409203711965e-02  3.4731852672791476e-02  3.5106716114150269e-02  3.5577663439622660e-02  3.6146954268614986e-02  3.6816722913532059e-02  3.7588666261932573e-02  3.8463706842569070e-02  3.9441603276349199e-02  4.0520530990730261e-02  4.1696655008790134e-02  4.2963724876996685e-02  4.4312728678549490e-02  4.5731644916363966e-02  4.7205326899479129e-02  4.8715542667722073e-02  5.0241173358360709e-02  5.1758543047534591e-02  5.3241812808119328e-02  5.4663322709505295e-02  5.5993715618106746e-02  5.7201645277554294e-02  5.8252893557539764e-02  5.9108852315874469e-02  5.9724626401836164e-02  6.0047511044181053e-02  6.0017286668586481e-02  5.9570225117449666e-02  5.8648930091146453e-02  5.7217241853948650e-02  5.5279932742680588e-02  5.2894066097586678e-02  5.0188978523232647e-02  4.7357190705833135e-02  4.4655340682192214e-02  4.2303604811018754e-02  3.8568344776351113e-02  6.9522011887516749e-02  6.8041367299881333e-02  3.4297227575464273e-02  3.4622407173614977e-02  3.4829491615792893e-02  3.5118872175067470e-02  3.5503934669869099e-02  3.5987881497645188e-02  3.6573202571235350e-02  3.7262248956500474e-02  3.8056912168439171e-02  3.8958280685221405e-02  3.9966243748255179e-02  4.1079079073101959e-02  4.2293047977917123e-02  4.3602033069420468e-02  4.4997258054611064e-02  4.6467128817551315e-02  4.7997228225928751e-02  4.9570483701403975e-02  5.1167506407375170e-02  5.2767073665045308e-02  5.4346691820284981e-02  5.5883136885329629e-02  5.7352831371503613e-02  5.8731891999757223e-02  5.9995699076787104e-02  6.1117923292469331e-02  6.2069112133638298e-02  6.2815186113375887e-02  6.3316526649349669e-02  6.3528462121631268e-02  6.3404648655728049e-02  6.2903037162854947e-02  6.1999288932769549e-02  6.0688644878659326e-02  5.9019734523575978e-02  5.7040473039832770e-02  5.4810266644669814e-02  5.1686973561127919e-02  4.3238707305961181e-02  7.0861891917327641e-02  6.8222984554097060e-02  3.4644128853320258e-02  3.5092725896161706e-02  3.5314310675575819e-02  3.5614185192211559e-02  3.6012662974773159e-02  3.6513696231469633e-02  3.7120069032402295e-02  3.7834393474634007e-02  3.8658790042711749e-02  3.9594529682449461e-02  4.0641631525537118e-02  4.1798462895824867e-02  4.3061370495528398e-02  4.4424383753140548e-02  4.5879031940836472e-02  4.7414312164424849e-02  4.9016834282687695e-02  5.0671152763080457e-02  5.2360276230310289e-02  5.4066324747773231e-02  5.5771284684009090e-02  5.7457795717374874e-02  5.9109903861387106e-02  6.0713746030289187e-02  6.2258217010083619e-02  6.3735799769198603e-02  6.5143836853822301e-02  6.6486363788570271e-02  6.7775713970762180e-02  6.9031117081748208e-02  7.0270418250446331e-02  7.1491229023403477e-02  7.2660235001604553e-02  7.3715362839383583e-02  7.4712515789493519e-02  7.5871965583693038e-02  7.7526795611403493e-02  7.7525675407815714e-02  5.9212091523276215e-02  7.4621605427705434e-02  6.8440416738733689e-02  3.5067883163558855e-02  3.5673319496940109e-02  3.5913918513801650e-02  3.6227352449107533e-02  3.6643086756416629e-02  3.7166086985337576e-02  3.7799498022879338e-02  3.8546241253573969e-02  3.9408697456123118e-02  4.0388330723757748e-02  4.1485282414220080e-02  4.2697993459328537e-02  4.4022892571305101e-02  4.5454197382625211e-02  4.6983870498163036e-02  4.8601761255370711e-02  5.0295946986748177e-02  5.2053269500811225e-02  5.3860048125305260e-02  5.5702944822601762e-02  5.7569965907909651e-02  5.9451619759003101e-02  6.1342333277055364e-02  6.3242401406934018e-02  6.5161042392332322e-02  6.7121532102773176e-02  6.9169658870325917e-02  7.1385955659965139e-02  7.3898679344887558e-02  7.6887026634274463e-02  8.0552845132160364e-02  8.5033028435611002e-02  9.0289449681748707e-02  9.6110099677504043e-02  1.0260163417993619e-01  1.1099460039444370e-01  1.2419594511720392e-01  1.4053072002532535e-01  1.3900780068163637e-01  1.2113796206108360e-01  6.8694247874424769e-02  3.5573582623867353e-02  3.6374660091556980e-02  3.6639854915070103e-02  3.6970600826704773e-02  3.7408256077019357e-02  3.7959137117876809e-02  3.8626821970951797e-02  3.9414582762042155e-02  4.0325077208801130e-02  4.1359954427527656e-02  4.2519452467223919e-02  4.3802063743493810e-02  4.5204317261579308e-02  4.6720730386030342e-02  4.8343968449743827e-02  5.0065229212423706e-02  5.1874845219958672e-02  5.3763080177420042e-02  5.5721094107463121e-02  5.7742075529138778e-02  5.9822598256824636e-02  6.1964378333441830e-02  6.4176829173574923e-02  6.6481219878123277e-02  6.8917915057112505e-02  7.1559108327979931e-02  7.4530133461112383e-02  7.8041304172949383e-02  8.2427103326412510e-02  8.8173100540379801e-02  9.5868235164964746e-02  1.0598885971935382e-01  1.1862143163233706e-01  1.3369472749092451e-01  1.5239732212756424e-01  1.7880491992496408e-01  2.2153524944660952e-01  2.8207770053377451e-01  3.7627948428527591e-01  4.0625939547645395e-01  6.8985135570173439e-02  3.6167439153829598e-02  3.7209911544000676e-02  3.7506688084978958e-02  3.7859411658271197e-02  3.8324755670900532e-02  3.8910819399386030e-02  3.9621683996154608e-02  4.0460997218859790e-02  4.1431688611645541e-02  4.2535563418332166e-02  4.3772924082128434e-02  4.5142321818077716e-02  4.6640500779257549e-02  4.8262590030339461e-02  5.0002567937704467e-02  5.1853987588697983e-02  5.3810921788658039e-02  5.5869077750332549e-02  5.8027057178669517e-02  6.0287806696450917e-02  6.2660429970290948e-02  6.5162745611987052e-02  6.7825339446043603e-02  7.0698479116048374e-02  7.3864243618570316e-02  7.7457561732130115e-02  8.1701052342835243e-02  8.6958856684384730e-02  9.3807282615409465e-02  1.0308029499007335e-01  1.1579694008513673e-01  1.3296808278003330e-01  1.5553453611709220e-01  1.8482444099076312e-01  2.2410004064457856e-01  2.7970741379343023e-01  3.6125195657625253e-01  4.6657542596864154e-01  5.9979026956033099e-01  6.2603446648265793e-01  6.9313844482628423e-02  3.6857016252711150e-02  3.8195595297317558e-02  3.8532802815604741e-02  3.8913416660238301e-02  3.9413725344551939e-02  4.0044162541593806e-02  4.0809371733442928e-02  4.1713375030811572e-02  4.2759345432227237e-02  4.3949211443655982e-02  4.5283350893220262e-02  4.6760513306878526e-02  4.8378045128662235e-02  5.0132461428540512e-02  5.2020349328299215e-02  5.4039532813742394e-02  5.6190397811182485e-02  5.8477291096960177e-02  6.0909974847704149e-02  6.3505238178029721e-02  6.6288937009624002e-02  6.9298970236253032e-02  7.2590053005469807e-02  7.6241696293157898e-02  8.0371664980565055e-02  8.5158514091260171e-02  9.0878774871480550e-02  9.7964518472424447e-02  1.0707188094581409e-01  1.1915758082521936e-01  1.3569340673533417e-01  1.5901509039933776e-01  1.9214030879943403e-01  2.3731193650697674e-01  2.9460504779882235e-01  3.6574797659104874e-01  4.5516302600908043e-01  5.6082634490697048e-01  6.8660907304927088e-01  6.8256957414169783e-01  6.9681293243957373e-02  3.7651546372056269e-02  3.9352546874545584e-02  3.9741549120426753e-02  4.0157707318761296e-02  4.0702363430639960e-02  4.1388986847908711e-02  4.2222819317155033e-02  4.3208226222502213e-02  4.4348596207114531e-02  4.5646014526444678e-02  4.7101129672519469e-02  4.8713396244887998e-02  5.0481759716556801e-02  5.2405771209917761e-02  5.4487018630795345e-02  5.6730687662750010e-02  5.9147055228263148e-02  6.1752781871402720e-02  6.4571988785945819e-02  6.7637240202727364e-02  7.0990665904738404e-02  7.4685540329093691e-02  7.8788716370650977e-02  8.3384506608234502e-02  8.8581227716508018e-02  9.4523276561045616e-02  1.0141451667384085e-01  1.0956147085181939e-01  1.1947972944553086e-01  1.3225009842603266e-01  1.5008534142621124e-01  1.7627075873911371e-01  2.1473555158514818e-01  2.6834129388209083e-01  3.2975302560939684e-01  3.9148295685478962e-01  4.5975364965797449e-01  5.4511982919874380e-01  6.2640383904200225e-01  6.2801417181954844e-01  7.0088599301994292e-02  3.8562320641208445e-02  4.0707224603515529e-02  4.1162889969584004e-02  4.1624767365041934e-02  4.2226187783635141e-02  4.2984547854118690e-02  4.3905694105488197e-02  4.4994305964148482e-02  4.6254064044074616e-02  4.7687514944847076e-02  4.9296286197631878e-02  5.1081857420337440e-02  5.3046872563015941e-02  5.5196822777708363e-02  5.7541784960764557e-02  6.0097850512792012e-02  6.2887948238811830e-02  6.5941921043030025e-02  6.9295872880280218e-02  7.2990868525308908e-02  7.7070994217716141e-02  8.1580601303548717e-02  8.6560410390431428e-02  9.2042443285316661e-02  9.8045315692660728e-02  1.0457572693522914e-01  1.1165216104572628e-01  1.1939970201345831e-01  1.2835135252114985e-01  1.3992865568237745e-01  1.5628128602544225e-01  1.7964073137205766e-01  2.1308546320414862e-01  2.6022215066855875e-01  3.1395670225829531e-01  3.5688253791377533e-01  3.9143767648262651e-01  4.4194896678767670e-01  4.3746745313161994e-01  4.3285449355860245e-01  7.0537071081544264e-02  3.9603067710863166e-02  4.2293386803171198e-02  4.2835707108009477e-02  4.3357281896232933e-02  4.4032389497602839e-02  4.4883517112383198e-02  4.5917135661444022e-02  4.7138364936144012e-02  4.8551676441711197e-02  5.0161152068595470e-02  5.1971252556093694e-02  5.3988225476008150e-02  5.6221895039278859e-02  5.8687354902142580e-02  6.1405984227964547e-02  6.4405312228110551e-02  6.7717518585047376e-02  7.1376632457825162e-02  7.5414618574547718e-02  7.9856434840148968e-02  8.4713873710806298e-02  8.9977787767863651e-02  9.5608600513180486e-02  1.0152666657223856e-01  1.0760867922412048e-01  1.1370700585192237e-01  1.1973124593817788e-01  1.2586238275137523e-01  1.3287714749922208e-01  1.4205475814856527e-01  1.5437706588350483e-01  1.7061306788215302e-01  1.9223602461639938e-01  2.2053296782987281e-01  2.5149184024872590e-01  2.7244067853325016e-01  2.7645207770313246e-01  2.7029455148774539e-01  1.8079098286888637e-01  1.5670600880964930e-01  7.1028045994816102e-02  4.0790121003250579e-02  4.4154007116591711e-02  4.4810861831944812e-02  4.5412050815875141e-02  4.6184594519163361e-02  4.7157730292021159e-02  4.8338825344792405e-02  4.9734238903424814e-02  5.1350984380729443e-02  5.3197531194572864e-02  5.5285017547582034e-02  5.7628719639013865e-02  6.0249114715479141e-02  6.3171785534902852e-02  6.6425608510284756e-02  7.0039113118158025e-02  7.4035370465995148e-02  7.8426010273060467e-02  8.3204862041236519e-02  8.8341378153699149e-02  9.3773741877950983e-02  9.9401868204752566e-02  1.0508202978491200e-01  1.1062854267509536e-01  1.1583504611544267e-01  1.2053827892935183e-01  1.2475037056824380e-01  1.2883083272441662e-01  1.3346767078853417e-01  1.3918244676559002e-01  1.4597999728976052e-01  1.5390774040914590e-01  1.6321530556365718e-01  1.7323699962137884e-01  1.8092173377673146e-01  1.8124828311241192e-01  1.7097654999529552e-01  1.4795953614285423e-01  8.8828756682570523e-02  8.4371018661230535e-02  7.1562415986555716e-02  4.2142029174628240e-02  4.6343022660388151e-02  4.7154859444338268e-02  4.7864897697103531e-02  4.8768847759777967e-02  4.9905539966516532e-02  5.1284666309360689e-02  5.2916784351269140e-02  5.4816293227539295e-02  5.7002122578253038e-02  5.9497786747841501e-02  6.2330374252000977e-02  6.5527839459066511e-02  6.9114418112689771e-02  7.3104586086510243e-02  7.7496485482399416e-02  8.2265895486368229e-02  8.7361552945930690e-02  9.2702109458997178e-02  9.8174624301960292e-02  1.0363467889818127e-01  1.0890934836419250e-01  1.1380658392456611e-01  1.1813767872050850e-01  1.2176113825096473e-01  1.2464904906989463e-01  1.2694581069343758e-01  1.2893052809947153e-01  1.3080198245303881e-01  1.3246956444082689e-01  1.3372901036186358e-01  1.3455241608701959e-01  1.3483936103298197e-01  1.3388848702624254e-01  1.3028017432384723e-01  1.2262878821232114e-01  1.1067075175964963e-01  9.3851031352881101e-02  6.3460935727001316e-02  7.6685458978247245e-02  7.2139681141201173e-02  4.3678201037786343e-02  4.8926154875936823e-02  4.9953290661532992e-02  5.0815143404224036e-02  5.1898522379253846e-02  5.3258046433361315e-02  5.4911248095644037e-02  5.6881729221654576e-02  5.9202294000355760e-02  6.1911533553904156e-02  6.5047132596924823e-02  6.8636978716644509e-02  7.2689760206060383e-02  7.7187148288586305e-02  8.2079135003105763e-02  8.7283116141413070e-02  9.2686406320245163e-02  9.8151346096897255e-02  1.0352208628944115e-01  1.0863253712831809e-01  1.1331584474215908e-01  1.1741689381763667e-01  1.2080997437653856e-01  1.2342211256701098e-01  1.2525572113723976e-01  1.2639051014496080e-01  1.2693326621237874e-01  1.2690882253338148e-01  1.2617406267225123e-01  1.2448168181669562e-01  1.2162883072149999e-01  1.1747237611988945e-01  1.1187399679924685e-01  1.0475454953995723e-01  9.6230869311693890e-02  8.6826636653419040e-02  7.7402478128108937e-02  6.8173173443841606e-02  5.2757179892656242e-02  7.4956761584231341e-02  7.2756431277998940e-02  4.5416500123488288e-02  5.1980067700298373e-02  5.3311651779465632e-02  5.4384007766649103e-02  5.5709140648100029e-02  5.7373827915897999e-02  5.9421385089534630e-02  6.1910697645678275e-02  6.4911552620831453e-02  6.8484376237430172e-02  7.2656052158109163e-02  7.7400692994378351e-02  8.2632326038491827e-02  8.8211320146497130e-02  9.3960669842088951e-02  9.9685727331541657e-02  1.0519222412140505e-01  1.1030038459392079e-01  1.1485535361095439e-01  1.1873517212841406e-01  1.2185740513395277e-01  1.2418461310921551e-01  1.2572697411131245e-01  1.2653709685109510e-01  1.2668832024953977e-01  1.2622828017135743e-01  1.2511296938583230e-01  1.2315505428617395e-01  1.2003765121375069e-01  1.1541276885356876e-01  1.0906521181727379e-01  1.0112911432152763e-01  9.2209559395178067e-02  8.3134405385474189e-02  7.4531317842855577e-02  6.6781386954526650e-02  6.0203003626942891e-02  5.4760685779863282e-02  4.6489045492432775e-02  7.3128399067719813e-02  7.3404910346989899e-02  4.7371573534830166e-02  5.5590083503699553e-02  5.7346842802436564e-02  5.8689876124727064e-02  6.0317738698820234e-02  6.2396439797898433e-02  6.5045445832671217e-02  6.8402042353120487e-02  7.2582499330007128e-02  7.7621783385368653e-02  8.3430294615092493e-02  8.9790565339749634e-02  9.6395657911903382e-02  1.0290994778747328e-01  1.0902583167161031e-01  1.1449931653461357e-01  1.1916265250719674e-01  1.2292175818065894e-01  1.2574719250103000e-01  1.2766355584273886e-01  1.2873792208806867e-01  1.2906532389515202e-01  1.2874843750543899e-01  1.2786891404509826e-01  1.2644972392793599e-01  1.2441346541572480e-01  1.2155302478800145e-01  1.1754589894084980e-01  1.1204993693087416e-01  1.0489555871890444e-01  9.6311564200419614e-02  8.6992961422526396e-02  7.7819132439123556e-02  6.9404190129340237e-02  6.1984326886715117e-02  5.5692172996080688e-02  5.0701593207830402e-02  4.6994274785994918e-02  4.2086759563301948e-02  7.1559286472376971e-02  7.4072298608500120e-02  4.9555205719103185e-02  5.9846733567889776e-02  6.2155039202045917e-02  6.3762699336008255e-02  6.5699431139934719e-02  6.8347108701528492e-02  7.2011855382571460e-02  7.6945117112385442e-02  8.3229247614112517e-02  9.0677515022642374e-02  9.8833084449553216e-02  1.0707796756613305e-01  1.1479513787386778e-01  1.2150397684222992e-01  1.2692116661974479e-01  1.3095058698758955e-01  1.3363540766974255e-01  1.3510468068834131e-01  1.3553092060142721e-01  1.3510048585250048e-01  1.3399139303214938e-01  1.3235249981170127e-01  1.3028051380726660e-01  1.2779477926370705e-01  1.2481433756044782e-01  1.2114900453107288e-01  1.1652550446475332e-01  1.1067217252193104e-01  1.0346405087056547e-01  9.5074452343291774e-02  8.6017755199104109e-02  7.6986496379450070e-02  6.8555691832051888e-02  6.1016181298675989e-02  5.4483317544393547e-02  4.9076626644903587e-02  4.4925049539390791e-02  4.2019863188011000e-02  3.8925612687988997e-02  7.0253052896029677e-02  7.4738730047523266e-02  5.1984951814521799e-02  6.4856283355569130e-02  6.7736018121479294e-02  6.9348951308207812e-02  7.1492131053787933e-02  7.5086412321747051e-02  8.0734649504539471e-02  8.865957431