<?xml version="1.0"?>
<VTKFile type="UnstructuredGrid"  version="0.1"  >
<UnstructuredGrid>
<Piece  NumberOfPoints="1681" NumberOfCells="3200">
<Points>
<DataArray  type="Float64"  NumberOfComponents="3"  format="ascii">0 0 0  0.025 0 0  0.05 0 0  0.075 0 0  0.1 0 0  0.125 0 0  0.15 0 0  0.175 0 0  0.2 0 0  0.225 0 0  0.25 0 0  0.275 0 0  0.3 0 0  0.325 0 0  0.35 0 0  0.375 0 0  0.4 0 0  0.425 0 0  0.45 0 0  0.475 0 0  0.5 0 0  0.525 0 0  0.55 0 0  0.575 0 0  0.6 0 0  0.625 0 0  0.65 0 0  0.675 0 0  0.7 0 0  0.725 0 0  0.75 0 0  0.775 0 0  0.8 0 0  0.825 0 0  0.85 0 0  0.875 0 0  0.9 0 0  0.925 0 0  0.95 0 0  0.975 0 0  1 0 0  0 0.025 0  0.025 0.025 0  0.05 0.025 0  0.075 0.025 0  0.1 0.025 0  0.125 0.025 0  0.15 0.025 0  0.175 0.025 0  0.2 0.025 0  0.225 0.025 0  0.25 0.025 0  0.275 0.025 0  0.3 0.025 0  0.325 0.025 0  0.35 0.025 0  0.375 0.025 0  0.4 0.025 0  0.425 0.025 0  0.45 0.025 0  0.475 0.025 0  0.5 0.025 0  0.525 0.025 0  0.55 0.025 0  0.575 0.025 0  0.6 0.025 0  0.625 0.025 0  0.65 0.025 0  0.675 0.025 0  0.7 0.025 0  0.725 0.025 0  0.75 0.025 0  0.775 0.025 0  0.8 0.025 0  0.825 0.025 0  0.85 0.025 0  0.875 0.025 0  0.9 0.025 0  0.925 0.025 0  0.95 0.025 0  0.975 0.025 0  1 0.025 0  0 0.05 0  0.025 0.05 0  0.05 0.05 0  0.075 0.05 0  0.1 0.05 0  0.125 0.05 0  0.15 0.05 0  0.175 0.05 0  0.2 0.05 0  0.225 0.05 0  0.25 0.05 0  0.275 0.05 0  0.3 0.05 0  0.325 0.05 0  0.35 0.05 0  0.375 0.05 0  0.4 0.05 0  0.425 0.05 0  0.45 0.05 0  0.475 0.05 0  0.5 0.05 0  0.525 0.05 0  0.55 0.05 0  0.575 0.05 0  0.6 0.05 0  0.625 0.05 0  0.65 0.05 0  0.675 0.05 0  0.7 0.05 0  0.725 0.05 0  0.75 0.05 0  0.775 0.05 0  0.8 0.05 0  0.825 0.05 0  0.85 0.05 0  0.875 0.05 0  0.9 0.05 0  0.925 0.05 0  0.95 0.05 0  0.975 0.05 0  1 0.05 0  0 0.075 0  0.025 0.075 0  0.05 0.075 0  0.075 0.075 0  0.1 0.075 0  0.125 0.075 0  0.15 0.075 0  0.175 0.075 0  0.2 0.075 0  0.225 0.075 0  0.25 0.075 0  0.275 0.075 0  0.3 0.075 0  0.325 0.075 0  0.35 0.075 0  0.375 0.075 0  0.4 0.075 0  0.425 0.075 0  0.45 0.075 0  0.475 0.075 0  0.5 0.075 0  0.525 0.075 0  0.55 0.075 0  0.575 0.075 0  0.6 0.075 0  0.625 0.075 0  0.65 0.075 0  0.675 0.075 0  0.7 0.075 0  0.725 0.075 0  0.75 0.075 0  0.775 0.075 0  0.8 0.075 0  0.825 0.075 0  0.85 0.075 0  0.875 0.075 0  0.9 0.075 0  0.925 0.075 0  0.95 0.075 0  0.975 0.075 0  1 0.075 0  0 0.1 0  0.025 0.1 0  0.05 0.1 0  0.075 0.1 0  0.1 0.1 0  0.125 0.1 0  0.15 0.1 0  0.175 0.1 0  0.2 0.1 0  0.225 0.1 0  0.25 0.1 0  0.275 0.1 0  0.3 0.1 0  0.325 0.1 0  0.35 0.1 0  0.375 0.1 0  0.4 0.1 0  0.425 0.1 0  0.45 0.1 0  0.475 0.1 0  0.5 0.1 0  0.525 0.1 0  0.55 0.1 0  0.575 0.1 0  0.6 0.1 0  0.625 0.1 0  0.65 0.1 0  0.675 0.1 0  0.7 0.1 0  0.725 0.1 0  0.75 0.1 0  0.775 0.1 0  0.8 0.1 0  0.825 0.1 0  0.85 0.1 0  0.875 0.1 0  0.9 0.1 0  0.925 0.1 0  0.95 0.1 0  0.975 0.1 0  1 0.1 0  0 0.125 0  0.025 0.125 0  0.05 0.125 0  0.075 0.125 0  0.1 0.125 0  0.125 0.125 0  0.15 0.125 0  0.175 0.125 0  0.2 0.125 0  0.225 0.125 0  0.25 0.125 0  0.275 0.125 0  0.3 0.125 0  0.325 0.125 0  0.35 0.125 0  0.375 0.125 0  0.4 0.125 0  0.425 0.125 0  0.45 0.125 0  0.475 0.125 0  0.5 0.125 0  0.525 0.125 0  0.55 0.125 0  0.575 0.125 0  0.6 0.125 0  0.625 0.125 0  0.65 0.125 0  0.675 0.125 0  0.7 0.125 0  0.725 0.125 0  0.75 0.125 0  0.775 0.125 0  0.8 0.125 0  0.825 0.125 0  0.85 0.125 0  0.875 0.125 0  0.9 0.125 0  0.925 0.125 0  0.95 0.125 0  0.975 0.125 0  1 0.125 0  0 0.15 0  0.025 0.15 0  0.05 0.15 0  0.075 0.15 0  0.1 0.15 0  0.125 0.15 0  0.15 0.15 0  0.175 0.15 0  0.2 0.15 0  0.225 0.15 0  0.25 0.15 0  0.275 0.15 0  0.3 0.15 0  0.325 0.15 0  0.35 0.15 0  0.375 0.15 0  0.4 0.15 0  0.425 0.15 0  0.45 0.15 0  0.475 0.15 0  0.5 0.15 0  0.525 0.15 0  0.55 0.15 0  0.575 0.15 0  0.6 0.15 0  0.625 0.15 0  0.65 0.15 0  0.675 0.15 0  0.7 0.15 0  0.725 0.15 0  0.75 0.15 0  0.775 0.15 0  0.8 0.15 0  0.825 0.15 0  0.85 0.15 0  0.875 0.15 0  0.9 0.15 0  0.925 0.15 0  0.95 0.15 0  0.975 0.15 0  1 0.15 0  0 0.175 0  0.025 0.175 0  0.05 0.175 0  0.075 0.175 0  0.1 0.175 0  0.125 0.175 0  0.15 0.175 0  0.175 0.175 0  0.2 0.175 0  0.225 0.175 0  0.25 0.175 0  0.275 0.175 0  0.3 0.175 0  0.325 0.175 0  0.35 0.175 0  0.375 0.175 0  0.4 0.175 0  0.425 0.175 0  0.45 0.175 0  0.475 0.175 0  0.5 0.175 0  0.525 0.175 0  0.55 0.175 0  0.575 0.175 0  0.6 0.175 0  0.625 0.175 0  0.65 0.175 0  0.675 0.175 0  0.7 0.175 0  0.725 0.175 0  0.75 0.175 0  0.775 0.175 0  0.8 0.175 0  0.825 0.175 0  0.85 0.175 0  0.875 0.175 0  0.9 0.175 0  0.925 0.175 0  0.95 0.175 0  0.975 0.175 0  1 0.175 0  0 0.2 0  0.025 0.2 0  0.05 0.2 0  0.075 0.2 0  0.1 0.2 0  0.125 0.2 0  0.15 0.2 0  0.175 0.2 0  0.2 0.2 0  0.225 0.2 0  0.25 0.2 0  0.275 0.2 0  0.3 0.2 0  0.325 0.2 0  0.35 0.2 0  0.375 0.2 0  0.4 0.2 0  0.425 0.2 0  0.45 0.2 0  0.475 0.2 0  0.5 0.2 0  0.525 0.2 0  0.55 0.2 0  0.575 0.2 0  0.6 0.2 0  0.625 0.2 0  0.65 0.2 0  0.675 0.2 0  0.7 0.2 0  0.725 0.2 0  0.75 0.2 0  0.775 0.2 0  0.8 0.2 0  0.825 0.2 0  0.85 0.2 0  0.875 0.2 0  0.9 0.2 0  0.925 0.2 0  0.95 0.2 0  0.975 0.2 0  1 0.2 0  0 0.225 0  0.025 0.225 0  0.05 0.225 0  0.075 0.225 0  0.1 0.225 0  0.125 0.225 0  0.15 0.225 0  0.175 0.225 0  0.2 0.225 0  0.225 0.225 0  0.25 0.225 0  0.275 0.225 0  0.3 0.225 0  0.325 0.225 0  0.35 0.225 0  0.375 0.225 0  0.4 0.225 0  0.425 0.225 0  0.45 0.225 0  0.475 0.225 0  0.5 0.225 0  0.525 0.225 0  0.55 0.225 0  0.575 0.225 0  0.6 0.225 0  0.625 0.225 0  0.65 0.225 0  0.675 0.225 0  0.7 0.225 0  0.725 0.225 0  0.75 0.225 0  0.775 0.225 0  0.8 0.225 0  0.825 0.225 0  0.85 0.225 0  0.875 0.225 0  0.9 0.225 0  0.925 0.225 0  0.95 0.225 0  0.975 0.225 0  1 0.225 0  0 0.25 0  0.025 0.25 0  0.05 0.25 0  0.075 0.25 0  0.1 0.25 0  0.125 0.25 0  0.15 0.25 0  0.175 0.25 0  0.2 0.25 0  0.225 0.25 0  0.25 0.25 0  0.275 0.25 0  0.3 0.25 0  0.325 0.25 0  0.35 0.25 0  0.375 0.25 0  0.4 0.25 0  0.425 0.25 0  0.45 0.25 0  0.475 0.25 0  0.5 0.25 0  0.525 0.25 0  0.55 0.25 0  0.575 0.25 0  0.6 0.25 0  0.625 0.25 0  0.65 0.25 0  0.675 0.25 0  0.7 0.25 0  0.725 0.25 0  0.75 0.25 0  0.775 0.25 0  0.8 0.25 0  0.825 0.25 0  0.85 0.25 0  0.875 0.25 0  0.9 0.25 0  0.925 0.25 0  0.95 0.25 0  0.975 0.25 0  1 0.25 0  0 0.275 0  0.025 0.275 0  0.05 0.275 0  0.075 0.275 0  0.1 0.275 0  0.125 0.275 0  0.15 0.275 0  0.175 0.275 0  0.2 0.275 0  0.225 0.275 0  0.25 0.275 0  0.275 0.275 0  0.3 0.275 0  0.325 0.275 0  0.35 0.275 0  0.375 0.275 0  0.4 0.275 0  0.425 0.275 0  0.45 0.275 0  0.475 0.275 0  0.5 0.275 0  0.525 0.275 0  0.55 0.275 0  0.575 0.275 0  0.6 0.275 0  0.625 0.275 0  0.65 0.275 0  0.675 0.275 0  0.7 0.275 0  0.725 0.275 0  0.75 0.275 0  0.775 0.275 0  0.8 0.275 0  0.825 0.275 0  0.85 0.275 0  0.875 0.275 0  0.9 0.275 0  0.925 0.275 0  0.95 0.275 0  0.975 0.275 0  1 0.275 0  0 0.3 0  0.025 0.3 0  0.05 0.3 0  0.075 0.3 0  0.1 0.3 0  0.125 0.3 0  0.15 0.3 0  0.175 0.3 0  0.2 0.3 0  0.225 0.3 0  0.25 0.3 0  0.275 0.3 0  0.3 0.3 0  0.325 0.3 0  0.35 0.3 0  0.375 0.3 0  0.4 0.3 0  0.425 0.3 0  0.45 0.3 0  0.475 0.3 0  0.5 0.3 0  0.525 0.3 0  0.55 0.3 0  0.575 0.3 0  0.6 0.3 0  0.625 0.3 0  0.65 0.3 0  0.675 0.3 0  0.7 0.3 0  0.725 0.3 0  0.75 0.3 0  0.775 0.3 0  0.8 0.3 0  0.825 0.3 0  0.85 0.3 0  0.875 0.3 0  0.9 0.3 0  0.925 0.3 0  0.95 0.3 0  0.975 0.3 0  1 0.3 0  0 0.325 0  0.025 0.325 0  0.05 0.325 0  0.075 0.325 0  0.1 0.325 0  0.125 0.325 0  0.15 0.325 0  0.175 0.325 0  0.2 0.325 0  0.225 0.325 0  0.25 0.325 0  0.275 0.325 0  0.3 0.325 0  0.325 0.325 0  0.35 0.325 0  0.375 0.325 0  0.4 0.325 0  0.425 0.325 0  0.45 0.325 0  0.475 0.325 0  0.5 0.325 0  0.525 0.325 0  0.55 0.325 0  0.575 0.325 0  0.6 0.325 0  0.625 0.325 0  0.65 0.325 0  0.675 0.325 0  0.7 0.325 0  0.725 0.325 0  0.75 0.325 0  0.775 0.325 0  0.8 0.325 0  0.825 0.325 0  0.85 0.325 0  0.875 0.325 0  0.9 0.325 0  0.925 0.325 0  0.95 0.325 0  0.975 0.325 0  1 0.325 0  0 0.35 0  0.025 0.35 0  0.05 0.35 0  0.075 0.35 0  0.1 0.35 0  0.125 0.35 0  0.15 0.35 0  0.175 0.35 0  0.2 0.35 0  0.225 0.35 0  0.25 0.35 0  0.275 0.35 0  0.3 0.35 0  0.325 0.35 0  0.35 0.35 0  0.375 0.35 0  0.4 0.35 0  0.425 0.35 0  0.45 0.35 0  0.475 0.35 0  0.5 0.35 0  0.525 0.35 0  0.55 0.35 0  0.575 0.35 0  0.6 0.35 0  0.625 0.35 0  0.65 0.35 0  0.675 0.35 0  0.7 0.35 0  0.725 0.35 0  0.75 0.35 0  0.775 0.35 0  0.8 0.35 0  0.825 0.35 0  0.85 0.35 0  0.875 0.35 0  0.9 0.35 0  0.925 0.35 0  0.95 0.35 0  0.975 0.35 0  1 0.35 0  0 0.375 0  0.025 0.375 0  0.05 0.375 0  0.075 0.375 0  0.1 0.375 0  0.125 0.375 0  0.15 0.375 0  0.175 0.375 0  0.2 0.375 0  0.225 0.375 0  0.25 0.375 0  0.275 0.375 0  0.3 0.375 0  0.325 0.375 0  0.35 0.375 0  0.375 0.375 0  0.4 0.375 0  0.425 0.375 0  0.45 0.375 0  0.475 0.375 0  0.5 0.375 0  0.525 0.375 0  0.55 0.375 0  0.575 0.375 0  0.6 0.375 0  0.625 0.375 0  0.65 0.375 0  0.675 0.375 0  0.7 0.375 0  0.725 0.375 0  0.75 0.375 0  0.775 0.375 0  0.8 0.375 0  0.825 0.375 0  0.85 0.375 0  0.875 0.375 0  0.9 0.375 0  0.925 0.375 0  0.95 0.375 0  0.975 0.375 0  1 0.375 0  0 0.4 0  0.025 0.4 0  0.05 0.4 0  0.075 0.4 0  0.1 0.4 0  0.125 0.4 0  0.15 0.4 0  0.175 0.4 0  0.2 0.4 0  0.225 0.4 0  0.25 0.4 0  0.275 0.4 0  0.3 0.4 0  0.325 0.4 0  0.35 0.4 0  0.375 0.4 0  0.4 0.4 0  0.425 0.4 0  0.45 0.4 0  0.475 0.4 0  0.5 0.4 0  0.525 0.4 0  0.55 0.4 0  0.575 0.4 0  0.6 0.4 0  0.625 0.4 0  0.65 0.4 0  0.675 0.4 0  0.7 0.4 0  0.725 0.4 0  0.75 0.4 0  0.775 0.4 0  0.8 0.4 0  0.825 0.4 0  0.85 0.4 0  0.875 0.4 0  0.9 0.4 0  0.925 0.4 0  0.95 0.4 0  0.975 0.4 0  1 0.4 0  0 0.425 0  0.025 0.425 0  0.05 0.425 0  0.075 0.425 0  0.1 0.425 0  0.125 0.425 0  0.15 0.425 0  0.175 0.425 0  0.2 0.425 0  0.225 0.425 0  0.25 0.425 0  0.275 0.425 0  0.3 0.425 0  0.325 0.425 0  0.35 0.425 0  0.375 0.425 0  0.4 0.425 0  0.425 0.425 0  0.45 0.425 0  0.475 0.425 0  0.5 0.425 0  0.525 0.425 0  0.55 0.425 0  0.575 0.425 0  0.6 0.425 0  0.625 0.425 0  0.65 0.425 0  0.675 0.425 0  0.7 0.425 0  0.725 0.425 0  0.75 0.425 0  0.775 0.425 0  0.8 0.425 0  0.825 0.425 0  0.85 0.425 0  0.875 0.425 0  0.9 0.425 0  0.925 0.425 0  0.95 0.425 0  0.975 0.425 0  1 0.425 0  0 0.45 0  0.02
[...]
<PointData  Scalars="ControlVisualisation"> 
<DataArray  type="Float64"  Name="ControlVisualisation"  format="ascii">-9.8444547847553456e-09  -9.8962926921068842e-09  -9.8962610762748920e-09  -9.8962072638128083e-09  -9.8961318802839421e-09  -9.8960354901314833e-09  -9.8959188755666451e-09  -9.8957829834687343e-09  -9.8956289216840291e-09  -9.8954579562375653e-09  -9.8952715060751477e-09  -9.8950711392876229e-09  -9.8948585706176677e-09  -9.8946356609261633e-09  -9.8944044194494769e-09  -9.8941670099408724e-09  -9.8939257620680650e-09  -9.8936831897919931e-09  -9.8934420187713237e-09  -9.8932052251989214e-09  -9.8929760885829590e-09  -9.8927582609598746e-09  -9.8925558544173524e-09  -9.8923735476196283e-09  -9.8922167098431380e-09  -9.8920915375372705e-09  -9.8920051922593879e-09  -9.8919659173021692e-09  -9.8919830876948560e-09  -9.8920671069121297e-09  -9.8922289925252374e-09  -9.8924793814505037e-09  -9.8928265211268436e-09  -9.8932729165343352e-09  -9.8938101243894169e-09  -9.8944125521673629e-09  -9.8950325744356414e-09  -9.8956003506480337e-09  -9.8960308973288399e-09  -9.8962600467518196e-09  -9.6889100668853142e-09  -9.8962926679337831e-09  -9.9481347813144027e-09  -9.9481026939876481e-09  -9.9480454002089644e-09  -9.9479625940557466e-09  -9.9478547914154129e-09  -9.9477227037228968e-09  -9.9475671943626419e-09  -9.9473892997095269e-09  -9.9471902308704705e-09  -9.9469713777992603e-09  -9.9467343154734516e-09  -9.9464808118755074e-09  -9.9462128384421819e-09  -9.9459325837606713e-09  -9.9456424715033785e-09  -9.9453451840336621e-09  -9.9450436935007060e-09  -9.9447413027080116e-09  -9.9444416984348996e-09  -9.9441490200714771e-09  -9.9438679462183417e-09  -9.9436038009420022e-09  -9.9433626793625533e-09  -9.9431515885765353e-09  -9.9429785939820293e-09  -9.9428529522960073e-09  -9.9427851985195099e-09  -9.9427871324268879e-09  -9.9428716025435180e-09  -9.9430519161918406e-09  -9.9433405692088497e-09  -9.9437469460713859e-09  -9.9442735733375195e-09  -9.9449105015341374e-09  -9.9456292041537680e-09  -9.9463765683744676e-09  -9.9470743383878096e-09  -9.9476297771621623e-09  -9.9479782158122593e-09  -9.8962591544839116e-09  -9.8962607888539978e-09  -9.9481024758537678e-09  -9.9480614887873523e-09  -9.9479952682741851e-09  -9.9478993630066981e-09  -9.9477741752655196e-09  -9.9476204552386405e-09  -9.9474391378513603e-09  -9.9472313515739475e-09  -9.9469984211104838e-09  -9.9467418765513869e-09  -9.9464634635057053e-09  -9.9461651555133531e-09  -9.9458491693340871e-09  -9.9455179838017030e-09  -9.9451743632590476e-09  -9.9448213869937992e-09  -9.9444624865859873e-09  -9.9441014936012109e-09  -9.9437427005073432e-09  -9.9433909379196225e-09  -9.9430516709915684e-09  -9.9427311166475942e-09  -9.9424363803203946e-09  -9.9421756058891359e-09  -9.9419581240945955e-09  -9.9417945770981214e-09  -9.9416969803018948e-09  -9.9416786718384482e-09  -9.9417540323814955e-09  -9.9419378607262130e-09  -9.9422440664640208e-09  -9.9426836079530853e-09  -9.9432603336149396e-09  -9.9439655973183468e-09  -9.9447711273148063e-09  -9.9456184661375594e-09  -9.9464235514208601e-09  -9.9470853420634266e-09  -9.9475813252588382e-09  -9.8960081900549306e-09  -9.8962058776741844e-09  -9.9480441669970950e-09  -9.9479941300907997e-09  -9.9479268751730431e-09  -9.9478300140838993e-09  -9.9477035866476412e-09  -9.9475483147641142e-09  -9.9473651394023682e-09  -9.9471551926066989e-09  -9.9469198027700432e-09  -9.9466605025718987e-09  -9.9463790380214613e-09  -9.9460773796931561e-09  -9.9457577362826884e-09  -9.9454225709515723e-09  -9.9450746212140143e-09  -9.9447169234798937e-09  -9.9443528438379714e-09  -9.9439861171650930e-09  -9.9436208971336797e-09  -9.9432618199651398e-09  -9.9429140845730907e-09  -9.9425835507796166e-09  -9.9422768531430633e-09  -9.9420015256644542e-09  -9.9417661181180865e-09  -9.9415802815743211e-09  -9.9414547616402325e-09  -9.9414012891879107e-09  -9.9414322930905504e-09  -9.9415605535803027e-09  -9.9417982350105327e-09  -9.9421556576566714e-09  -9.9426369254983901e-09  -9.9432394048533849e-09  -9.9439415662390658e-09  -9.9446998589958027e-09  -9.9454535216438008e-09  -9.9461127873117043e-09  -9.9467720169946471e-09  -9.8954261713976401e-09  -9.8961275385404944e-09  -9.9479584571350118e-09  -9.9478949256387480e-09  -9.9478266958472789e-09  -9.9477293996402316e-09  -9.9476024506850501e-09  -9.9474465386855843e-09  -9.9472626062949924e-09  -9.9470517849700303e-09  -9.9468154010602375e-09  -9.9465549813513538e-09  -9.9462722606087172e-09  -9.9459691906927196e-09  -9.9456479511932441e-09  -9.9453109617449751e-09  -9.9449608963069163e-09  -9.9446007000641222e-09  -9.9442336100503450e-09  -9.9438631810979939e-09  -9.9434933191226292e-09  -9.9431283240323377e-09  -9.9427729445458255e-09  -9.9424324467786480e-09  -9.9421126963030587e-09  -9.9418202511478359e-09  -9.9415624253133795e-09  -9.9413472955670706e-09  -9.9411835846226166e-09  -9.9410804671765869e-09  -9.9410472869665879e-09  -9.9410928682477302e-09  -9.9412242920753730e-09  -9.9414459194780481e-09  -9.9417597866345647e-09  -9.9421670721805802e-09  -9.9426519715949635e-09  -9.9432101115993230e-09  -9.9436955646563427e-09  -9.9441411945502412e-09  -9.9451864228081362e-09  -9.8943358006865387e-09  -9.8960248824061077e-09  -9.9478442520503871e-09  -9.9477624095392978e-09  -9.9476928890350151e-09  -9.9475950613112084e-09  -9.9474674755596102e-09  -9.9473107856458632e-09  -9.9471259349535161e-09  -9.9469140548207188e-09  -9.9466764686281487e-09  -9.9464146952899228e-09  -9.9461304549575461e-09  -9.9458256755436202e-09  -9.9455024998408062e-09  -9.9451632928530270e-09  -9.9448106490543315e-09  -9.9444473996360173e-09  -9.9440766202212184e-09  -9.9437016399403700e-09  -9.9433260530132740e-09  -9.9429537344645979e-09  -9.9425888626141442e-09  -9.9422359492700633e-09  -9.9418998837154890e-09  -9.9415859586400323e-09  -9.9412999050011894e-09  -9.9410478432934204e-09  -9.9408362424450478e-09  -9.9406708781514920e-09  -9.9405563329411001e-09  -9.9404930254052693e-09  -9.9404820428103535e-09  -9.9405177922376607e-09  -9.9406083990381548e-09  -9.9406914897702247e-09  -9.9407566624710833e-09  -9.9408271207392930e-09  -9.9403122834947444e-09  -9.9402692594026603e-09  -9.9427682842794050e-09  -9.8932183184278368e-09  -9.8958967950605025e-09  -9.9477001089810750e-09  -9.9475948199244804e-09  -9.9475236424313143e-09  -9.9474251495006943e-09  -9.9472967711692186e-09  -9.9471391127031774e-09  -9.9469531181609386e-09  -9.9467399193926451e-09  -9.9465008362998627e-09  -9.9462373785207530e-09  -9.9459512490898353e-09  -9.9456443482288609e-09  -9.9453187766613337e-09  -9.9449768373664216e-09  -9.9446210347303649e-09  -9.9442540703478592e-09  -9.9438788352680074e-09  -9.9434983989538863e-09  -9.9431159957615504e-09  -9.9427350086323874e-09  -9.9423589504673323e-09  -9.9419914307028908e-09  -9.9416361584433795e-09  -9.9412968651204735e-09  -9.9409776523557225e-09  -9.9406823258742815e-09  -9.9404148518806835e-09  -9.9401750944231925e-09  -9.9399642300339521e-09  -9.9397749766892937e-09  -9.9396110821068129e-09  -9.9393973685938346e-09  -9.9391280833125824e-09  -9.9384633742369617e-09  -9.9374466571229292e-09  -9.9359893575970579e-09  -9.9304955689994174e-09  -9.9245964131838659e-09  -9.9251060864459064e-09  -9.8853135754789582e-09  -9.8957418677128777e-09  -9.9475241557957010e-09  -9.9473898872927802e-09  -9.9473166653453325e-09  -9.9472173709672223e-09  -9.9470880410061302e-09  -9.9469292191758700e-09  -9.9467418504996263e-09  -9.9465270675337097e-09  -9.9462861861666521e-09  -9.9460207054453500e-09  -9.9457323092502624e-09  -9.9454228675832747e-09  -9.9450944362398309e-09  -9.9447492528133051e-09  -9.9443897268967964e-09  -9.9440184228141927e-09  -9.9436380348003288e-09  -9.9432513535970908e-09  -9.9428612251710768e-09  -9.9424704885320111e-09  -9.9420819126727199e-09  -9.9416980870378717e-09  -9.9413214757999571e-09  -9.9409540040614863e-09  -9.9405978381928218e-09  -9.9402523470533678e-09  -9.9399210256067784e-09  -9.9396016959969591e-09  -9.9392971783193043e-09  -9.9389650712901981e-09  -9.9385677194343455e-09  -9.9378830192048526e-09  -9.9370062565057435e-09  -9.9342854659746715e-09  -9.9267225406728539e-09  -9.9117210754013725e-09  -9.8489024374998837e-09  5.1060970052729804e-04  9.8189475586833275e-02  6.6775057371938687e-02  -9.8955583709303367e-09  -9.9473140622089870e-09  -9.9471447769995494e-09  -9.9470690946519764e-09  -9.9469688610735865e-09  -9.9468384210965064e-09  -9.9466782426490565e-09  -9.9464892714594108e-09  -9.9462726405991736e-09  -9.9460296610462300e-09  -9.9457618196638901e-09  -9.9454707793109690e-09  -9.9451583783648230e-09  -9.9448266276024562e-09  -9.9444777009948035e-09  -9.9441139170669739e-09  -9.9437377066650908e-09  -9.9433515690829381e-09  -9.9429580075603778e-09  -9.9425594642549667e-09  -9.9421582152970806e-09  -9.9417563326191121e-09  -9.9413553657602650e-09  -9.9409562775168840e-09  -9.9405582084067831e-09  -9.9401602818708395e-09  -9.9397611242557314e-09  -9.9393652665593555e-09  -9.9389701220723461e-09  -9.9384987877910602e-09  -9.9379240524702070e-09  -9.9370804690663757e-09  -9.9346773328696684e-09  -9.9272795244963367e-09  -9.9078504523884985e-09  -9.7705212691409022e-09  9.8012468721747889e-02  3.2110089197519021e-01  5.7979007347568101e-01  7.9473897578964492e-01  9.0760970535794505e-01  -9.8953442216712908e-09  -9.9470669756238289e-09  -9.9468560045012589e-09  -9.9467774130826520e-09  -9.9466761053379262e-09  -9.9465444028965433e-09  -9.9463826821949553e-09  -9.9461918890545660e-09  -9.9459731562369392e-09  -9.9457277879491294e-09  -9.9454572561862407e-09  -9.9451632002057808e-09  -9.9448474258640667e-09  -9.9445119024206570e-09  -9.9441587495152189e-09  -9.9437902101019041e-09  -9.9434085954837804e-09  -9.9430162223506769e-09  -9.9426153212396488e-09  -9.9422079865629794e-09  -9.9417959855151213e-09  -9.9413806010024768e-09  -9.9409619629313540e-09  -9.9405391813194641e-09  -9.9401120789812192e-09  -9.9396718548443175e-09  -9.9392290813423002e-09  -9.9386817008577962e-09  -9.9381817895359099e-09  -9.9372927391355796e-09  -9.9356930050447481e-09  -9.9291072729965518e-09  -9.9118856860645375e-09  -9.7986576798125701e-09  1.0274460704271696e-01  3.7665445828892358e-01  7.0538527976949306e-01  9.8922125232596758e-01  1.0000000096980823e+00  1.0000000098414144e+00  1.0000000096930688e+00  -9.8950969378198785e-09  -9.9467794392972338e-09  -9.9465193303728879e-09  -9.9464373434474836e-09  -9.9463348344680150e-09  -9.9462017307340412e-09  -9.9460382995732947e-09  -9.9458454856245015e-09  -9.9456244191727855e-09  -9.9453763936830218e-09  -9.9451028610334871e-09  -9.9448054321827206e-09  -9.9444858790393862e-09  -9.9441461355076094e-09  -9.9437882815218852e-09  -9.9434145142693634e-09  -9.9430270717568217e-09  -9.9426281472632877e-09  -9.9422197634235899e-09  -9.9418035389892649e-09  -9.9413806061134173e-09  -9.9409512375162726e-09  -9.9405169666768960e-09  -9.9400728476144170e-09  -9.9396272840372541e-09  -9.9390930205947529e-09  -9.9386011370153538e-09  -9.9375924318179210e-09  -9.9366669970214215e-09  -9.9307891416315241e-09  -9.9173349460005855e-09  -9.8479579809357101e-09  7.0111029547365505e-02  3.3658780658261994e-01  6.7035621582869975e-01  9.7159950874518619e-01  1.0000000096665642e+00  1.0000000098262114e+00  1.0000000098818889e+00  1.0000000099098574e+00  1.0000000098359247e+00  -9.8948135815655707e-09  -9.9464472870224615e-09  -9.9461296219541131e-09  -9.9460437095323310e-09  -9.9459398878651455e-09  -9.9458052694266677e-09  -9.9456399924107217e-09  -9.9454449978563717e-09  -9.9452214091173801e-09  -9.9449705014404105e-09  -9.9446936963929373e-09  -9.9443925648935340e-09  -9.9440688356208241e-09  -9.9437244098362142e-09  -9.9433613680154084e-09  -9.9429819388858112e-09  -9.9425884038710692e-09  -9.9421827089849228e-09  -9.9417667069449148e-09  -9.9413411905562219e-09  -9.9409088299490603e-09  -9.9404670148399477e-09  -9.9400222491549834e-09  -9.9395222943105061e-09  -9.9390493480064853e-09  -9.9382491685550345e-09  -9.9375619771515728e-09  -9.9320248906080396e-09  -9.9216710441100584e-09  -9.8775751118330712e-09  3.1949207292052431e-02  2.7356726896592148e-01  5.9652071948366914e-01  9.0179358813972110e-01  1.0000000094009884e+00  1.0000000097411330e+00  1.0000000098259234e+00  1.0000000098629918e+00  1.0000000098730417e+00  1.0000000098720399e+00  1.0000000097820649e+00  -9.8944906883707704e-09  -9.9460655067582885e-09  -9.9456806724908176e-09  -9.9455902539918722e-09  -9.9454850343757285e-09  -9.9453488302520475e-09  -9.9451816282283795e-09  -9.9449843621146009e-09  -9.9447581401350379e-09  -9.9445042039115599e-09  -9.9442239216241471e-09  -9.9439187987852044e-09  -9.9435905128416892e-09  -9.9432409348887932e-09  -9.9428722223860360e-09  -9.9424865398229994e-09  -9.9420865064179654e-09  -9.9416735395414724e-09  -9.9412512269744278e-09  -9.9408176814645593e-09  -9.9403772699366727e-09  -9.9398994781361153e-09  -9.9394235675705709e-09  -9.9387510640549730e-09  -9.9380690759466978e-09  -9.9340567499169830e-09  -9.9256378825977141e-09  -9.8925498968376621e-09  1.3462036614315577e-08  2.1526447370296117e-01  5.2331926611211799e-01  8.3220025827429800e-01  1.0000000081627998e+00  1.0000000096072876e+00  1.0000000097468740e+00  1.0000000097879955e+00  1.0000000097885438e+00  1.0000000097562705e+00  1.0000000096206416e+00  1.0000000063685597e+00  9.3786154591291537e-01  -9.8941241789054789e-09  -9.9456280644513878e-09  -9.9451649640335901e-09  -9.9450693977575031e-09  -9.9449627344088742e-09  -9.9448249406406651e-09  -9.9446558270394607e-09  -9.9444563130637472e-09  -9.9442274745877784e-09  -9.9439704943184058e-09  -9.9436866622528790e-09  -9.9433773821239731e-09  -9.9430442295347163e-09  -9.9426888340018316e-09  -9.9423135598288285e-09  -9.9419203594853835e-09  -9.9415145879341544e-09  -9.9410954866272590e-09  -9.9406663374751933e-09  -9.9402103104053721e-09  -9.9397322237086960e-09  -9.9391538468843572e-09  -9.9384467025046991e-09  -9.9354318819196231e-09  -9.9278997383421631e-09  -9.9029402490786922e-09  -9.5548423467291909e-09  1.6550233952776525e-01  4.6128916491252719e-01  7.6960684227427900e-01  9.7767101898641195e-01  1.0000000094002377e+00  1.0000000096480519e+00  1.0000000097064576e+00  1.0000000097067463e+00  1.0000000096159207e+00  1.0000000086045853e+00  8.4582685314448158e-01  5.5773345382079509e-01  2.4803781557957993e-01  9.6523846867960089e-02  -9.8937092519916920e-09  -9.9451276767497315e-09  -9.9445733551260742e-09  -9.9444719199339554e-09  -9.9443638213134051e-09  -9.9442245328950804e-09  -9.9440536622921795e-09  -9.9438521068223462e-09  -9.9436208969358247e-09  -9.9433611240347264e-09  -9.9430739197856231e-09  -9.9427603645750818e-09  -9.9424218649582133e-09  -9.9420597300466291e-09  -9.9416776998235281e-09  -9.9412763219577144e-09  -9.9408619529848855e-09  -9.9404275778019852e-09  -9.9399560056670715e-09  -9.9394602891930458e-09  -9.9387362596751726e-09  -9.9365255266130349e-09  -9.9296332979144684e-09  -9.9098681533590258e-09  -9.7500760059901135e-09  1.2695769447832531e-01  4.0163888698286071e-01  7.0784482886864375e-01  9.3149381551175059e-01  1.0000000089964980e+00  1.0000000095168391e+00  1.0000000096139912e+00  1.0000000096255055e+00  1.0000000095036559e+00  1.0000000070834241e+00  8.3105508404836226e-01  5.3333107998726959e-01  2.3349516218693023e-01  1.9211489930818951e-02  -9.8936660537314889e-09  -9.8685105916414789e-09  -9.8932402602982507e-09  -9.9445555210195937e-09  -9.9438946687870285e-09  -9.9437865238808029e-09  -9.9436770567227202e-09  -9.9435365073232639e-09  -9.9433642698849864e-09  -9.9431612110220677e-09  -9.9429282431397143e-09  -9.9426661855266351e-09  -9.9423759611554476e-09  -9.9420584078681943e-09  -9.9417155208873867e-09  -9.9413468521022531e-09  -9.9409527938681491e-09  -9.9405309848531258e-09  -9.9400655224952903e-09  -9.9396379973584306e-09  -9.9389212458211955e-09  -9.9373976053433131e-09  -9.9310246483838613e-09  -9.9152459964529358e-09  -9.8199278867080692e-09  9.2553843327497665e-02  3.5007896441336883e-01  6.5228941054189971e-01  8.8830223078780302e-01  1.0000000074826971e+00  1.0000000093289982e+00  1.0000000094999033e+00  1.0000000095253974e+00  1.0000000093859600e+00  1.0000000051724163e+00  8.4014302922399153e-01  5.5566791400811255e-01  2.5246984377192072e-01  3.3710240924391774e-02  -9.8585192058883561e-09  -9.9111494711574080e-09  -9.9271291012983046e-09  -9.8857617578826500e-09  -9.8927105815127334e-09  -9.9439008693270372e-09  -9.9431151380940879e-09  -9.9429992346647041e-09  -9.9428885267836757e-09  -9.9427471708706153e-09  -9.9425742971494033e-09  -9.9423706175252768e-09  -9.9421369019769695e-09  -9.9418738913066677e-09  -9.9415828878610170e-09  -9.9412629495508688e-09  -9.9409125044297372e-09  -9.9405271591764027e-09  -9.9400909638463517e-09  -9.9396694955832763e-09  -9.9389546953775155e-09  -9.9379948755146509e-09  -9.9320775901713861e-09  -9.9195553593951722e-09  -9.8564949064060039e-09  6.0169133494224238e-02  3.0356602135732613e-01  6.0250791383219660e-01  8.4948275909208093e-01  9.9271687458893809e-01  1.0000000090135257e+00  1.0000000093252779e+00  1.0000000093804846e+00  1.0000000092295687e+00  1.0000000011949328e+00  8.5222562721396045e-01  5.8525220426394575e-01  2.8142305942247059e-01  5.0583492877470035e-02  -9.8494588882949610e-09  -9.9114292238415535e-09  -9.9217065140250013e-09  -9.9279714730430396e-09  -9.9339934495896243e-09  -9.8861216813685433e-09  -9.8921125033948382e-09  -9.9431506483512331e-09  -9.9422176964375305e-09  -9.9420925992930322e-09  -9.9419807316752647e-09  -9.9418391380220606e-09  -9.9416667542137402e-09  -9.9414644112086797e-09  -9.9412330425472368e-09  -9.9409716868152923e-09  -9.9406784072742093e-09  -9.9403482385597805e-09  -9.9399750264749614e-09  -9.9395944606769634e-09  -9.9389883157150636e-09  -9.9381945379293001e-09  -9.9326046795593414e-09  -9.9227730198393490e-09  -9.8785175823683776e-09  3.0080624017802107e-02  2.5869192696192989e-01  5.5338383826264836e-01  8.1531320101695870e-01  9.6727320482487977e-01  1.0000000085604313e+00  1.0000000090953689e+00  1.0000000091942736e+00  1.0000000090179613e+00  9.9999997828462195e-01  8.6343352300786647e-01  6.1561255425394867e-01  3.1353900097378712e-01  7.1471622201016063e-02  -9.8332784636130467e-09  -9.9121109165698755e-09  -9.9246789607322918e-09  -9.9301245911059674e-09  -9.9317258455582026e-09  -9.9325854523371357e-09  -9.9356862418760397e-09  -9.8867850691565976e-09  -9.8914373173911856e-09  -9.9422890268695974e-09  -9.9411809873916574e-09  -9.9410442154582904e-09  -9.9409309008295933e-09  -9.9407903648384287e-09  -9.9406215460453360e-09  -9.9404237408617605e-09  -9.9401943664257257e-09  -9.9399290232404753e-09  -9.9396283337948864e-09  -9.9393063576455061e-09  -9.9388240211747259e-09  -9.9380997056425362e-09  -9.9335997821155342e-09  -9.9253864336863484e-09  -9.8906766534820310e-09  4.1487750441834316e-03  2.1660482695952835e-01  5.0501876140706981e-01  7.8124279802474650e-01  9.4447048037418002e-01  1.0000000077919582e+00  1.0000000088867675e+00  1.0000000090410244e+00  1.0000000087927712e+00  9.9951642508870231e-01  8.7465242716036340e-01  6.4532163591833847e-01  3.4649213409610669e-01  9.4681333924392597e-02  -9.8048231710170330e-09  -9.9110823760678302e-09  -9.9265465292946042e-09  -9.9323171217344148e-09  -9.9340246969862942e-09  -9.9344367044031106e-09  -9.9346461308043721e-09  -9.9349556622757069e-09  -9.9373193302789570e-09  -9.8878346975531394e-09  -9.8906756775275921e-09  -9.9412968165612178e-09  -9.9399778234234467e-09  -9.9398252990700428e-09  -9.9397104179668794e-09  -9.9395724226458123e-09  -9.9394065697720223e-09  -9.9392102493150007e-09  -9.9389855439948177e-09  -9.9387330057873094e-09  -9.9383662650795732e-09  -9.9377109212570560e-09  -9.9341381773399074e-09  -9.9267666495846770e-09  -9.8992176165437427e-09  -9.3163168098443713e-09  1.7754173987933758e-01  4.6062617823510549e-01  7.4727535385290522e-01  9.2303572354948782e-01  1.0000000062301226e+00  1.0000000087173828e+