<?xml version="1.0"?>
<VTKFile type="UnstructuredGrid"  version="0.1"  >
<UnstructuredGrid>
<Piece  NumberOfPoints="1681" NumberOfCells="3200">
<Points>
<DataArray  type="Float64"  NumberOfComponents="3"  format="ascii">0 0 0  0.025 0 0  0.05 0 0  0.075 0 0  0.1 0 0  0.125 0 0  0.15 0 0  0.175 0 0  0.2 0 0  0.225 0 0  0.25 0 0  0.275 0 0  0.3 0 0  0.325 0 0  0.35 0 0  0.375 0 0  0.4 0 0  0.425 0 0  0.45 0 0  0.475 0 0  0.5 0 0  0.525 0 0  0.55 0 0  0.575 0 0  0.6 0 0  0.625 0 0  0.65 0 0  0.675 0 0  0.7 0 0  0.725 0 0  0.75 0 0  0.775 0 0  0.8 0 0  0.825 0 0  0.85 0 0  0.875 0 0  0.9 0 0  0.925 0 0  0.95 0 0  0.975 0 0  1 0 0  0 0.025 0  0.025 0.025 0  0.05 0.025 0  0.075 0.025 0  0.1 0.025 0  0.125 0.025 0  0.15 0.025 0  0.175 0.025 0  0.2 0.025 0  0.225 0.025 0  0.25 0.025 0  0.275 0.025 0  0.3 0.025 0  0.325 0.025 0  0.35 0.025 0  0.375 0.025 0  0.4 0.025 0  0.425 0.025 0  0.45 0.025 0  0.475 0.025 0  0.5 0.025 0  0.525 0.025 0  0.55 0.025 0  0.575 0.025 0  0.6 0.025 0  0.625 0.025 0  0.65 0.025 0  0.675 0.025 0  0.7 0.025 0  0.725 0.025 0  0.75 0.025 0  0.775 0.025 0  0.8 0.025 0  0.825 0.025 0  0.85 0.025 0  0.875 0.025 0  0.9 0.025 0  0.925 0.025 0  0.95 0.025 0  0.975 0.025 0  1 0.025 0  0 0.05 0  0.025 0.05 0  0.05 0.05 0  0.075 0.05 0  0.1 0.05 0  0.125 0.05 0  0.15 0.05 0  0.175 0.05 0  0.2 0.05 0  0.225 0.05 0  0.25 0.05 0  0.275 0.05 0  0.3 0.05 0  0.325 0.05 0  0.35 0.05 0  0.375 0.05 0  0.4 0.05 0  0.425 0.05 0  0.45 0.05 0  0.475 0.05 0  0.5 0.05 0  0.525 0.05 0  0.55 0.05 0  0.575 0.05 0  0.6 0.05 0  0.625 0.05 0  0.65 0.05 0  0.675 0.05 0  0.7 0.05 0  0.725 0.05 0  0.75 0.05 0  0.775 0.05 0  0.8 0.05 0  0.825 0.05 0  0.85 0.05 0  0.875 0.05 0  0.9 0.05 0  0.925 0.05 0  0.95 0.05 0  0.975 0.05 0  1 0.05 0  0 0.075 0  0.025 0.075 0  0.05 0.075 0  0.075 0.075 0  0.1 0.075 0  0.125 0.075 0  0.15 0.075 0  0.175 0.075 0  0.2 0.075 0  0.225 0.075 0  0.25 0.075 0  0.275 0.075 0  0.3 0.075 0  0.325 0.075 0  0.35 0.075 0  0.375 0.075 0  0.4 0.075 0  0.425 0.075 0  0.45 0.075 0  0.475 0.075 0  0.5 0.075 0  0.525 0.075 0  0.55 0.075 0  0.575 0.075 0  0.6 0.075 0  0.625 0.075 0  0.65 0.075 0  0.675 0.075 0  0.7 0.075 0  0.725 0.075 0  0.75 0.075 0  0.775 0.075 0  0.8 0.075 0  0.825 0.075 0  0.85 0.075 0  0.875 0.075 0  0.9 0.075 0  0.925 0.075 0  0.95 0.075 0  0.975 0.075 0  1 0.075 0  0 0.1 0  0.025 0.1 0  0.05 0.1 0  0.075 0.1 0  0.1 0.1 0  0.125 0.1 0  0.15 0.1 0  0.175 0.1 0  0.2 0.1 0  0.225 0.1 0  0.25 0.1 0  0.275 0.1 0  0.3 0.1 0  0.325 0.1 0  0.35 0.1 0  0.375 0.1 0  0.4 0.1 0  0.425 0.1 0  0.45 0.1 0  0.475 0.1 0  0.5 0.1 0  0.525 0.1 0  0.55 0.1 0  0.575 0.1 0  0.6 0.1 0  0.625 0.1 0  0.65 0.1 0  0.675 0.1 0  0.7 0.1 0  0.725 0.1 0  0.75 0.1 0  0.775 0.1 0  0.8 0.1 0  0.825 0.1 0  0.85 0.1 0  0.875 0.1 0  0.9 0.1 0  0.925 0.1 0  0.95 0.1 0  0.975 0.1 0  1 0.1 0  0 0.125 0  0.025 0.125 0  0.05 0.125 0  0.075 0.125 0  0.1 0.125 0  0.125 0.125 0  0.15 0.125 0  0.175 0.125 0  0.2 0.125 0  0.225 0.125 0  0.25 0.125 0  0.275 0.125 0  0.3 0.125 0  0.325 0.125 0  0.35 0.125 0  0.375 0.125 0  0.4 0.125 0  0.425 0.125 0  0.45 0.125 0  0.475 0.125 0  0.5 0.125 0  0.525 0.125 0  0.55 0.125 0  0.575 0.125 0  0.6 0.125 0  0.625 0.125 0  0.65 0.125 0  0.675 0.125 0  0.7 0.125 0  0.725 0.125 0  0.75 0.125 0  0.775 0.125 0  0.8 0.125 0  0.825 0.125 0  0.85 0.125 0  0.875 0.125 0  0.9 0.125 0  0.925 0.125 0  0.95 0.125 0  0.975 0.125 0  1 0.125 0  0 0.15 0  0.025 0.15 0  0.05 0.15 0  0.075 0.15 0  0.1 0.15 0  0.125 0.15 0  0.15 0.15 0  0.175 0.15 0  0.2 0.15 0  0.225 0.15 0  0.25 0.15 0  0.275 0.15 0  0.3 0.15 0  0.325 0.15 0  0.35 0.15 0  0.375 0.15 0  0.4 0.15 0  0.425 0.15 0  0.45 0.15 0  0.475 0.15 0  0.5 0.15 0  0.525 0.15 0  0.55 0.15 0  0.575 0.15 0  0.6 0.15 0  0.625 0.15 0  0.65 0.15 0  0.675 0.15 0  0.7 0.15 0  0.725 0.15 0  0.75 0.15 0  0.775 0.15 0  0.8 0.15 0  0.825 0.15 0  0.85 0.15 0  0.875 0.15 0  0.9 0.15 0  0.925 0.15 0  0.95 0.15 0  0.975 0.15 0  1 0.15 0  0 0.175 0  0.025 0.175 0  0.05 0.175 0  0.075 0.175 0  0.1 0.175 0  0.125 0.175 0  0.15 0.175 0  0.175 0.175 0  0.2 0.175 0  0.225 0.175 0  0.25 0.175 0  0.275 0.175 0  0.3 0.175 0  0.325 0.175 0  0.35 0.175 0  0.375 0.175 0  0.4 0.175 0  0.425 0.175 0  0.45 0.175 0  0.475 0.175 0  0.5 0.175 0  0.525 0.175 0  0.55 0.175 0  0.575 0.175 0  0.6 0.175 0  0.625 0.175 0  0.65 0.175 0  0.675 0.175 0  0.7 0.175 0  0.725 0.175 0  0.75 0.175 0  0.775 0.175 0  0.8 0.175 0  0.825 0.175 0  0.85 0.175 0  0.875 0.175 0  0.9 0.175 0  0.925 0.175 0  0.95 0.175 0  0.975 0.175 0  1 0.175 0  0 0.2 0  0.025 0.2 0  0.05 0.2 0  0.075 0.2 0  0.1 0.2 0  0.125 0.2 0  0.15 0.2 0  0.175 0.2 0  0.2 0.2 0  0.225 0.2 0  0.25 0.2 0  0.275 0.2 0  0.3 0.2 0  0.325 0.2 0  0.35 0.2 0  0.375 0.2 0  0.4 0.2 0  0.425 0.2 0  0.45 0.2 0  0.475 0.2 0  0.5 0.2 0  0.525 0.2 0  0.55 0.2 0  0.575 0.2 0  0.6 0.2 0  0.625 0.2 0  0.65 0.2 0  0.675 0.2 0  0.7 0.2 0  0.725 0.2 0  0.75 0.2 0  0.775 0.2 0  0.8 0.2 0  0.825 0.2 0  0.85 0.2 0  0.875 0.2 0  0.9 0.2 0  0.925 0.2 0  0.95 0.2 0  0.975 0.2 0  1 0.2 0  0 0.225 0  0.025 0.225 0  0.05 0.225 0  0.075 0.225 0  0.1 0.225 0  0.125 0.225 0  0.15 0.225 0  0.175 0.225 0  0.2 0.225 0  0.225 0.225 0  0.25 0.225 0  0.275 0.225 0  0.3 0.225 0  0.325 0.225 0  0.35 0.225 0  0.375 0.225 0  0.4 0.225 0  0.425 0.225 0  0.45 0.225 0  0.475 0.225 0  0.5 0.225 0  0.525 0.225 0  0.55 0.225 0  0.575 0.225 0  0.6 0.225 0  0.625 0.225 0  0.65 0.225 0  0.675 0.225 0  0.7 0.225 0  0.725 0.225 0  0.75 0.225 0  0.775 0.225 0  0.8 0.225 0  0.825 0.225 0  0.85 0.225 0  0.875 0.225 0  0.9 0.225 0  0.925 0.225 0  0.95 0.225 0  0.975 0.225 0  1 0.225 0  0 0.25 0  0.025 0.25 0  0.05 0.25 0  0.075 0.25 0  0.1 0.25 0  0.125 0.25 0  0.15 0.25 0  0.175 0.25 0  0.2 0.25 0  0.225 0.25 0  0.25 0.25 0  0.275 0.25 0  0.3 0.25 0  0.325 0.25 0  0.35 0.25 0  0.375 0.25 0  0.4 0.25 0  0.425 0.25 0  0.45 0.25 0  0.475 0.25 0  0.5 0.25 0  0.525 0.25 0  0.55 0.25 0  0.575 0.25 0  0.6 0.25 0  0.625 0.25 0  0.65 0.25 0  0.675 0.25 0  0.7 0.25 0  0.725 0.25 0  0.75 0.25 0  0.775 0.25 0  0.8 0.25 0  0.825 0.25 0  0.85 0.25 0  0.875 0.25 0  0.9 0.25 0  0.925 0.25 0  0.95 0.25 0  0.975 0.25 0  1 0.25 0  0 0.275 0  0.025 0.275 0  0.05 0.275 0  0.075 0.275 0  0.1 0.275 0  0.125 0.275 0  0.15 0.275 0  0.175 0.275 0  0.2 0.275 0  0.225 0.275 0  0.25 0.275 0  0.275 0.275 0  0.3 0.275 0  0.325 0.275 0  0.35 0.275 0  0.375 0.275 0  0.4 0.275 0  0.425 0.275 0  0.45 0.275 0  0.475 0.275 0  0.5 0.275 0  0.525 0.275 0  0.55 0.275 0  0.575 0.275 0  0.6 0.275 0  0.625 0.275 0  0.65 0.275 0  0.675 0.275 0  0.7 0.275 0  0.725 0.275 0  0.75 0.275 0  0.775 0.275 0  0.8 0.275 0  0.825 0.275 0  0.85 0.275 0  0.875 0.275 0  0.9 0.275 0  0.925 0.275 0  0.95 0.275 0  0.975 0.275 0  1 0.275 0  0 0.3 0  0.025 0.3 0  0.05 0.3 0  0.075 0.3 0  0.1 0.3 0  0.125 0.3 0  0.15 0.3 0  0.175 0.3 0  0.2 0.3 0  0.225 0.3 0  0.25 0.3 0  0.275 0.3 0  0.3 0.3 0  0.325 0.3 0  0.35 0.3 0  0.375 0.3 0  0.4 0.3 0  0.425 0.3 0  0.45 0.3 0  0.475 0.3 0  0.5 0.3 0  0.525 0.3 0  0.55 0.3 0  0.575 0.3 0  0.6 0.3 0  0.625 0.3 0  0.65 0.3 0  0.675 0.3 0  0.7 0.3 0  0.725 0.3 0  0.75 0.3 0  0.775 0.3 0  0.8 0.3 0  0.825 0.3 0  0.85 0.3 0  0.875 0.3 0  0.9 0.3 0  0.925 0.3 0  0.95 0.3 0  0.975 0.3 0  1 0.3 0  0 0.325 0  0.025 0.325 0  0.05 0.325 0  0.075 0.325 0  0.1 0.325 0  0.125 0.325 0  0.15 0.325 0  0.175 0.325 0  0.2 0.325 0  0.225 0.325 0  0.25 0.325 0  0.275 0.325 0  0.3 0.325 0  0.325 0.325 0  0.35 0.325 0  0.375 0.325 0  0.4 0.325 0  0.425 0.325 0  0.45 0.325 0  0.475 0.325 0  0.5 0.325 0  0.525 0.325 0  0.55 0.325 0  0.575 0.325 0  0.6 0.325 0  0.625 0.325 0  0.65 0.325 0  0.675 0.325 0  0.7 0.325 0  0.725 0.325 0  0.75 0.325 0  0.775 0.325 0  0.8 0.325 0  0.825 0.325 0  0.85 0.325 0  0.875 0.325 0  0.9 0.325 0  0.925 0.325 0  0.95 0.325 0  0.975 0.325 0  1 0.325 0  0 0.35 0  0.025 0.35 0  0.05 0.35 0  0.075 0.35 0  0.1 0.35 0  0.125 0.35 0  0.15 0.35 0  0.175 0.35 0  0.2 0.35 0  0.225 0.35 0  0.25 0.35 0  0.275 0.35 0  0.3 0.35 0  0.325 0.35 0  0.35 0.35 0  0.375 0.35 0  0.4 0.35 0  0.425 0.35 0  0.45 0.35 0  0.475 0.35 0  0.5 0.35 0  0.525 0.35 0  0.55 0.35 0  0.575 0.35 0  0.6 0.35 0  0.625 0.35 0  0.65 0.35 0  0.675 0.35 0  0.7 0.35 0  0.725 0.35 0  0.75 0.35 0  0.775 0.35 0  0.8 0.35 0  0.825 0.35 0  0.85 0.35 0  0.875 0.35 0  0.9 0.35 0  0.925 0.35 0  0.95 0.35 0  0.975 0.35 0  1 0.35 0  0 0.375 0  0.025 0.375 0  0.05 0.375 0  0.075 0.375 0  0.1 0.375 0  0.125 0.375 0  0.15 0.375 0  0.175 0.375 0  0.2 0.375 0  0.225 0.375 0  0.25 0.375 0  0.275 0.375 0  0.3 0.375 0  0.325 0.375 0  0.35 0.375 0  0.375 0.375 0  0.4 0.375 0  0.425 0.375 0  0.45 0.375 0  0.475 0.375 0  0.5 0.375 0  0.525 0.375 0  0.55 0.375 0  0.575 0.375 0  0.6 0.375 0  0.625 0.375 0  0.65 0.375 0  0.675 0.375 0  0.7 0.375 0  0.725 0.375 0  0.75 0.375 0  0.775 0.375 0  0.8 0.375 0  0.825 0.375 0  0.85 0.375 0  0.875 0.375 0  0.9 0.375 0  0.925 0.375 0  0.95 0.375 0  0.975 0.375 0  1 0.375 0  0 0.4 0  0.025 0.4 0  0.05 0.4 0  0.075 0.4 0  0.1 0.4 0  0.125 0.4 0  0.15 0.4 0  0.175 0.4 0  0.2 0.4 0  0.225 0.4 0  0.25 0.4 0  0.275 0.4 0  0.3 0.4 0  0.325 0.4 0  0.35 0.4 0  0.375 0.4 0  0.4 0.4 0  0.425 0.4 0  0.45 0.4 0  0.475 0.4 0  0.5 0.4 0  0.525 0.4 0  0.55 0.4 0  0.575 0.4 0  0.6 0.4 0  0.625 0.4 0  0.65 0.4 0  0.675 0.4 0  0.7 0.4 0  0.725 0.4 0  0.75 0.4 0  0.775 0.4 0  0.8 0.4 0  0.825 0.4 0  0.85 0.4 0  0.875 0.4 0  0.9 0.4 0  0.925 0.4 0  0.95 0.4 0  0.975 0.4 0  1 0.4 0  0 0.425 0  0.025 0.425 0  0.05 0.425 0  0.075 0.425 0  0.1 0.425 0  0.125 0.425 0  0.15 0.425 0  0.175 0.425 0  0.2 0.425 0  0.225 0.425 0  0.25 0.425 0  0.275 0.425 0  0.3 0.425 0  0.325 0.425 0  0.35 0.425 0  0.375 0.425 0  0.4 0.425 0  0.425 0.425 0  0.45 0.425 0  0.475 0.425 0  0.5 0.425 0  0.525 0.425 0  0.55 0.425 0  0.575 0.425 0  0.6 0.425 0  0.625 0.425 0  0.65 0.425 0  0.675 0.425 0  0.7 0.425 0  0.725 0.425 0  0.75 0.425 0  0.775 0.425 0  0.8 0.425 0  0.825 0.425 0  0.85 0.425 0  0.875 0.425 0  0.9 0.425 0  0.925 0.425 0  0.95 0.425 0  0.975 0.425 0  1 0.425 0  0 0.45 0  0.02
[...]
<PointData  Scalars="ControlVisualisation"> 
<DataArray  type="Float64"  Name="ControlVisualisation"  format="ascii">4.0995953814380504e-01  4.0993817812061256e-01  4.0994360493748361e-01  4.0996532846645461e-01  4.1000057762064346e-01  4.1004048016211492e-01  4.1007739761936207e-01  4.1010718536834090e-01  4.1012875790592340e-01  4.1014285572143300e-01  4.1015098291564689e-01  4.1015475477981966e-01  4.1015559031489729e-01  4.1015461546487081e-01  4.1015267028382463e-01  4.1015035588917204e-01  4.1014808883201120e-01  4.1014614920026554e-01  4.1014471819158799e-01  4.1014390497327929e-01  4.1014376399544333e-01  4.1014430400335788e-01  4.1014548954057412e-01  4.1014723508814904e-01  4.1014939131399630e-01  4.1015172235026309e-01  4.1015387282060073e-01  4.1015532405470784e-01  4.1015534161498035e-01  4.1015292303631090e-01  4.1014676904857128e-01  4.1013532587502533e-01  4.1011698906082783e-01  4.1009058995554792e-01  4.1005627811648909e-01  4.1001677496884492e-01  4.0997829407116082e-01  4.0994977855905307e-01  4.0993800434188366e-01  4.0993866198745199e-01  4.0997992291601459e-01  4.0993792613280844e-01  4.0989984207050151e-01  4.1001579958510564e-01  4.1027377416518773e-01  4.1065351092692370e-01  4.1107818982547611e-01  4.1147361684770328e-01  4.1179680507893240e-01  4.1203489607854765e-01  4.1219408209452774e-01  4.1228909601140762e-01  4.1233641923775083e-01  4.1235089861650415e-01  4.1234454957174099e-01  4.1232649335048832e-01  4.1230336358955594e-01  4.1227983104150046e-01  4.1225908877933348e-01  4.1224324217049058e-01  4.1223359462873499e-01  4.1223083745866973e-01  4.1223515517481168e-01  4.1224625445304958e-01  4.1226331921048937e-01  4.1228488811294345e-01  4.1230864548693597e-01  4.1233111432523162e-01  4.1234724533408779e-01  4.1234991763388662e-01  4.1232942249306243e-01  4.1227311728020460e-01  4.1216565023280072e-01  4.1199050546068938e-01  4.1173393377450701e-01  4.1139254702346623e-01  4.1098439554484423e-01  4.1055897261995533e-01  4.1019501073152742e-01  4.0996498747880411e-01  4.0987954768662016e-01  4.0993861835035916e-01  4.0994186199934168e-01  4.1002473306305415e-01  4.1044822179202833e-01  4.1111008741748295e-01  4.1195886128769110e-01  4.1286299022706541e-01  4.1368694851785304e-01  4.1435188760685637e-01  4.1483681661817412e-01  4.1515738233721233e-01  4.1534523314870692e-01  4.1543483380276452e-01  4.1545697797102710e-01  4.1543654574743472e-01  4.1539245100350730e-01  4.1533849115554095e-01  4.1528442034468338e-01  4.1523693980110593e-01  4.1520049633004463e-01  4.1517787096615544e-01  4.1517057410517411e-01  4.1517906987782793e-01  4.1520284652269235e-01  4.1524033855573000e-01  4.1528869432137083e-01  4.1534337163848722e-01  4.1539753849363087e-01  4.1544126280637683e-01  4.1546051072942070e-01  4.1543606717469878e-01  4.1534269200992807e-01  4.1514921380289305e-01  4.1482087369779275e-01  4.1432598853360730e-01  4.1364962980212011e-01  4.1281413520380605e-01  4.1190062889440976e-01  4.1104545788486579e-01  4.1037595840459695e-01  4.0996530860072988e-01  4.0993710270828343e-01  4.0996433426398010e-01  4.1037478533551858e-01  4.1134944839380944e-01  4.1240805525136509e-01  4.1349909633711002e-01  4.1455089694122921e-01  4.1545746159933772e-01  4.1615796816533257e-01  4.1664582826216867e-01  4.1694828783818078e-01  4.1710565188074294e-01  4.1715851689779010e-01  4.1714189519419648e-01  4.1708352634754264e-01  4.1700424255863328e-01  4.1691911397187298e-01  4.1683872733238270e-01  4.1677031905139178e-01  4.1671867266490187e-01  4.1668677524816805e-01  4.1667625719969403e-01  4.1668764328900443e-01  4.1672043469053255e-01  4.1677302898473473e-01  4.1684247116560330e-01  4.1692401579709498e-01  4.1701047189162943e-01  4.1709130471384370e-01  4.1715149681085795e-01  4.1717025257400592e-01  4.1711981329379899e-01  4.1696502229902438e-01  4.1666487024947768e-01  4.1617822958016393e-01  4.1547643694953296e-01  4.1456315225232016e-01  4.1349576699469293e-01  4.1236747360955800e-01  4.1124287028356077e-01  4.1024088313926926e-01  4.0994648016831969e-01  4.1001991237273844e-01  4.1114312684013077e-01  4.1318275733176812e-01  4.1467058437111542e-01  4.1572274795230535e-01  4.1654714550260691e-01  4.1718209681164498e-01  4.1762607608691010e-01  4.1789424364696998e-01  4.1801828272842451e-01  4.1803516827575116e-01  4.1797938555886927e-01  4.1787954943144190e-01  4.1775779029105398e-01  4.1763043448614762e-01  4.1750911438173122e-01  4.1740188411253915e-01  4.1731416965984164e-01  4.1724950761813695e-01  4.1721008087575157e-01  4.1719707647304438e-01  4.1721089051292054e-01  4.1725119706354147e-01  4.1731688716825821e-01  4.1740587249874861e-01  4.1751473720406385e-01  4.1763821314151739e-01  4.1776845220654857e-01  4.1789408428961322e-01  4.1799909907389032e-01  4.1806170683502947e-01  4.1805357940124227e-01  4.1794026948390295e-01  4.1768431161712455e-01  4.1725204707502039e-01  4.1662356541516632e-01  4.1578803207600529e-01  4.1467090628061398e-01  4.1303151712337549e-01  4.1089154255677401e-01  4.0997963807495214e-01  4.1013037160379340e-01  4.1302010070377992e-01  4.1707765093295646e-01  4.1883407449513504e-01  4.1925043830710473e-01  4.1930485778638155e-01  4.1927094755450983e-01  4.1918582970000318e-01  4.1905187373372493e-01  4.1887705075719894e-01  4.1867494197102573e-01  4.1846013439233698e-01  4.1824547096065245e-01  4.1804110710351694e-01  4.1785453494148728e-01  4.1769100351204136e-01  4.1755403339329500e-01  4.1744589102118979e-01  4.1736797407423543e-01  4.1732109903179077e-01  4.1730569740570966e-01  4.1732193052290339e-01  4.1736973056018195e-01  4.1744877105602640e-01  4.1755836505784999e-01  4.1769728464662270e-01  4.1786349348371610e-01  4.1805378730019427e-01  4.1826335240483331e-01  4.1848529056648931e-01  4.1871024265904938e-01  4.1892640862250469e-01  4.1912051063933792e-01  4.1928053104840968e-01  4.1939965221119158e-01  4.1947477536663536e-01  4.1944819294551672e-01  4.1896387632322074e-01  4.1683725144657885e-01  4.1230035926989572e-01  4.1003493745171682e-01  4.1122952704305010e-01  4.1910994258442030e-01  4.2600415484666615e-01  4.2638749310505941e-01  4.2467901003670766e-01  4.2306041131273459e-01  4.2185292414632980e-01  4.2095827708221784e-01  4.2026410501830225e-01  4.1969969610860441e-01  4.1922571292347249e-01  4.1882072857877811e-01  4.1847282887967868e-01  4.1817505737406629e-01  4.1792305527126400e-01  4.1771386906023644e-01  4.1754536294020567e-01  4.1741593989581427e-01  4.1732441698996864e-01  4.1726997522266440e-01  4.1725214358356172e-01  4.1727079763171643e-01  4.1732616411874851e-01  4.1741882992009233e-01  4.1754975910805442e-01  4.1772032914156815e-01  4.1793240922415642e-01  4.1818852625632652e-01  4.1849220640041018e-01  4.1884866035863239e-01  4.1926613759242537e-01  4.1975856425993735e-01  4.2035061039219362e-01  4.2108712460991571e-01  4.2204841749860367e-01  4.2336384310873076e-01  4.2514755400459947e-01  4.2703536445900353e-01  4.2630833893575404e-01  4.1765866651862116e-01  4.1033504033613671e-01  4.2397203112021403e-01  4.4130609456831038e-01  4.4509575532619883e-01  4.3869810314135699e-01  4.3218184763625389e-01  4.2770631225127215e-01  4.2479800599549544e-01  4.2285327672996870e-01  4.2148726924266783e-01  4.2048142188149468e-01  4.1971188935307097e-01  4.1910643016627347e-01  4.1862132777558070e-01  4.1822912517046967e-01  4.1791197061918206e-01  4.1765790684309345e-01  4.1745874762454321e-01  4.1730883675276470e-01  4.1720431219670667e-01  4.1714266932390809e-01  4.1712250923442418e-01  4.1714341036520897e-01  4.1720589308543682e-01  4.1731146891849497e-01  4.1746278529338571e-01  4.1766389932517051e-01  4.1792074732750362e-01  4.1824193221038169e-01  4.1864004990013631e-01  4.1913396035790268e-01  4.1975276987203042e-01  4.2054299909793452e-01  4.2158192525490740e-01  4.2300301101953081e-01  4.2504438938638828e-01  4.2813391060256722e-01  4.3297147639125344e-01  4.4019883221963307e-01  4.4758566406486677e-01  4.4320562470804220e-01  4.1658870910840062e-01  4.6347392736726001e-01  4.9484809756050319e-01  4.7579798320651290e-01  4.5470941521037245e-01  4.4082821145670803e-01  4.3263293360832294e-01  4.2772901244279282e-01  4.2464080333752630e-01  4.2258325699802685e-01  4.2114208447483542e-01  4.2009039115923885e-01  4.1929819914876726e-01  4.1868771717331732e-01  4.1821053301530675e-01  4.1783549427868055e-01  4.1754200448726769e-01  4.1731618362202100e-01  4.1714860664833198e-01  4.1703294603563573e-01  4.1696515382911320e-01  4.1694298258839990e-01  4.1696573592416630e-01  4.1703419459840302e-01  4.1715070256722364e-01  4.1731943105033115e-01  4.1754687789664879e-01  4.1784271665686940e-01  4.1822120518882455e-01  4.1870353553753947e-01  4.1932183399623296e-01  4.2012617077996917e-01  4.2119728447155363e-01  4.2267069734741725e-01  4.2478420407631212e-01  4.2797538595813545e-01  4.3308129853479083e-01  4.4170262672408556e-01  4.5652917949337668e-01  4.7946752495910994e-01  5.0165049684214102e-01  4.4903701376612332e-01  5.0268146339386899e-01  5.5505051442540387e-01  5.0598658984270706e-01  4.6950081268530869e-01  4.4845698577869308e-01  4.3679884548025655e-01  4.3010531177466349e-01  4.2602340827169016e-01  4.2338176143976203e-01  4.2158161391583665e-01  4.2030179273254537e-01  4.1936108280990186e-01  4.1865228570418056e-01  4.1810932987243454e-01  4.1769006100246514e-01  4.1736683330713903e-01  4.1712116389938136e-01  4.1694059878763345e-01  4.1681683519444179e-01  4.1674458986044777e-01  4.1672093480746308e-01  4.1674494969142489e-01  4.1681761615440088e-01  4.1694193215602626e-01  4.1712327009859801e-01  4.1737005572332742e-01  4.1769492250650536e-01  4.1811662703242264e-01  4.1866324900940061e-01  4.1937765833204377e-01  4.2032715509813945e-01  4.2162114253721178e-01  4.2344498707204153e-01  4.2612784596745312e-01  4.3028537475905254e-01  4.3712325183851886e-01  4.4906871650607910e-01  4.7078080824947638e-01  5.0876765136007684e-01  5.5994272641065501e-01  4.9240402396745131e-01  5.1474649186706334e-01  5.8343936510307659e-01  5.2137405041945184e-01  4.7751225550022836e-01  4.5273279997369253e-01  4.3915112285444791e-01  4.3141243271061941e-01  4.2673387336616764e-01  4.2373685320132343e-01  4.2171698202208774e-01  4.2029744187410883e-01  4.1926612902896199e-01  4.1849787028999663e-01  4.1791567925708689e-01  4.1747053024871095e-01  4.1713033003682842e-01  4.1687366306017731e-01  4.1668612737120053e-01  4.1655813889121740e-01  4.1648360653407529e-01  4.1645915307817005e-01  4.1648370594235817e-01  4.1655837083071723e-01  4.1668656214615929e-01  4.1687441695733651e-01  4.1713158042968429e-01  4.1747253990130706e-01  4.1791883498152677e-01  4.1850274513505392e-01  4.1927358456377650e-01  4.2030880041750751e-01  4.2173432224061780e-01  4.2376351580179145e-01  4.2677526643601055e-01  4.3147712576260955e-01  4.3925075309427097e-01  4.5287477499499712e-01  4.7766870439854858e-01  5.2137735324915235e-01  5.8305934988273456e-01  5.1460681508898365e-01  4.9300274466875105e-01  5.6441858123776323e-01  5.1521448931037406e-01  4.7594787900490687e-01  4.5242913368323379e-01  4.3911266347782824e-01  4.3136886570074418e-01  4.2663047876523802e-01  4.2357431485420061e-01  4.2150800371690905e-01  4.2005509863936830e-01  4.1900101723204436e-01  4.1821790473551074e-01  4.1762650825590447e-01  4.1717603564176858e-01  4.1683306525622421e-01  4.1657520382519359e-01  4.1638734455176857e-01  4.1625941030786151e-01  4.1618498414248650e-01  4.1616049983996600e-01  4.1618481460887768e-01  4.1625907537135248e-01  4.1638685168995243e-01  4.1657456175209628e-01  4.1683227912499438e-01  4.1717509666258445e-01  4.1762537167492819e-01  4.1821644332249808e-01  4.1899892188075261e-01  4.2005166324700310e-01  4.2150164204985524e-01  4.2356142736615554e-01  4.2660286408850212e-01  4.3130634390075945e-01  4.3896564778315089e-01  4.5206735299763479e-01  4.7493527535978314e-01  5.1242020550964229e-01  5.5881882595790966e-01  5.0301547994721707e-01  4.4999547976456322e-01  5.0914414337515135e-01  4.9073581074683181e-01  4.6579805543702341e-01  4.4787728919132230e-01  4.3680847427569119e-01  4.3003322134496935e-01  4.2574556896196569e-01  4.2291437001993143e-01  4.2096857670637278e-01  4.1958498236704833e-01  4.1857371944375271e-01  4.1781895371127603e-01  4.1724749243265308e-01  4.1681169172873478e-01  4.1647980211137342e-01  4.1623033244515423e-01  4.1604866659416079e-01  4.1592499309739389e-01  4.1585303382203487e-01  4.1582928534252017e-01  4.1585261531964324e-01  4.1592413453320998e-01  4.1604731997917266e-01  4.1622841208893058e-01  4.1647716325735262e-01  4.1680809164712396e-01  4.1724251927101741e-01  4.1781189370126642e-01  4.1856330143916309e-01  4.1956886908319863e-01  4.2094231466510951e-01  4.2286908734695272e-01  4.2566287543140174e-01  4.2987250702945051e-01  4.3647614535915386e-01  4.4714651168871994e-01  4.6411390039825806e-01  4.8708036789035025e-01  5.0203766318785825e-01  4.6425921622017341e-01  4.1744298235486377e-01  4.5124193329399898e-01  4.6055489736652344e-01  4.5143944331063129e-01  4.4077424359578427e-01  4.3298384583941124e-01  4.2776529471503644e-01  4.2426631313723706e-01  4.2186156633788202e-01  4.2016095640293738e-01  4.1892642342339953e-01  4.1801051336038886e-01  4.1731954278870781e-01  4.1679239426618597e-01  4.1638825597985291e-01  4.1607936694212183e-01  4.1584662412649331e-01  4.1567686515872276e-01  4.1556116477287219e-01  4.1549376827038609e-01  4.1547144555001558e-01  4.1549314353781719e-01  4.1555987442751763e-01  4.1567481992539340e-01  4.1584366926038541e-01  4.1607525074214280e-01  4.1638257433652837e-01  4.1678449294440451e-01  4.1730834199323719e-01  4.1799418421007245e-01  4.1890176879088936e-01  4.2012219059825434e-01  4.2179777201597873e-01  4.2415594746557983e-01  4.2756386703088356e-01  4.3259497719594314e-01  4.3998518067613607e-01  4.4984336417030157e-01  4.5784767039801688e-01  4.4930493254568560e-01  4.2494860737269563e-01  4.1081035706648972e-01  4.2364873550833038e-01  4.3785284267881347e-01  4.3810227482655589e-01  4.3332972641042855e-01  4.2865454145683346e-01  4.2506839888050729e-01  4.2246081645979211e-01  4.2056813939007259e-01  4.1917661966357639e-01  4.1813734153230625e-01  4.1734990260757399e-01  4.1674648868153952e-01  4.1628076087703580e-01  4.1592063332095269e-01  4.1564364483071631e-01  4.1543398333409998e-01  4.1528055710846656e-01  4.1517574052637324e-01  4.1511456611846925e-01  4.1509422466838047e-01  4.1511379206465876e-01  4.1517414006338321e-01  4.1527801703094386e-01  4.1543031055114898e-01  4.1563853202082074e-01  4.1591360014827838e-01  4.1627105394611608e-01  4.1673290892519460e-01  4.1733050159841895e-01  4.1810887104184558e-01  4.1913350972785474e-01  4.2050054760105005e-01  4.2235079154709837e-01  4.2488263114745417e-01  4.2833176181706395e-01  4.3277534363461234e-01  4.3726376120876514e-01  4.3735769836383154e-01  4.2534428490827264e-01  4.1190246978849648e-01  4.1036676210977141e-01  4.1658331583057362e-01  4.2607473354389580e-01  4.2870467440499138e-01  4.2714098121262667e-01  4.2465351224024167e-01  4.2239472043733334e-01  4.2058724846535767e-01  4.1918859500432859e-01  4.1811227926007039e-01  4.1728087510868078e-01  4.1663478924271874e-01  4.1613010458824384e-01  4.1573485909251817e-01  4.1542583505055886e-01  4.1518616285568738e-01  4.1500361526607310e-01  4.1486941798318289e-01  4.1477743285035235e-01  4.1472360977404515e-01  4.1470563737167115e-01  4.1472274809381354e-01  4.1477565334798527e-01  4.1486660034265649e-01  4.1499955726213150e-01  4.1518054911521030e-01  4.1541818529832569e-01  4.1572444364585615e-01  4.1611580575454937e-01  4.1661487191292357e-01  4.1725260289573479e-01  4.1807126656168458e-01  4.1912773841655182e-01  4.2049504611670968e-01  4.2225348973141830e-01  4.2443982957221382e-01  4.2685258296698536e-01  4.2845853748652551e-01  4.2632453660742897e-01  4.1758892399737257e-01  4.1051910796453789e-01  4.1025835167462837e-01  4.1432730912260884e-01  4.2052693519554535e-01  4.2294067919883899e-01  4.2262342841761513e-01  4.2137220090225336e-01  4.2002102095415761e-01  4.1882963153187958e-01  4.1784504506116454e-01  4.1705024707107596e-01  4.1641377660270740e-01  4.1590534856875472e-01  4.1549965777795866e-01  4.1517667151607712e-01  4.1492091757958344e-01  4.1472061959381146e-01  4.1456693073822709e-01  4.1445332489196524e-01  4.1437514011253851e-01  4.1432925291405637e-01  4.1431386158724498e-01  4.1432836181764288e-01  4.1437330427719932e-01  4.1445043040666157e-01  4.1456278904063021e-01  4.1471494284278915e-01  4.1491327943116774e-01  4.1516644628140975e-01  4.1548592703956322e-01  4.1588675895064564e-01  4.1638832762926725e-01  4.1701498571862716e-01  4.1779569186259974e-01  4.1876024643729493e-01  4.1992485679593883e-01  4.2124573588196901e-01  4.2248368973429623e-01  4.2287351929866918e-01  4.2070929257557171e-01  4.1473286764754164e-01  4.1033453110728202e-01  4.1017284969003598e-01  4.1303026003976134e-01  4.1738522711275527e-01  4.1932894046072228e-01  4.1944500508021920e-01  4.1883274008668259e-01  4.1804340365431941e-01  4.1728225904602328e-01  4.1661363235367127e-01  4.1604847581869947e-01  4.1557949402694089e-01  4.1519426782754598e-01  4.1488006701438845e-01  4.1462556642426651e-01  4.1442129912695230e-01  4.1425963296216189e-01  4.1413458105266576e-01  4.1404157984453621e-01  4.1397728826389857e-01  4.1393942758710578e-01  4.1392666717417254e-01  4.1393855591068629e-01  4.1397549801259337e-01  4.1403877238818715e-01  4.1413059574845329e-01  4.1425423013978652e-01  4.1441413428681045e-01  4.1461615276860192e-01  4.1486772287367929e-01  4.1517804582019363e-01  4.1555809399158600e-01  4.1602015365654760e-01  4.1657618799102997e-01  4.1723323982325439e-01  4.1798121210218536e-01  4.1876058663473281e-01  4.1937924266020954e-01  4.1932590785519097e-01  4.1754078750332069e-01  4.1330457807902787e-01  4.1022162978742038e-01  4.1011608359578339e-01  4.1222382694439175e-01  4.1543648386858312e-01  4.1695125546328415e-01  4.1719294687212272e-01  4.1690335881228840e-01  4.1644708522767926e-01  4.1597070884693355e-01  4.1552914963539600e-01  4.1514006600878833e-01  4.1480632759608843e-01  4.1452479829385114e-01  4.1429021485590994e-01  4.1409692682363225e-01  4.1393966706867813e-01  4.1381386640304502e-01  4.1371574651506215e-01  4.1364231304086152e-01  4.1359130998069621e-01  4.1356116676534815e-01  4.1355095339373971e-01  4.1356035090794224e-01  4.1358964026608858e-01  4.1363971036814501e-01  4.1371208424929190e-01  4.1380896018072638e-01  4.1393326031506611e-01  4.1408867160476709e-01  4.1427964857061905e-01  4.1451131870932845e-01  4.1478917601797421e-01  4.1511833691788175e-01  4.1550188810483230e-01  4.1593724806926402e-01  4.1640778796535072e-01  4.1686222064376988e-01  4.1716227339412365e-01  4.1696080197949237e-01  4.1553994689018930e-01  4.1239669329180961e-01  4.1014908073204204e-01  4.1007524300265319e-01  4.1166347854782426e-01  4.1409929167120579e-01  4.1529055433569428e-01  4.1555879074849938e-01  4.1543465045445949e-01  4.1517449044287918e-01  4.1488196953748524e-01  4.1459789785309076e-01  4.1433840446787690e-01  4.1410918111919448e-01  4.1391107640190117e-01  4.1374269993267915e-01  4.1360170935028956e-01  4.1348550113905164e-01  4.1339157632494294e-01  4.1331772505064984e-01  4.1326211124017420e-01  4.1322330398751872e-01  4.1320028318700114e-01  4.1319243511145681e-01  4.1319954660268438e-01  4.1322180214513393e-01  4.1325978509798145e-01  4.1331448180743213e-01  4.1338728438084027e-01  4.1347998365763267e-01  4.1359473713485478e-01  4.1373398547725665e-01  4.1390027279258934e-01  4.1409589437637551e-01  4.1432223690641173e-01  4.1457854534962957e-01  4.1485949351795770e-01  4.1514982865173944e-01  4.1541093998944217e-01  4.1554488218864055e-01  4.1530607575032213e-01  4.1417556098522407e-01  4.1178387347975415e-01  4.1009896970517556e-01  4.1004504233560363e-01  4.1125963068771670e-01  4.1314393340645444e-01  4.1408922354012279e-01  4.1434371419624322e-01  4.1430530850189123e-01  4.1416189310191553e-01  4.1398719464291744e-01  4.138103579