<?xml version="1.0"?>
<VTKFile type="UnstructuredGrid"  version="0.1"  >
<UnstructuredGrid>
<Piece  NumberOfPoints="1681" NumberOfCells="3200">
<Points>
<DataArray  type="Float64"  NumberOfComponents="3"  format="ascii">0 0 0  0.025 0 0  0.05 0 0  0.075 0 0  0.1 0 0  0.125 0 0  0.15 0 0  0.175 0 0  0.2 0 0  0.225 0 0  0.25 0 0  0.275 0 0  0.3 0 0  0.325 0 0  0.35 0 0  0.375 0 0  0.4 0 0  0.425 0 0  0.45 0 0  0.475 0 0  0.5 0 0  0.525 0 0  0.55 0 0  0.575 0 0  0.6 0 0  0.625 0 0  0.65 0 0  0.675 0 0  0.7 0 0  0.725 0 0  0.75 0 0  0.775 0 0  0.8 0 0  0.825 0 0  0.85 0 0  0.875 0 0  0.9 0 0  0.925 0 0  0.95 0 0  0.975 0 0  1 0 0  0 0.025 0  0.025 0.025 0  0.05 0.025 0  0.075 0.025 0  0.1 0.025 0  0.125 0.025 0  0.15 0.025 0  0.175 0.025 0  0.2 0.025 0  0.225 0.025 0  0.25 0.025 0  0.275 0.025 0  0.3 0.025 0  0.325 0.025 0  0.35 0.025 0  0.375 0.025 0  0.4 0.025 0  0.425 0.025 0  0.45 0.025 0  0.475 0.025 0  0.5 0.025 0  0.525 0.025 0  0.55 0.025 0  0.575 0.025 0  0.6 0.025 0  0.625 0.025 0  0.65 0.025 0  0.675 0.025 0  0.7 0.025 0  0.725 0.025 0  0.75 0.025 0  0.775 0.025 0  0.8 0.025 0  0.825 0.025 0  0.85 0.025 0  0.875 0.025 0  0.9 0.025 0  0.925 0.025 0  0.95 0.025 0  0.975 0.025 0  1 0.025 0  0 0.05 0  0.025 0.05 0  0.05 0.05 0  0.075 0.05 0  0.1 0.05 0  0.125 0.05 0  0.15 0.05 0  0.175 0.05 0  0.2 0.05 0  0.225 0.05 0  0.25 0.05 0  0.275 0.05 0  0.3 0.05 0  0.325 0.05 0  0.35 0.05 0  0.375 0.05 0  0.4 0.05 0  0.425 0.05 0  0.45 0.05 0  0.475 0.05 0  0.5 0.05 0  0.525 0.05 0  0.55 0.05 0  0.575 0.05 0  0.6 0.05 0  0.625 0.05 0  0.65 0.05 0  0.675 0.05 0  0.7 0.05 0  0.725 0.05 0  0.75 0.05 0  0.775 0.05 0  0.8 0.05 0  0.825 0.05 0  0.85 0.05 0  0.875 0.05 0  0.9 0.05 0  0.925 0.05 0  0.95 0.05 0  0.975 0.05 0  1 0.05 0  0 0.075 0  0.025 0.075 0  0.05 0.075 0  0.075 0.075 0  0.1 0.075 0  0.125 0.075 0  0.15 0.075 0  0.175 0.075 0  0.2 0.075 0  0.225 0.075 0  0.25 0.075 0  0.275 0.075 0  0.3 0.075 0  0.325 0.075 0  0.35 0.075 0  0.375 0.075 0  0.4 0.075 0  0.425 0.075 0  0.45 0.075 0  0.475 0.075 0  0.5 0.075 0  0.525 0.075 0  0.55 0.075 0  0.575 0.075 0  0.6 0.075 0  0.625 0.075 0  0.65 0.075 0  0.675 0.075 0  0.7 0.075 0  0.725 0.075 0  0.75 0.075 0  0.775 0.075 0  0.8 0.075 0  0.825 0.075 0  0.85 0.075 0  0.875 0.075 0  0.9 0.075 0  0.925 0.075 0  0.95 0.075 0  0.975 0.075 0  1 0.075 0  0 0.1 0  0.025 0.1 0  0.05 0.1 0  0.075 0.1 0  0.1 0.1 0  0.125 0.1 0  0.15 0.1 0  0.175 0.1 0  0.2 0.1 0  0.225 0.1 0  0.25 0.1 0  0.275 0.1 0  0.3 0.1 0  0.325 0.1 0  0.35 0.1 0  0.375 0.1 0  0.4 0.1 0  0.425 0.1 0  0.45 0.1 0  0.475 0.1 0  0.5 0.1 0  0.525 0.1 0  0.55 0.1 0  0.575 0.1 0  0.6 0.1 0  0.625 0.1 0  0.65 0.1 0  0.675 0.1 0  0.7 0.1 0  0.725 0.1 0  0.75 0.1 0  0.775 0.1 0  0.8 0.1 0  0.825 0.1 0  0.85 0.1 0  0.875 0.1 0  0.9 0.1 0  0.925 0.1 0  0.95 0.1 0  0.975 0.1 0  1 0.1 0  0 0.125 0  0.025 0.125 0  0.05 0.125 0  0.075 0.125 0  0.1 0.125 0  0.125 0.125 0  0.15 0.125 0  0.175 0.125 0  0.2 0.125 0  0.225 0.125 0  0.25 0.125 0  0.275 0.125 0  0.3 0.125 0  0.325 0.125 0  0.35 0.125 0  0.375 0.125 0  0.4 0.125 0  0.425 0.125 0  0.45 0.125 0  0.475 0.125 0  0.5 0.125 0  0.525 0.125 0  0.55 0.125 0  0.575 0.125 0  0.6 0.125 0  0.625 0.125 0  0.65 0.125 0  0.675 0.125 0  0.7 0.125 0  0.725 0.125 0  0.75 0.125 0  0.775 0.125 0  0.8 0.125 0  0.825 0.125 0  0.85 0.125 0  0.875 0.125 0  0.9 0.125 0  0.925 0.125 0  0.95 0.125 0  0.975 0.125 0  1 0.125 0  0 0.15 0  0.025 0.15 0  0.05 0.15 0  0.075 0.15 0  0.1 0.15 0  0.125 0.15 0  0.15 0.15 0  0.175 0.15 0  0.2 0.15 0  0.225 0.15 0  0.25 0.15 0  0.275 0.15 0  0.3 0.15 0  0.325 0.15 0  0.35 0.15 0  0.375 0.15 0  0.4 0.15 0  0.425 0.15 0  0.45 0.15 0  0.475 0.15 0  0.5 0.15 0  0.525 0.15 0  0.55 0.15 0  0.575 0.15 0  0.6 0.15 0  0.625 0.15 0  0.65 0.15 0  0.675 0.15 0  0.7 0.15 0  0.725 0.15 0  0.75 0.15 0  0.775 0.15 0  0.8 0.15 0  0.825 0.15 0  0.85 0.15 0  0.875 0.15 0  0.9 0.15 0  0.925 0.15 0  0.95 0.15 0  0.975 0.15 0  1 0.15 0  0 0.175 0  0.025 0.175 0  0.05 0.175 0  0.075 0.175 0  0.1 0.175 0  0.125 0.175 0  0.15 0.175 0  0.175 0.175 0  0.2 0.175 0  0.225 0.175 0  0.25 0.175 0  0.275 0.175 0  0.3 0.175 0  0.325 0.175 0  0.35 0.175 0  0.375 0.175 0  0.4 0.175 0  0.425 0.175 0  0.45 0.175 0  0.475 0.175 0  0.5 0.175 0  0.525 0.175 0  0.55 0.175 0  0.575 0.175 0  0.6 0.175 0  0.625 0.175 0  0.65 0.175 0  0.675 0.175 0  0.7 0.175 0  0.725 0.175 0  0.75 0.175 0  0.775 0.175 0  0.8 0.175 0  0.825 0.175 0  0.85 0.175 0  0.875 0.175 0  0.9 0.175 0  0.925 0.175 0  0.95 0.175 0  0.975 0.175 0  1 0.175 0  0 0.2 0  0.025 0.2 0  0.05 0.2 0  0.075 0.2 0  0.1 0.2 0  0.125 0.2 0  0.15 0.2 0  0.175 0.2 0  0.2 0.2 0  0.225 0.2 0  0.25 0.2 0  0.275 0.2 0  0.3 0.2 0  0.325 0.2 0  0.35 0.2 0  0.375 0.2 0  0.4 0.2 0  0.425 0.2 0  0.45 0.2 0  0.475 0.2 0  0.5 0.2 0  0.525 0.2 0  0.55 0.2 0  0.575 0.2 0  0.6 0.2 0  0.625 0.2 0  0.65 0.2 0  0.675 0.2 0  0.7 0.2 0  0.725 0.2 0  0.75 0.2 0  0.775 0.2 0  0.8 0.2 0  0.825 0.2 0  0.85 0.2 0  0.875 0.2 0  0.9 0.2 0  0.925 0.2 0  0.95 0.2 0  0.975 0.2 0  1 0.2 0  0 0.225 0  0.025 0.225 0  0.05 0.225 0  0.075 0.225 0  0.1 0.225 0  0.125 0.225 0  0.15 0.225 0  0.175 0.225 0  0.2 0.225 0  0.225 0.225 0  0.25 0.225 0  0.275 0.225 0  0.3 0.225 0  0.325 0.225 0  0.35 0.225 0  0.375 0.225 0  0.4 0.225 0  0.425 0.225 0  0.45 0.225 0  0.475 0.225 0  0.5 0.225 0  0.525 0.225 0  0.55 0.225 0  0.575 0.225 0  0.6 0.225 0  0.625 0.225 0  0.65 0.225 0  0.675 0.225 0  0.7 0.225 0  0.725 0.225 0  0.75 0.225 0  0.775 0.225 0  0.8 0.225 0  0.825 0.225 0  0.85 0.225 0  0.875 0.225 0  0.9 0.225 0  0.925 0.225 0  0.95 0.225 0  0.975 0.225 0  1 0.225 0  0 0.25 0  0.025 0.25 0  0.05 0.25 0  0.075 0.25 0  0.1 0.25 0  0.125 0.25 0  0.15 0.25 0  0.175 0.25 0  0.2 0.25 0  0.225 0.25 0  0.25 0.25 0  0.275 0.25 0  0.3 0.25 0  0.325 0.25 0  0.35 0.25 0  0.375 0.25 0  0.4 0.25 0  0.425 0.25 0  0.45 0.25 0  0.475 0.25 0  0.5 0.25 0  0.525 0.25 0  0.55 0.25 0  0.575 0.25 0  0.6 0.25 0  0.625 0.25 0  0.65 0.25 0  0.675 0.25 0  0.7 0.25 0  0.725 0.25 0  0.75 0.25 0  0.775 0.25 0  0.8 0.25 0  0.825 0.25 0  0.85 0.25 0  0.875 0.25 0  0.9 0.25 0  0.925 0.25 0  0.95 0.25 0  0.975 0.25 0  1 0.25 0  0 0.275 0  0.025 0.275 0  0.05 0.275 0  0.075 0.275 0  0.1 0.275 0  0.125 0.275 0  0.15 0.275 0  0.175 0.275 0  0.2 0.275 0  0.225 0.275 0  0.25 0.275 0  0.275 0.275 0  0.3 0.275 0  0.325 0.275 0  0.35 0.275 0  0.375 0.275 0  0.4 0.275 0  0.425 0.275 0  0.45 0.275 0  0.475 0.275 0  0.5 0.275 0  0.525 0.275 0  0.55 0.275 0  0.575 0.275 0  0.6 0.275 0  0.625 0.275 0  0.65 0.275 0  0.675 0.275 0  0.7 0.275 0  0.725 0.275 0  0.75 0.275 0  0.775 0.275 0  0.8 0.275 0  0.825 0.275 0  0.85 0.275 0  0.875 0.275 0  0.9 0.275 0  0.925 0.275 0  0.95 0.275 0  0.975 0.275 0  1 0.275 0  0 0.3 0  0.025 0.3 0  0.05 0.3 0  0.075 0.3 0  0.1 0.3 0  0.125 0.3 0  0.15 0.3 0  0.175 0.3 0  0.2 0.3 0  0.225 0.3 0  0.25 0.3 0  0.275 0.3 0  0.3 0.3 0  0.325 0.3 0  0.35 0.3 0  0.375 0.3 0  0.4 0.3 0  0.425 0.3 0  0.45 0.3 0  0.475 0.3 0  0.5 0.3 0  0.525 0.3 0  0.55 0.3 0  0.575 0.3 0  0.6 0.3 0  0.625 0.3 0  0.65 0.3 0  0.675 0.3 0  0.7 0.3 0  0.725 0.3 0  0.75 0.3 0  0.775 0.3 0  0.8 0.3 0  0.825 0.3 0  0.85 0.3 0  0.875 0.3 0  0.9 0.3 0  0.925 0.3 0  0.95 0.3 0  0.975 0.3 0  1 0.3 0  0 0.325 0  0.025 0.325 0  0.05 0.325 0  0.075 0.325 0  0.1 0.325 0  0.125 0.325 0  0.15 0.325 0  0.175 0.325 0  0.2 0.325 0  0.225 0.325 0  0.25 0.325 0  0.275 0.325 0  0.3 0.325 0  0.325 0.325 0  0.35 0.325 0  0.375 0.325 0  0.4 0.325 0  0.425 0.325 0  0.45 0.325 0  0.475 0.325 0  0.5 0.325 0  0.525 0.325 0  0.55 0.325 0  0.575 0.325 0  0.6 0.325 0  0.625 0.325 0  0.65 0.325 0  0.675 0.325 0  0.7 0.325 0  0.725 0.325 0  0.75 0.325 0  0.775 0.325 0  0.8 0.325 0  0.825 0.325 0  0.85 0.325 0  0.875 0.325 0  0.9 0.325 0  0.925 0.325 0  0.95 0.325 0  0.975 0.325 0  1 0.325 0  0 0.35 0  0.025 0.35 0  0.05 0.35 0  0.075 0.35 0  0.1 0.35 0  0.125 0.35 0  0.15 0.35 0  0.175 0.35 0  0.2 0.35 0  0.225 0.35 0  0.25 0.35 0  0.275 0.35 0  0.3 0.35 0  0.325 0.35 0  0.35 0.35 0  0.375 0.35 0  0.4 0.35 0  0.425 0.35 0  0.45 0.35 0  0.475 0.35 0  0.5 0.35 0  0.525 0.35 0  0.55 0.35 0  0.575 0.35 0  0.6 0.35 0  0.625 0.35 0  0.65 0.35 0  0.675 0.35 0  0.7 0.35 0  0.725 0.35 0  0.75 0.35 0  0.775 0.35 0  0.8 0.35 0  0.825 0.35 0  0.85 0.35 0  0.875 0.35 0  0.9 0.35 0  0.925 0.35 0  0.95 0.35 0  0.975 0.35 0  1 0.35 0  0 0.375 0  0.025 0.375 0  0.05 0.375 0  0.075 0.375 0  0.1 0.375 0  0.125 0.375 0  0.15 0.375 0  0.175 0.375 0  0.2 0.375 0  0.225 0.375 0  0.25 0.375 0  0.275 0.375 0  0.3 0.375 0  0.325 0.375 0  0.35 0.375 0  0.375 0.375 0  0.4 0.375 0  0.425 0.375 0  0.45 0.375 0  0.475 0.375 0  0.5 0.375 0  0.525 0.375 0  0.55 0.375 0  0.575 0.375 0  0.6 0.375 0  0.625 0.375 0  0.65 0.375 0  0.675 0.375 0  0.7 0.375 0  0.725 0.375 0  0.75 0.375 0  0.775 0.375 0  0.8 0.375 0  0.825 0.375 0  0.85 0.375 0  0.875 0.375 0  0.9 0.375 0  0.925 0.375 0  0.95 0.375 0  0.975 0.375 0  1 0.375 0  0 0.4 0  0.025 0.4 0  0.05 0.4 0  0.075 0.4 0  0.1 0.4 0  0.125 0.4 0  0.15 0.4 0  0.175 0.4 0  0.2 0.4 0  0.225 0.4 0  0.25 0.4 0  0.275 0.4 0  0.3 0.4 0  0.325 0.4 0  0.35 0.4 0  0.375 0.4 0  0.4 0.4 0  0.425 0.4 0  0.45 0.4 0  0.475 0.4 0  0.5 0.4 0  0.525 0.4 0  0.55 0.4 0  0.575 0.4 0  0.6 0.4 0  0.625 0.4 0  0.65 0.4 0  0.675 0.4 0  0.7 0.4 0  0.725 0.4 0  0.75 0.4 0  0.775 0.4 0  0.8 0.4 0  0.825 0.4 0  0.85 0.4 0  0.875 0.4 0  0.9 0.4 0  0.925 0.4 0  0.95 0.4 0  0.975 0.4 0  1 0.4 0  0 0.425 0  0.025 0.425 0  0.05 0.425 0  0.075 0.425 0  0.1 0.425 0  0.125 0.425 0  0.15 0.425 0  0.175 0.425 0  0.2 0.425 0  0.225 0.425 0  0.25 0.425 0  0.275 0.425 0  0.3 0.425 0  0.325 0.425 0  0.35 0.425 0  0.375 0.425 0  0.4 0.425 0  0.425 0.425 0  0.45 0.425 0  0.475 0.425 0  0.5 0.425 0  0.525 0.425 0  0.55 0.425 0  0.575 0.425 0  0.6 0.425 0  0.625 0.425 0  0.65 0.425 0  0.675 0.425 0  0.7 0.425 0  0.725 0.425 0  0.75 0.425 0  0.775 0.425 0  0.8 0.425 0  0.825 0.425 0  0.85 0.425 0  0.875 0.425 0  0.9 0.425 0  0.925 0.425 0  0.95 0.425 0  0.975 0.425 0  1 0.425 0  0 0.45 0  0.02
[...]
<PointData  Scalars="ControlVisualisation"> 
<DataArray  type="Float64"  Name="ControlVisualisation"  format="ascii">6.8144150569247585e-05  4.5414728426073111e-05  4.5418612026948277e-05  4.5425207078624843e-05  4.5434470466599217e-05  4.5446377421550689e-05  4.5460890028043461e-05  4.5477963808967848e-05  4.5497548666881332e-05  4.5519589785125071e-05  4.5544028799734891e-05  4.5570804651337774e-05  4.5599853909437214e-05  4.5631110219231214e-05  4.5664502437802296e-05  4.5699950944483088e-05  4.5737361511371605e-05  4.5776616000795569e-05  4.5817559012559609e-05  4.5859979435063634e-05  4.5903585675247264e-05  4.5947973188693720e-05  4.5992582881884601e-05  4.6036649137313907e-05  4.6079136873008198e-05  4.6118668640965710e-05  4.6153445431487861e-05  4.6181170747120826e-05  4.6198999113876763e-05  4.6203541361058634e-05  4.6190989491468908e-05  4.6157459366753829e-05  4.6099694707748108e-05  4.6016206298902929e-05  4.5908917363366350e-05  4.5785040060211736e-05  4.5657863154100861e-05  4.5544876835541935e-05  4.5463163150012104e-05  4.5421392815704597e-05  1.3651635179940739e-04  4.5414729644641231e-05  2.2699986467362376e-05  2.2703783734426115e-05  2.2710560940995660e-05  2.2720370750900337e-05  2.2733187329355191e-05  2.2748974445397917e-05  2.2767691061858705e-05  2.2789290385060983e-05  2.2813721239096614e-05  2.2840929325764016e-05  2.2870858215103932e-05  2.2903449838585388e-05  2.2938644081383150e-05  2.2976376991375568e-05  2.3016577018698452e-05  2.3059158578427798e-05  2.3104012083414301e-05  2.3150989417483260e-05  2.3199883610567499e-05  2.3250401249893577e-05  2.3302125956146864e-05  2.3354471153991741e-05  2.3406620527616899e-05  2.3457455284084897e-05  2.3505468971033359e-05  2.3548673768198371e-05  2.3584509408144851e-05  2.3609774203542706e-05  2.3620614027644947e-05  2.3612646839824227e-05  2.3581311615950681e-05  2.3522580156154071e-05  2.3434103244346008e-05  2.3317054475985484e-05  2.3178071243063302e-05  2.3030751808385245e-05  2.2894953057091432e-05  2.2790775073219914e-05  2.2728457871197530e-05  4.5421444925763757e-05  4.5418626276374068e-05  2.2703794066469868e-05  2.2708537787780054e-05  2.2716258184550661e-05  2.2727453209768818e-05  2.2742109701128024e-05  2.2760189494809576e-05  2.2781647294481518e-05  2.2806431537790296e-05  2.2834486257063496e-05  2.2865752519827931e-05  2.2900169798191096e-05  2.2937676835509467e-05  2.2978211554706441e-05  2.3021709464126054e-05  2.3068099898477342e-05  2.3117299301202643e-05  2.3169200596122681e-05  2.3223657501611216e-05  2.3280462407650298e-05  2.3339316176616194e-05  2.3399787985817985e-05  2.3461263191289026e-05  2.3522877367504470e-05  2.3583435446432914e-05  2.3641316475696062e-05  2.3694368853038770e-05  2.3739806632056035e-05  2.3774120276312455e-05  2.3793060876438423e-05  2.3791749752879820e-05  2.3764954756076660e-05  2.3707775185343232e-05  2.3616839040619845e-05  2.3492325622849208e-05  2.3339273876842583e-05  2.3171089115179746e-05  2.3010549172975864e-05  2.2881581487621759e-05  2.2792997706982601e-05  4.5463825707692306e-05  4.5425275095621351e-05  2.2710618741934548e-05  2.2716310637284129e-05  2.2724125881977993e-05  2.2735401622746885e-05  2.2750161924075464e-05  2.2768371031247429e-05  2.2789982263238593e-05  2.2814942840496301e-05  2.2843195656281119e-05  2.2874681124140320e-05  2.2909339036201193e-05  2.2947110009337003e-05  2.2987936103739634e-05  2.3031760079521157e-05  2.3078522659478189e-05  2.3128157056816574e-05  2.3180579894793532e-05  2.3235677481167195e-05  2.3293286197353670e-05  2.3353165527286829e-05  2.3414962011474946e-05  2.3478162259891159e-05  2.3542033309808988e-05  2.3605549144077320e-05  2.3667304180359820e-05  2.3725418730822908e-05  2.3777439150315341e-05  2.3820259383221477e-05  2.3850119521724563e-05  2.3862523864353328e-05  2.3852540567834271e-05  2.3815481282665486e-05  2.3747977082529280e-05  2.3647947477643264e-05  2.3516461810348856e-05  2.3358270871992075e-05  2.3187260233568063e-05  2.3030873740870174e-05  2.2906222975302150e-05  4.5552450486432392e-05  4.5434682048772494e-05  2.2720563205911812e-05  2.2727656249631288e-05  2.2735552999139826e-05  2.2746844868650940e-05  2.2761620173765459e-05  2.2779845437970255e-05  2.2801472388096634e-05  2.2826446599630027e-05  2.2854709417947968e-05  2.2886200423453872e-05  2.2920859953738228e-05  2.2958631394894206e-05  2.2999462824031651e-05  2.3043307491462823e-05  2.3090122561322613e-05  2.3139865452786374e-05  2.3192487035236641e-05  2.3247920817971355e-05  2.3306067127704596e-05  2.3366771080807792e-05  2.3429792937656777e-05  2.3494769288418753e-05  2.3561163511960472e-05  2.3628204473126444e-05  2.3694815528227988e-05  2.3759535253042505e-05  2.3820438685987285e-05  2.3875117552144946e-05  2.3920573992017018e-05  2.3953139865419277e-05  2.3969692364261515e-05  2.3965858027370832e-05  2.3938123224529230e-05  2.3879817681157836e-05  2.3806874311230015e-05  2.3697712262523565e-05  2.3548147424588263e-05  2.3363374415410273e-05  2.3099908433539944e-05  4.5682539249776167e-05  4.5446891526559918e-05  2.2733674433789802e-05  2.2742644468331725e-05  2.2750647362277208e-05  2.2761955028906470e-05  2.2776743276681882e-05  2.2794980712680396e-05  2.2816616863564603e-05  2.2841594754052957e-05  2.2869853359943233e-05  2.2901330798055394e-05  2.2935967730957123e-05  2.2973710765517926e-05  2.3014515411220414e-05  2.3058348117746033e-05  2.3105186870337733e-05  2.3155019790455127e-05  2.3207841160229706e-05  2.3263644251404291e-05  2.3322410281004525e-05  2.3384092713051166e-05  2.3448595978660038e-05  2.3515747544832691e-05  2.3585261920789574e-05  2.3656696568904918e-05  2.3729400593479391e-05  2.3802456098504356e-05  2.3874660509848749e-05  2.3944518482632391e-05  2.4010090452045189e-05  2.4070143645114177e-05  2.4123055186116144e-05  2.4161066342158846e-05  2.4195271172487691e-05  2.4229839849579355e-05  2.4365878718609772e-05  2.4525578541951156e-05  2.4601804138639673e-05  2.4166456085899823e-05  2.3275510667843017e-05  4.5629408619019107e-05  4.5461954691940219e-05  2.2750011805396888e-05  2.2761346630070372e-05  2.2769484224014308e-05  2.2780810741569225e-05  2.2795613233041510e-05  2.2813862858013243e-05  2.2835505949401926e-05  2.2860481736632035e-05  2.2888725632745523e-05  2.2920173297849728e-05  2.2954765161131928e-05  2.2992451175564153e-05  2.3033195359292634e-05  2.3076979670466753e-05  2.3123806759282272e-05  2.3173701166139025e-05  2.3226708582373553e-05  2.3282892855705065e-05  2.3342330495641878e-05  2.3405102480759674e-05  2.3471283210663183e-05  2.3540926168310747e-05  2.3614045594661074e-05  2.3690594956534304e-05  2.3770435747733013e-05  2.3853320186077620e-05  2.3938922243499020e-05  2.4026749411403779e-05  2.4116861238183706e-05  2.4210974683163058e-05  2.4305274017581990e-05  2.4416799420249610e-05  2.4589508747762855e-05  2.4800868176194502e-05  2.5781269554303536e-05  2.8238294170517223e-05  3.1077220329798515e-05  3.1513810821500552e-05  2.8079858321046904e-05  4.7515267867197724e-05  4.5479935620803309e-05  2.2769652565714107e-05  2.2783853515191116e-05  2.2792155393559231e-05  2.2803504266486049e-05  2.2818322419399966e-05  2.2836583553035581e-05  2.2858229283122704e-05  2.2883193320964174e-05  2.2911405819874434e-05  2.2942798533847924e-05  2.2977310701623945e-05  2.3014895395625242e-05  2.3055525876627050e-05  2.3099201524331602e-05  2.3145952954158641e-05  2.3195846015543615e-05  2.3248984507262726e-05  2.3305511641089259e-05  2.3365610539310346e-05  2.3429504373156317e-05  2.3497457113089817e-05  2.3569775534601393e-05  2.3646814266043281e-05  2.3728980922130774e-05  2.3816734497150703e-05  2.3910629181170651e-05  2.4011227468703464e-05  2.4119315651736964e-05  2.4237630207025774e-05  2.4367903156013476e-05  2.4523273726282301e-05  2.4780123611296207e-05  2.5344562190663299e-05  2.7941597195116542e-05  3.6644304259034813e-05  1.0179264024925948e-04  1.3384158572020638e-01  3.1225426121743155e-01  4.3871225057052060e-01  2.1691462291173602e-01  4.5500911249033738e-05  2.2792690298670013e-05  2.2810275995399739e-05  2.2818774371264707e-05  2.2830151017314393e-05  2.2844987535532268e-05  2.2863259445408003e-05  2.2884901356194940e-05  2.2909838967581951e-05  2.2937994780865030e-05  2.2969294629609152e-05  2.3003675174325082e-05  2.3041092054932553e-05  2.3081528228713183e-05  2.3125002094201324e-05  2.3171575071103861e-05  2.3221358444238192e-05  2.3274519517484141e-05  2.3331287477464211e-05  2.3391959850565292e-05  2.3456911176813736e-05  2.3526606335650889e-05  2.3601621834422543e-05  2.3682680432437518e-05  2.3770688145259767e-05  2.3866805527894375e-05  2.3972483125466249e-05  2.4089244042470781e-05  2.4219909503855160e-05  2.4367431715831743e-05  2.4538385154759798e-05  2.4801778860319191e-05  2.5693394164834438e-05  2.9873886288704228e-05  5.3936938193003531e-05  1.4508625139636916e-01  6.1196122822448096e-01  9.9974425956743052e-01  9.9995392000833749e-01  9.9997602714904443e-01  9.9995540185641540e-01  4.5524970290013761e-05  2.2819234894640156e-05  2.2840746027585680e-05  2.2849478205617440e-05  2.2860892660999346e-05  2.2875754209510133e-05  2.2894038187069705e-05  2.2915668598236850e-05  2.2940559468930555e-05  2.2968622330716241e-05  2.2999774441631363e-05  2.3033948120783386e-05  2.3071100836362795e-05  2.3111225592253560e-05  2.3154361280952985e-05  2.3200602723054017e-05  2.3250110241898925e-05  2.3303118948815055e-05  2.3359948582787763e-05  2.3421015291357541e-05  2.3486847914108547e-05  2.3558113008659715e-05  2.3635657714910055e-05  2.3720575818636269e-05  2.3814301119485926e-05  2.3918812196806166e-05  2.4036514987546915e-05  2.4170812620913540e-05  2.4326251015395932e-05  2.4503788128410891e-05  2.4743878310657697e-05  2.5570881151048666e-05  3.0360054052144688e-05  7.6138981303202049e-05  2.8371275746769020e-01  9.6131998353220838e-01  9.9995537912920107e-01  9.9997826354386243e-01  9.9998653737421173e-01  9.9999072398646904e-01  9.9998258193767908e-01  4.5552210635648816e-05  2.2849410840165752e-05  2.2875416015359687e-05  2.2884429054513170e-05  2.2895901343604439e-05  2.2910803781528013e-05  2.2929107284495663e-05  2.2950719546627124e-05  2.2975537552436567e-05  2.3003457379782004e-05  2.3034384454351387e-05  2.3068244864382832e-05  2.3104997327577072e-05  2.3144645476019494e-05  2.3187250364151415e-05  2.3232942970709479e-05  2.3281936222120448e-05  2.3334536762376453e-05  2.3391158050327695e-05  2.3452336031048627e-05  2.3518750635682739e-05  2.3591259144064794e-05  2.3670959008414458e-05  2.3759279492106312e-05  2.3858180377663534e-05  2.3970429282241599e-05  2.4099645734567868e-05  2.4253237109779947e-05  2.4435873715679307e-05  2.4671535898743250e-05  2.5273009651893143e-05  2.9376052557022012e-05  6.7088032163046510e-05  3.1026616576753768e-01  9.9963490056607840e-01  9.9996320834863883e-01  9.9998161908450933e-01  9.9998837340910629e-01  9.9999150561177097e-01  9.9999322369660770e-01  9.9998766415688822e-01  4.5582733162454113e-05  2.2883352325298515e-05  2.2914455850043369e-05  2.2923815099980967e-05  2.2935385114241620e-05  2.2950363050017504e-05  2.2968707276729599e-05  2.2990300112912002e-05  2.3015013728085748e-05  2.3042722943842337e-05  2.3073317820940349e-05  2.3106716873209915e-05  2.3142880387869919e-05  2.3181823957113229e-05  2.3223633045072479e-05  2.3268478273132647e-05  2.3316629497464506e-05  2.3368469047545538e-05  2.3424506457211643e-05  2.3485397462187074e-05  2.3551967973965839e-05  2.3625245077139790e-05  2.3706525231665895e-05  2.3797492999679413e-05  2.3900524768685596e-05  2.4018883871107831e-05  2.4158385173267438e-05  2.4331613243595015e-05  2.4554513543001173e-05  2.5016100261648057e-05  2.7932312931983206e-05  5.1384110354847379e-05  2.4378889305018986e-01  9.9720352866929340e-01  9.9996079984183917e-01  9.9998108833912691e-01  9.9998771314842461e-01  9.9999036257320206e-01  9.9999163165993876e-01  9.9999217583525812e-01  9.9998582810010228e-01  4.5616628968633962e-05  2.2921192421908491e-05  2.2958045275315946e-05  2.2967849886303517e-05  2.2979595271799590e-05  2.2994719018169891e-05  2.3013152039970909e-05  2.3034736976600511e-05  2.3059310227584829e-05  2.3086718395422186e-05  2.3116833317872741e-05  2.3149566656974729e-05  2.3184882968941920e-05  2.3222812672448686e-05  2.3263468404263744e-05  2.3307064876962034e-05  2.3353936242341495e-05  2.3404547198065994e-05  2.3459503819423305e-05  2.3519586291005775e-05  2.3585764076590540e-05  2.3659203881737304e-05  2.3741318533552635e-05  2.3833999428968960e-05  2.3939710460344448e-05  2.4061830353256503e-05  2.4208384526645211e-05  2.4394326066623419e-05  2.4701392883978260e-05  2.6909049072062785e-05  4.0363916580913686e-05  1.3809548405634720e-01  8.6667472055766115e-01  9.9995156396100482e-01  9.9997833681668413e-01  9.9998614580118061e-01  9.9998864883170724e-01  9.9998910836646249e-01  9.9998793633178673e-01  9.9998514928391724e-01  9.9997096149336251e-01  4.5653954509283507e-05  2.2963041213578201e-05  2.3006357591069029e-05  2.3016768853343372e-05  2.3028837186876495e-05  2.3044242283620573e-05  2.3062860923796483e-05  2.3084473880330719e-05  2.3108867187203248e-05  2.3135852103101523e-05  2.3165281979388108e-05  2.3197067470049297e-05  2.3231186306711925e-05  2.3267689588694841e-05  2.3306717137499809e-05  2.3348532805781083e-05  2.3393552929117644e-05  2.3442333905085961e-05  2.3495569924503090e-05  2.3554174879263982e-05  2.3619274493486824e-05  2.3692221695319183e-05  2.3774399220172070e-05  2.3867893979629606e-05  2.3974519946416920e-05  2.4098963447335080e-05  2.4250937489103735e-05  2.4455049320982701e-05  2.5497473535718426e-05  3.3434691173391346e-05  2.7734263305438590e-02  6.6496817016469112e-01  9.9993224625334454e-01  9.9997421868350211e-01  9.9998413770474848e-01  9.9998704258061477e-01  9.9998697930254166e-01  9.9998362438276955e-01  9.9997471053876197e-01  9.9983395926375107e-01  5.4666679849998512e-01  4.5694684453915562e-05  2.3008943599005824e-05  2.3059527860237905e-05  2.3070821560500441e-05  2.3083488258258957e-05  2.3099426228739461e-05  2.3118410932524941e-05  2.3140128127158486e-05  2.3164297066757797e-05  2.3190689248563754e-05  2.3219144057064328e-05  2.3249588670511029e-05  2.3282039748122574e-05  2.3316578144735555e-05  2.3353355155534002e-05  2.3392683533538095e-05  2.3435102406057868e-05  2.3481294579909132e-05  2.3532033617442046e-05  2.3588306506040609e-05  2.3651560034905929e-05  2.3723528163065288e-05  2.3804766531815074e-05  2.3897901699152314e-05  2.4005180483701638e-05  2.4136437665144520e-05  2.4306610926081737e-05  2.4867700317377776e-05  2.9554546824823837e-05  8.8352257356424810e-05  4.4621529778618485e-01  9.9987391405695747e-01  9.9996770757113829e-01  9.9998164977349824e-01  9.9998567591967591e-01  9.9998580984759111e-01  9.9998196254361993e-01  9.9996877533199580e-01  9.9979578267681946e-01  1.4039244567364409e-01  6.0194110932840313e-05  4.5738623212972068e-05  2.3058799530406300e-05  2.3117593521408103e-05  2.3130258027857307e-05  2.3144031485276409e-05  2.3160956915885122e-05  2.3180625037004960e-05  2.3202581561023970e-05  2.3226469798284101e-05  2.3252024384259572e-05  2.3279079348412659e-05  2.3307617019394039e-05  2.3337760614063544e-05  2.3369653205070789e-05  2.3403407087976473e-05  2.3439301504632157e-05  2.3478119057673745e-05  2.3520924061477061e-05  2.3568371487785810e-05  2.3620866854138930e-05  2.3681079997177877e-05  2.3751542962953566e-05  2.3831878116995739e-05  2.3925275898044095e-05  2.4041999769247474e-05  2.4185320001750382e-05  2.4613813737854304e-05  2.8033142947379290e-05  5.3875368869501020e-05  2.6367397610760274e-01  9.9999768871267625e-01  9.9995631213401026e-01  9.9997823986297740e-01  9.9998429809062361e-01  9.9998519384057893e-01  9.9998213664790769e-01  9.9997039915405794e-01  9.9989786211884757e-01  3.7507112054372777e-01  4.5833987762489254e-05  5.0608733414311108e-05  4.5785238136800551e-05  2.3112214842633238e-05  2.3180388288930697e-05  2.3195313490034378e-05  2.3211128775097995e-05  2.3229846283887871e-05  2.3250723866529298e-05  2.3273115442574600e-05  2.3296618106846734e-05  2.3320970616414502e-05  2.3346003935378031e-05  2.3371781042232816e-05  2.3398741111420475e-05  2.3427295737075763e-05  2.3457237815869674e-05  2.3488197775010191e-05  2.3521731903649568e-05  2.3560291099367841e-05  2.3603676387295735e-05  2.3650393507994689e-05  2.3706722543655596e-05  2.3778660055543695e-05  2.3869061172290294e-05  2.3950491861704160e-05  2.4113205614359649e-05  2.4524490887317100e-05  2.7646142910850206e-05  4.6225179190581012e-05  1.6961629521556676e-01  8.3775831945198342e-01  9.9993857001990338e-01  9.9997325562203032e-01  9.9998253644424795e-01  9.9998460481209117e-01  9.9998273458045051e-01  9.9997355404001242e-01  9.9993382227151340e-01  6.2594605790349322e-01  1.0865097434478040e-03  2.9030438900578670e-05  4.6961641788576642e-05  4.5833348904745081e-05  2.3168222925242274e-05  2.3247355337736696e-05  2.3266194445281905e-05  2.3285762185124461e-05  2.3307678105339782e-05  2.3330607248263970e-05  2.3353644497248964e-05  2.3376546996111815e-05  2.3399261818180018e-05  2.3421392579892969e-05  2.3442818081120258e-05  2.3465064666017085e-05  2.3489652907506487e-05  2.3515220971895635e-05  2.3539147786648668e-05  2.3564759439278567e-05  2.3599758629114239e-05  2.3644462127788520e-05  2.3687260745153366e-05  2.3728138779644447e-05  2.3808152106557120e-05  2.3958875350510514e-05  2.4073007954661132e-05  2.5386241592865966e-05  2.9196868111992762e-05  4.9247830734785715e-05  1.5015120803762155e-01  7.4364469958961299e-01  9.9991773299464237e-01  9.9996794394756516e-01  9.9998012393727354e-01  9.9998363197698514e-01  9.9998300481293834e-01  9.9997650118304671e-01  9.9995164549157844e-01  8.6103542283811996e-01  1.2067501011463673e-01  3.6957487052623017e-05  2.5419326828609327e-05  4.6616456942872960e-05  4.5880489278126127e-05  2.3224746713440385e-05  2.3317240019193089e-05  2.3343161116107702e-05  2.3369664823088880e-05  2.3397285830752804e-05  2.3423517233028803e-05  2.3446958381629989e-05  2.3468452501869945e-05  2.3488919116481918e-05  2.3506988605927222e-05  2.3521430327166398e-05  2.3536511145391841e-05  2.3558569335754811e-05  2.3585330607594102e-05  2.3603832694462608e-05  2.3609597569701076e-05  2.3641177874593333e-05  2.3713406941918444e-05  2.3774875285125466e-05  2.3836678644574124e-05  2.4284291599102771e-05  2.6076169767119564e-05  2.8417726574225890e-05  3.6305513240741674e-05  1.4458101882322479e-04  2.5698610860445043e-01  7.9114288753351836e-01  9.9991077016954588e-01  9.9996376632554695e-01  9.9997744938064848e-01  9.9998211716744001e-01  9.9998253304036910e-01  9.9997836469467427e-01  9.9996213685411972e-01  9.9977514030252290e-01  3.1120467305039751e-01  5.2828992096682214e-05  2.6758074668194144e-05  2.3820456094436753e-05  4.6314928841303341e-05  4.5921818451134512e-05  2.3277735196777749e-05  2.3387746285670632e-05  2.3426796408540274e-05  2.3465789373739781e-05  2.3503191549821020e-05  2.3534461060153044e-05  2.3557170012604111e-05  2.3575682926732211e-05  2.3595516806852284e-05  2.3613629477842087e-05  2.3618758773615957e-05  2.3614144609683370e-05  2.3636542315911263e-05  2.3689978186250505e-05  2.3725353775212153e-05  2.3731806807598304e-05  2.3971520950776046e-05  2.4758047208773422e-05  2.6401239467682178e-05  2.8260735824022356e-05  3.2202935998404747e-05  5.1000250118488732e-05  2.3156373927915776e-03  2.2066403662968501e-01  5.6988220123041211e-01  9.9940414892735407e-01  9.9993738632285445e-01  9.9996624837807557e-01  9.9997660193272619e-01  9.9998071233952357e-01  9.9998133414648094e-01  9.9997838306085929e-01  9.9996675758624787e-01  9.9990979878228536e-01  5.5838431622857199e-01  3.8537261516446010e-04  3.0006656639843035e-05  2.4188584281998749e-05  2.3536501941994499e-05  4.6132029934573874e-05  4.5947542869077652e-05  2.3318828084996640e-05  2.3454468214667568e-05  2.3519074790294058e-05  2.3581277574836363e-05  2.3637505318027108e-05  2.3680499715080676e-05  2.3699707414406789e-05  2.370108615