<?xml version="1.0"?>
<VTKFile type="UnstructuredGrid"  version="0.1"  >
<UnstructuredGrid>
<Piece  NumberOfPoints="1681" NumberOfCells="3200">
<Points>
<DataArray  type="Float64"  NumberOfComponents="3"  format="ascii">0 0 0  0.025 0 0  0.05 0 0  0.075 0 0  0.1 0 0  0.125 0 0  0.15 0 0  0.175 0 0  0.2 0 0  0.225 0 0  0.25 0 0  0.275 0 0  0.3 0 0  0.325 0 0  0.35 0 0  0.375 0 0  0.4 0 0  0.425 0 0  0.45 0 0  0.475 0 0  0.5 0 0  0.525 0 0  0.55 0 0  0.575 0 0  0.6 0 0  0.625 0 0  0.65 0 0  0.675 0 0  0.7 0 0  0.725 0 0  0.75 0 0  0.775 0 0  0.8 0 0  0.825 0 0  0.85 0 0  0.875 0 0  0.9 0 0  0.925 0 0  0.95 0 0  0.975 0 0  1 0 0  0 0.025 0  0.025 0.025 0  0.05 0.025 0  0.075 0.025 0  0.1 0.025 0  0.125 0.025 0  0.15 0.025 0  0.175 0.025 0  0.2 0.025 0  0.225 0.025 0  0.25 0.025 0  0.275 0.025 0  0.3 0.025 0  0.325 0.025 0  0.35 0.025 0  0.375 0.025 0  0.4 0.025 0  0.425 0.025 0  0.45 0.025 0  0.475 0.025 0  0.5 0.025 0  0.525 0.025 0  0.55 0.025 0  0.575 0.025 0  0.6 0.025 0  0.625 0.025 0  0.65 0.025 0  0.675 0.025 0  0.7 0.025 0  0.725 0.025 0  0.75 0.025 0  0.775 0.025 0  0.8 0.025 0  0.825 0.025 0  0.85 0.025 0  0.875 0.025 0  0.9 0.025 0  0.925 0.025 0  0.95 0.025 0  0.975 0.025 0  1 0.025 0  0 0.05 0  0.025 0.05 0  0.05 0.05 0  0.075 0.05 0  0.1 0.05 0  0.125 0.05 0  0.15 0.05 0  0.175 0.05 0  0.2 0.05 0  0.225 0.05 0  0.25 0.05 0  0.275 0.05 0  0.3 0.05 0  0.325 0.05 0  0.35 0.05 0  0.375 0.05 0  0.4 0.05 0  0.425 0.05 0  0.45 0.05 0  0.475 0.05 0  0.5 0.05 0  0.525 0.05 0  0.55 0.05 0  0.575 0.05 0  0.6 0.05 0  0.625 0.05 0  0.65 0.05 0  0.675 0.05 0  0.7 0.05 0  0.725 0.05 0  0.75 0.05 0  0.775 0.05 0  0.8 0.05 0  0.825 0.05 0  0.85 0.05 0  0.875 0.05 0  0.9 0.05 0  0.925 0.05 0  0.95 0.05 0  0.975 0.05 0  1 0.05 0  0 0.075 0  0.025 0.075 0  0.05 0.075 0  0.075 0.075 0  0.1 0.075 0  0.125 0.075 0  0.15 0.075 0  0.175 0.075 0  0.2 0.075 0  0.225 0.075 0  0.25 0.075 0  0.275 0.075 0  0.3 0.075 0  0.325 0.075 0  0.35 0.075 0  0.375 0.075 0  0.4 0.075 0  0.425 0.075 0  0.45 0.075 0  0.475 0.075 0  0.5 0.075 0  0.525 0.075 0  0.55 0.075 0  0.575 0.075 0  0.6 0.075 0  0.625 0.075 0  0.65 0.075 0  0.675 0.075 0  0.7 0.075 0  0.725 0.075 0  0.75 0.075 0  0.775 0.075 0  0.8 0.075 0  0.825 0.075 0  0.85 0.075 0  0.875 0.075 0  0.9 0.075 0  0.925 0.075 0  0.95 0.075 0  0.975 0.075 0  1 0.075 0  0 0.1 0  0.025 0.1 0  0.05 0.1 0  0.075 0.1 0  0.1 0.1 0  0.125 0.1 0  0.15 0.1 0  0.175 0.1 0  0.2 0.1 0  0.225 0.1 0  0.25 0.1 0  0.275 0.1 0  0.3 0.1 0  0.325 0.1 0  0.35 0.1 0  0.375 0.1 0  0.4 0.1 0  0.425 0.1 0  0.45 0.1 0  0.475 0.1 0  0.5 0.1 0  0.525 0.1 0  0.55 0.1 0  0.575 0.1 0  0.6 0.1 0  0.625 0.1 0  0.65 0.1 0  0.675 0.1 0  0.7 0.1 0  0.725 0.1 0  0.75 0.1 0  0.775 0.1 0  0.8 0.1 0  0.825 0.1 0  0.85 0.1 0  0.875 0.1 0  0.9 0.1 0  0.925 0.1 0  0.95 0.1 0  0.975 0.1 0  1 0.1 0  0 0.125 0  0.025 0.125 0  0.05 0.125 0  0.075 0.125 0  0.1 0.125 0  0.125 0.125 0  0.15 0.125 0  0.175 0.125 0  0.2 0.125 0  0.225 0.125 0  0.25 0.125 0  0.275 0.125 0  0.3 0.125 0  0.325 0.125 0  0.35 0.125 0  0.375 0.125 0  0.4 0.125 0  0.425 0.125 0  0.45 0.125 0  0.475 0.125 0  0.5 0.125 0  0.525 0.125 0  0.55 0.125 0  0.575 0.125 0  0.6 0.125 0  0.625 0.125 0  0.65 0.125 0  0.675 0.125 0  0.7 0.125 0  0.725 0.125 0  0.75 0.125 0  0.775 0.125 0  0.8 0.125 0  0.825 0.125 0  0.85 0.125 0  0.875 0.125 0  0.9 0.125 0  0.925 0.125 0  0.95 0.125 0  0.975 0.125 0  1 0.125 0  0 0.15 0  0.025 0.15 0  0.05 0.15 0  0.075 0.15 0  0.1 0.15 0  0.125 0.15 0  0.15 0.15 0  0.175 0.15 0  0.2 0.15 0  0.225 0.15 0  0.25 0.15 0  0.275 0.15 0  0.3 0.15 0  0.325 0.15 0  0.35 0.15 0  0.375 0.15 0  0.4 0.15 0  0.425 0.15 0  0.45 0.15 0  0.475 0.15 0  0.5 0.15 0  0.525 0.15 0  0.55 0.15 0  0.575 0.15 0  0.6 0.15 0  0.625 0.15 0  0.65 0.15 0  0.675 0.15 0  0.7 0.15 0  0.725 0.15 0  0.75 0.15 0  0.775 0.15 0  0.8 0.15 0  0.825 0.15 0  0.85 0.15 0  0.875 0.15 0  0.9 0.15 0  0.925 0.15 0  0.95 0.15 0  0.975 0.15 0  1 0.15 0  0 0.175 0  0.025 0.175 0  0.05 0.175 0  0.075 0.175 0  0.1 0.175 0  0.125 0.175 0  0.15 0.175 0  0.175 0.175 0  0.2 0.175 0  0.225 0.175 0  0.25 0.175 0  0.275 0.175 0  0.3 0.175 0  0.325 0.175 0  0.35 0.175 0  0.375 0.175 0  0.4 0.175 0  0.425 0.175 0  0.45 0.175 0  0.475 0.175 0  0.5 0.175 0  0.525 0.175 0  0.55 0.175 0  0.575 0.175 0  0.6 0.175 0  0.625 0.175 0  0.65 0.175 0  0.675 0.175 0  0.7 0.175 0  0.725 0.175 0  0.75 0.175 0  0.775 0.175 0  0.8 0.175 0  0.825 0.175 0  0.85 0.175 0  0.875 0.175 0  0.9 0.175 0  0.925 0.175 0  0.95 0.175 0  0.975 0.175 0  1 0.175 0  0 0.2 0  0.025 0.2 0  0.05 0.2 0  0.075 0.2 0  0.1 0.2 0  0.125 0.2 0  0.15 0.2 0  0.175 0.2 0  0.2 0.2 0  0.225 0.2 0  0.25 0.2 0  0.275 0.2 0  0.3 0.2 0  0.325 0.2 0  0.35 0.2 0  0.375 0.2 0  0.4 0.2 0  0.425 0.2 0  0.45 0.2 0  0.475 0.2 0  0.5 0.2 0  0.525 0.2 0  0.55 0.2 0  0.575 0.2 0  0.6 0.2 0  0.625 0.2 0  0.65 0.2 0  0.675 0.2 0  0.7 0.2 0  0.725 0.2 0  0.75 0.2 0  0.775 0.2 0  0.8 0.2 0  0.825 0.2 0  0.85 0.2 0  0.875 0.2 0  0.9 0.2 0  0.925 0.2 0  0.95 0.2 0  0.975 0.2 0  1 0.2 0  0 0.225 0  0.025 0.225 0  0.05 0.225 0  0.075 0.225 0  0.1 0.225 0  0.125 0.225 0  0.15 0.225 0  0.175 0.225 0  0.2 0.225 0  0.225 0.225 0  0.25 0.225 0  0.275 0.225 0  0.3 0.225 0  0.325 0.225 0  0.35 0.225 0  0.375 0.225 0  0.4 0.225 0  0.425 0.225 0  0.45 0.225 0  0.475 0.225 0  0.5 0.225 0  0.525 0.225 0  0.55 0.225 0  0.575 0.225 0  0.6 0.225 0  0.625 0.225 0  0.65 0.225 0  0.675 0.225 0  0.7 0.225 0  0.725 0.225 0  0.75 0.225 0  0.775 0.225 0  0.8 0.225 0  0.825 0.225 0  0.85 0.225 0  0.875 0.225 0  0.9 0.225 0  0.925 0.225 0  0.95 0.225 0  0.975 0.225 0  1 0.225 0  0 0.25 0  0.025 0.25 0  0.05 0.25 0  0.075 0.25 0  0.1 0.25 0  0.125 0.25 0  0.15 0.25 0  0.175 0.25 0  0.2 0.25 0  0.225 0.25 0  0.25 0.25 0  0.275 0.25 0  0.3 0.25 0  0.325 0.25 0  0.35 0.25 0  0.375 0.25 0  0.4 0.25 0  0.425 0.25 0  0.45 0.25 0  0.475 0.25 0  0.5 0.25 0  0.525 0.25 0  0.55 0.25 0  0.575 0.25 0  0.6 0.25 0  0.625 0.25 0  0.65 0.25 0  0.675 0.25 0  0.7 0.25 0  0.725 0.25 0  0.75 0.25 0  0.775 0.25 0  0.8 0.25 0  0.825 0.25 0  0.85 0.25 0  0.875 0.25 0  0.9 0.25 0  0.925 0.25 0  0.95 0.25 0  0.975 0.25 0  1 0.25 0  0 0.275 0  0.025 0.275 0  0.05 0.275 0  0.075 0.275 0  0.1 0.275 0  0.125 0.275 0  0.15 0.275 0  0.175 0.275 0  0.2 0.275 0  0.225 0.275 0  0.25 0.275 0  0.275 0.275 0  0.3 0.275 0  0.325 0.275 0  0.35 0.275 0  0.375 0.275 0  0.4 0.275 0  0.425 0.275 0  0.45 0.275 0  0.475 0.275 0  0.5 0.275 0  0.525 0.275 0  0.55 0.275 0  0.575 0.275 0  0.6 0.275 0  0.625 0.275 0  0.65 0.275 0  0.675 0.275 0  0.7 0.275 0  0.725 0.275 0  0.75 0.275 0  0.775 0.275 0  0.8 0.275 0  0.825 0.275 0  0.85 0.275 0  0.875 0.275 0  0.9 0.275 0  0.925 0.275 0  0.95 0.275 0  0.975 0.275 0  1 0.275 0  0 0.3 0  0.025 0.3 0  0.05 0.3 0  0.075 0.3 0  0.1 0.3 0  0.125 0.3 0  0.15 0.3 0  0.175 0.3 0  0.2 0.3 0  0.225 0.3 0  0.25 0.3 0  0.275 0.3 0  0.3 0.3 0  0.325 0.3 0  0.35 0.3 0  0.375 0.3 0  0.4 0.3 0  0.425 0.3 0  0.45 0.3 0  0.475 0.3 0  0.5 0.3 0  0.525 0.3 0  0.55 0.3 0  0.575 0.3 0  0.6 0.3 0  0.625 0.3 0  0.65 0.3 0  0.675 0.3 0  0.7 0.3 0  0.725 0.3 0  0.75 0.3 0  0.775 0.3 0  0.8 0.3 0  0.825 0.3 0  0.85 0.3 0  0.875 0.3 0  0.9 0.3 0  0.925 0.3 0  0.95 0.3 0  0.975 0.3 0  1 0.3 0  0 0.325 0  0.025 0.325 0  0.05 0.325 0  0.075 0.325 0  0.1 0.325 0  0.125 0.325 0  0.15 0.325 0  0.175 0.325 0  0.2 0.325 0  0.225 0.325 0  0.25 0.325 0  0.275 0.325 0  0.3 0.325 0  0.325 0.325 0  0.35 0.325 0  0.375 0.325 0  0.4 0.325 0  0.425 0.325 0  0.45 0.325 0  0.475 0.325 0  0.5 0.325 0  0.525 0.325 0  0.55 0.325 0  0.575 0.325 0  0.6 0.325 0  0.625 0.325 0  0.65 0.325 0  0.675 0.325 0  0.7 0.325 0  0.725 0.325 0  0.75 0.325 0  0.775 0.325 0  0.8 0.325 0  0.825 0.325 0  0.85 0.325 0  0.875 0.325 0  0.9 0.325 0  0.925 0.325 0  0.95 0.325 0  0.975 0.325 0  1 0.325 0  0 0.35 0  0.025 0.35 0  0.05 0.35 0  0.075 0.35 0  0.1 0.35 0  0.125 0.35 0  0.15 0.35 0  0.175 0.35 0  0.2 0.35 0  0.225 0.35 0  0.25 0.35 0  0.275 0.35 0  0.3 0.35 0  0.325 0.35 0  0.35 0.35 0  0.375 0.35 0  0.4 0.35 0  0.425 0.35 0  0.45 0.35 0  0.475 0.35 0  0.5 0.35 0  0.525 0.35 0  0.55 0.35 0  0.575 0.35 0  0.6 0.35 0  0.625 0.35 0  0.65 0.35 0  0.675 0.35 0  0.7 0.35 0  0.725 0.35 0  0.75 0.35 0  0.775 0.35 0  0.8 0.35 0  0.825 0.35 0  0.85 0.35 0  0.875 0.35 0  0.9 0.35 0  0.925 0.35 0  0.95 0.35 0  0.975 0.35 0  1 0.35 0  0 0.375 0  0.025 0.375 0  0.05 0.375 0  0.075 0.375 0  0.1 0.375 0  0.125 0.375 0  0.15 0.375 0  0.175 0.375 0  0.2 0.375 0  0.225 0.375 0  0.25 0.375 0  0.275 0.375 0  0.3 0.375 0  0.325 0.375 0  0.35 0.375 0  0.375 0.375 0  0.4 0.375 0  0.425 0.375 0  0.45 0.375 0  0.475 0.375 0  0.5 0.375 0  0.525 0.375 0  0.55 0.375 0  0.575 0.375 0  0.6 0.375 0  0.625 0.375 0  0.65 0.375 0  0.675 0.375 0  0.7 0.375 0  0.725 0.375 0  0.75 0.375 0  0.775 0.375 0  0.8 0.375 0  0.825 0.375 0  0.85 0.375 0  0.875 0.375 0  0.9 0.375 0  0.925 0.375 0  0.95 0.375 0  0.975 0.375 0  1 0.375 0  0 0.4 0  0.025 0.4 0  0.05 0.4 0  0.075 0.4 0  0.1 0.4 0  0.125 0.4 0  0.15 0.4 0  0.175 0.4 0  0.2 0.4 0  0.225 0.4 0  0.25 0.4 0  0.275 0.4 0  0.3 0.4 0  0.325 0.4 0  0.35 0.4 0  0.375 0.4 0  0.4 0.4 0  0.425 0.4 0  0.45 0.4 0  0.475 0.4 0  0.5 0.4 0  0.525 0.4 0  0.55 0.4 0  0.575 0.4 0  0.6 0.4 0  0.625 0.4 0  0.65 0.4 0  0.675 0.4 0  0.7 0.4 0  0.725 0.4 0  0.75 0.4 0  0.775 0.4 0  0.8 0.4 0  0.825 0.4 0  0.85 0.4 0  0.875 0.4 0  0.9 0.4 0  0.925 0.4 0  0.95 0.4 0  0.975 0.4 0  1 0.4 0  0 0.425 0  0.025 0.425 0  0.05 0.425 0  0.075 0.425 0  0.1 0.425 0  0.125 0.425 0  0.15 0.425 0  0.175 0.425 0  0.2 0.425 0  0.225 0.425 0  0.25 0.425 0  0.275 0.425 0  0.3 0.425 0  0.325 0.425 0  0.35 0.425 0  0.375 0.425 0  0.4 0.425 0  0.425 0.425 0  0.45 0.425 0  0.475 0.425 0  0.5 0.425 0  0.525 0.425 0  0.55 0.425 0  0.575 0.425 0  0.6 0.425 0  0.625 0.425 0  0.65 0.425 0  0.675 0.425 0  0.7 0.425 0  0.725 0.425 0  0.75 0.425 0  0.775 0.425 0  0.8 0.425 0  0.825 0.425 0  0.85 0.425 0  0.875 0.425 0  0.9 0.425 0  0.925 0.425 0  0.95 0.425 0  0.975 0.425 0  1 0.425 0  0 0.45 0  0.02
[...]
<PointData  Scalars="ControlVisualisation"> 
<DataArray  type="Float64"  Name="ControlVisualisation"  format="ascii">3.8963627760200481e-01  3.4181962624864443e-01  3.4183450544052696e-01  3.4220761837497304e-01  3.4302548409114220e-01  3.4417048035377440e-01  3.4546457078955395e-01  3.4676297748337026e-01  3.4798347906291521e-01  3.4909448446217145e-01  3.5009184674106664e-01  3.5098085344836438e-01  3.5176710073201967e-01  3.5245384702021282e-01  3.5304245620301539e-01  3.5353358290946718e-01  3.5392801476092323e-01  3.5422693212466566e-01  3.5443173504461922e-01  3.5454367925668340e-01  3.5456352068515756e-01  3.5449129269435831e-01  3.5432627557201535e-01  3.5406716817929085e-01  3.5371242435760519e-01  3.5326065594657519e-01  3.5271092603612614e-01  3.5206268814733782e-01  3.5131514697648603e-01  3.5046607685468345e-01  3.4951081229303077e-01  3.4844322478358769e-01  3.4726195153962092e-01  3.4598487706391368e-01  3.4467113723721265e-01  3.4344181156701409e-01  3.4246841090370644e-01  3.4190869408681607e-01  3.4177960635244492e-01  3.4185708864546016e-01  4.4054794498082189e-01  3.4181167019538750e-01  2.2723846764358882e-01  2.2855851953526068e-01  2.3228567232305253e-01  2.3899972582193840e-01  2.4819475305978156e-01  2.5881649131886414e-01  2.6984820296405110e-01  2.8059050050855872e-01  2.9067872007094131e-01  2.9997181494131181e-01  3.0843157887498712e-01  3.1604632303645064e-01  3.2280072282065164e-01  3.2867319786349836e-01  3.3364280691077186e-01  3.3769532522408580e-01  3.4082510981378816e-01  3.4303326980037419e-01  3.4432400229882260e-01  3.4470088154109646e-01  3.4416432394090968e-01  3.4271087111185389e-01  3.4033446014449609e-01  3.3702941738211400e-01  3.3279440057342002e-01  3.2763588810424060e-01  3.2156927430510263e-01  3.1461576325361001e-01  3.0679515938654545e-01  2.9811937224619506e-01  2.8859923119890180e-01  2.7828501585912901e-01  2.6735616613158297e-01  2.5625252221830819e-01  2.4577103345443035e-01  2.3698193998151010e-01  2.3089431618125303e-01  2.2782122586086467e-01  2.2702775070590542e-01  3.4185618021407099e-01  3.4174311530200074e-01  2.2845186722318422e-01  2.3461678647523621e-01  2.4669653879825490e-01  2.6579042140557618e-01  2.9117693492116348e-01  3.2041900810168245e-01  3.5068245803047338e-01  3.7977901638417083e-01  4.0649156657621843e-01  4.3037489121462119e-01  4.5141173861418138e-01  4.6974901577997019e-01  4.8555932850539307e-01  4.9899140089903188e-01  5.1016357677516133e-01  5.1917054990042322e-01  5.2608971284905437e-01  5.3098345466513619e-01  5.3389815955918984e-01  5.3486184784991142e-01  5.3388215875342104e-01  5.3094570300333144e-01  5.2601910238817129e-01  5.1905133262991066e-01  5.0997624312330447e-01  4.9871340434819345e-01  4.8516516353746597e-01  4.6920904538787295e-01  4.5068943977236836e-01  4.2942318624765163e-01  4.0525193706026047e-01  3.7819072131710174e-01  3.4871150672441487e-01  3.1811664480152446e-01  2.8871848747292489e-01  2.6346251623044414e-01  2.4476912595239861e-01  2.3313496073838563e-01  2.2767815747646597e-01  3.4175019349841301e-01  3.4186926617005131e-01  2.3246603378335973e-01  2.4963052292096558e-01  2.7647994812240984e-01  3.1270732703880583e-01  3.5631681791852421e-01  4.0271510971401864e-01  4.4739387740079017e-01  4.8763389733533508e-01  5.2254767491714671e-01  5.5234748345291651e-01  5.7765887586731479e-01  5.9913090059713081e-01  6.1728890887654297e-01  6.3251538259539131e-01  6.4507753032646287e-01  6.5516144520751862e-01  6.6289841546939710e-01  6.6838119370120930e-01  6.7167244864783560e-01  6.7280842193971213e-01  6.7180022703846121e-01  6.6863426088248068e-01  6.6327219876509314e-01  6.5565004938132665e-01  6.4567470411993722e-01  6.3321534410946789e-01  6.1808628989112435e-01  6.0001837915971756e-01  5.7862014699771491e-01  5.5334245586350395e-01  5.2348853659944217e-01  4.8835566573699185e-01  4.4764379790656822e-01  4.0219705499723984e-01  3.5481031899102122e-01  3.1030484638726491e-01  2.7345586121399951e-01  2.4650597807879704e-01  2.3045368593313431e-01  3.4171725604938635e-01  3.4245797535391864e-01  2.4294944309826066e-01  2.8964174282567323e-01  3.5040000931742843e-01  4.1431207955033755e-01  4.7535269686653631e-01  5.2922531372135173e-01  5.7416468021781308e-01  6.1071277989379047e-01  6.4045551523459454e-01  6.6503158088530856e-01  6.8571243869777632e-01  7.0334645466321011e-01  7.1844763704330661e-01  7.3130726885801978e-01  7.4208339195787554e-01  7.5086052208052301e-01  7.5768503832230838e-01  7.6258400293752149e-01  7.6557394898051889e-01  7.6666430008652764e-01  7.6585841737360028e-01  7.6315392722009590e-01  7.5854287428552669e-01  7.5201121251305303e-01  7.4353601592496377e-01  7.3307736624903286e-01  7.2055996262934596e-01  7.0583707793349770e-01  6.8862727150949021e-01  6.6841500314776803e-01  6.4431838232069505e-01  6.1496425721012005e-01  5.7850245058916294e-01  5.3298233376951243e-01  4.7744475503412104e-01  4.1345223005679338e-01  3.4574152917425599e-01  2.8271144799442477e-01  2.3855959567915622e-01  3.4196543757085679e-01  3.4450924447671227e-01  2.8161940182542078e-01  4.2022394484181785e-01  5.5114727269738839e-01  6.3337466353707483e-01  6.8239480550408382e-01  7.1314571298495311e-01  7.3393294379624519e-01  7.4936239512595915e-01  7.6201095308803080e-01  7.7322648104863623e-01  7.8360684654186297e-01  7.9332494648634722e-01  8.0234103597354567e-01  8.1052901545579559e-01  8.1774411087656562e-01  8.2385484130292896e-01  8.2875522065806817e-01  8.3236703229771136e-01  8.3463783595482988e-01  8.3553786941354269e-01  8.3505759205414776e-01  8.3320678155576411e-01  8.3001552766400488e-01  8.2553699698103600e-01  8.1985133795020804e-01  8.1306934836879718e-01  8.0533312063528206e-01  7.9680809117386131e-01  7.8765567376069467e-01  7.7796708691440408e-01  7.6762788507735791e-01  7.5607148021292436e-01  7.4187767872598953e-01  7.2213541523800773e-01  6.9144538573116654e-01  6.3963761540265351e-01  5.4918932899833073e-01  4.0352193406389836e-01  2.6243948364069397e-01  3.4246778767642699e-01  3.8569786553255830e-01  5.0310316229717356e-01  8.1124881844330798e-01  8.9855858744736028e-01  9.0613789954801283e-01  8.9778320297944525e-01  8.8746550791669487e-01  8.7859472410562911e-01  8.7222696611462236e-01  8.6857768125345258e-01  8.6736110670249289e-01  8.6803664282371462e-01  8.7001278152328498e-01  8.7276016795974720e-01  8.7584948450955613e-01  8.7895005263297132e-01  8.8181466462729241e-01  8.8426294941240680e-01  8.8616755768321687e-01  8.8744390749983681e-01  8.8804312017495779e-01  8.8794768206683206e-01  8.8716957099109406e-01  8.8575083570447577e-01  8.8376692190174477e-01  8.8133349218020685e-01  8.7861809064811291e-01  8.7585840047249364e-01  8.7338790137547018e-01  8.7166489736023756e-01  8.7128842751805280e-01  8.7296236735392219e-01  8.7734981072070584e-01  8.8478122817899962e-01  8.9485218962186308e-01  9.0593668661505222e-01  9.1371387742820853e-01  9.0354300285882982e-01  8.0436235548727453e-01  4.4771668706947571e-01  3.5168650859151734e-01  8.9704603801627203e-01  9.7652501513714551e-01  9.7276028149555960e-01  9.7085592081579530e-01  9.6768247133992158e-01  9.6277934140361743e-01  9.5662782500838794e-01  9.4992279846277461e-01  9.4356071275457309e-01  9.3829459735249965e-01  9.3436236794109218e-01  9.3158294904975092e-01  9.2964865126556595e-01  9.2830362641008035e-01  9.2738085055536645e-01  9.2677754509712906e-01  9.2642497820750458e-01  9.2627041373924901e-01  9.2627047689357056e-01  9.2639077884626575e-01  9.2660750265426595e-01  9.2690843580385640e-01  9.2729228807678843e-01  9.2776600171154455e-01  9.2834056411823851e-01  9.2902714979181300e-01  9.2983776962890663e-01  9.3079794894086532e-01  9.3198124641871305e-01  9.3356972985177045e-01  9.3591698610184715e-01  9.3953113277045375e-01  9.4484803929305361e-01  9.5175933034240490e-01  9.5918306259573294e-01  9.6525022812424865e-01  9.6861607992283050e-01  9.6943034213309032e-01  9.7243958110738238e-01  9.6745472343026706e-01  6.9395648249428377e-01  9.8023643282180517e-01  9.9051232115120835e-01  9.8499883445583947e-01  9.7728306759953032e-01  9.7007882583661664e-01  9.6421046869556715e-01  9.6160351796380339e-01  9.6270104394281042e-01  9.6582427501286450e-01  9.6899867005566342e-01  9.7097659126377267e-01  9.7123737294328683e-01  9.6982782757426711e-01  9.6716651795135289e-01  9.6381745205884894e-01  9.6031538383593840e-01  9.5708040700741326e-01  9.5440255545677521e-01  9.5246198903072865e-01  9.5135894676592136e-01  9.5113956100855968e-01  9.5181162745490966e-01  9.5334835012639108e-01  9.5567962387077621e-01  9.5867141097530062e-01  9.6209608575221717e-01  9.6560243297962178e-01  9.6870535190750284e-01  9.7083119542833507e-01  9.7146261301807701e-01  9.7039272490353146e-01  9.6798663226207826e-01  9.6522127987184814e-01  9.6335498231205896e-01  9.6343224039592690e-01  9.6605585522907600e-01  9.7150063217013527e-01  9.7914466255261479e-01  9.8833054982910540e-01  9.9047001768708753e-01  9.6497857824963318e-01  9.9655607670155388e-01  9.9683175230345245e-01  9.9385052218130610e-01  9.8826463289194277e-01  9.8154814181916439e-01  9.7294358641942713e-01  9.6458370933878046e-01  9.6165440505115474e-01  9.6646235723168217e-01  9.7576864450200351e-01  9.8474425165404689e-01  9.9025873191313019e-01  9.9145833655902216e-01  9.8902115481888653e-01  9.8424588576169381e-01  9.7844129496634191e-01  9.7265549321455491e-01  9.6762417797412104e-01  9.6381672987271094e-01  9.6150609120346398e-01  9.6082814382850545e-01  9.6181832550194679e-01  9.6442237491086646e-01  9.6848075055829241e-01  9.7368726338638178e-01  9.7952604761497919e-01  9.8520252945822584e-01  9.8961056310522577e-01  9.9142317206397734e-01  9.8943932898840281e-01  9.8328425135807307e-01  9.7429890126236218e-01  9.6591384863610319e-01  9.6240109356387749e-01  9.6579248409860596e-01  9.7379442936965144e-01  9.8231611990451073e-01  9.8915704983519404e-01  9.9488709154372379e-01  9.9713358631114235e-01  9.9156641875192131e-01  9.9794658246956547e-01  9.9808410565774697e-01  9.9566878994041441e-01  9.9111706443590020e-01  9.8547820041200473e-01  9.7756678500119032e-01  9.6778675054114338e-01  9.6061784958274110e-01  9.6250491408055761e-01  9.7284267520597734e-01  9.8528739251243169e-01  9.9410031508475094e-01  9.9697061908906082e-01  9.9439798053600281e-01  9.8815922364370623e-01  9.8018736298296294e-01  9.7206142706388876e-01  9.6489469671973671e-01  9.5939791987754375e-01  9.5598531088500294e-01  9.5486528269800142e-01  9.5609679814926674e-01  9.5960737540379482e-01  9.6517250502427288e-01  9.7235690350878490e-01  9.8042240077412401e-01  9.8822408334498757e-01  9.9415838541639601e-01  9.9630443273397762e-01  9.9298716293720024e-01  9.8394467515200779e-01  9.7178032824496885e-01  9.6221578034758548e-01  9.6094263670176538e-01  9.6803307345351763e-01  9.7760700360164066e-01  9.8552192232679248e-01  9.9118335160905369e-01  9.9564520877250307e-01  9.9803669146135898e-01  9.9799077451632334e-01  9.9199141276497782e-01  9.9729438728589948e-01  9.9482123837610692e-01  9.8962631947015245e-01  9.8375493721161078e-01  9.7562943226977827e-01  9.6555999808302939e-01  9.5701238283816326e-01  9.5672335861011659e-01  9.6560471729295261e-01  9.7749197790216391e-01  9.8579588771868765e-01  9.8757933232301576e-01  9.8326815656426303e-01  9.7488163270881911e-01  9.6465972428370605e-01  9.5443285387379828e-01  9.4548451779942067e-01  9.3862804776333486e-01  9.3433404676629772e-01  9.3283861518745503e-01  9.3421062886958617e-01  9.3837439750198737e-01  9.4508793092115240e-01  9.5387703497642051e-01  9.6392939879696682e-01  9.7397087490253831e-01  9.8219388838263821e-01  9.8639996858716750e-01  9.8462930250312231e-01  9.7651074551811745e-01  9.6495803676326553e-01  9.5636047175793137e-01  9.5663016354608288e-01  9.6499272499244804e-01  9.7503956310850037e-01  9.8325084178862776e-01  9.8906014456560887e-01  9.9399786160396519e-01  9.9692326034333067e-01  9.9668206695626460e-01  9.6548558360243331e-01  9.9090205076639770e-01  9.8872286887190897e-01  9.8192475870084805e-01  9.7543162562216867e-01  9.6674407935291229e-01  9.5640305066881448e-01  9.4788558055445682e-01  9.4640937202975228e-01  9.5228646845794096e-01  9.6006855689642467e-01  9.6409971181420751e-01  9.6202609804325201e-01  9.5449357561202686e-01  9.4352741442471522e-01  9.3128834299653507e-01  9.1951356071902035e-01  9.0940795095057569e-01  9.0172765745970263e-01  8.9690606116815541e-01  8.9515889688173900e-01  8.9654955439806006e-01  9.0101198275711170e-01  9.0833184619955054e-01  9.1808607497661576e-01  9.2954369249115443e-01  9.4154560950082600e-01  9.5242164489857972e-01  9.6008329229233746e-01  9.6253367683209690e-01  9.5902696956314026e-01  9.5163130285594932e-01  9.4567679685516681e-01  9.4668869015952029e-01  9.5494496227335279e-01  9.6545943330174133e-01  9.7439397425309293e-01  9.8064676790221905e-01  9.8630619800832142e-01  9.9119452358506110e-01  9.8088628384065601e-01  7.1185153563325843e-01  9.6076513955908327e-01  9.6546774125332058e-01  9.6364231993714522e-01  9.5855934324462666e-01  9.4953705401219191e-01  9.3856884584569233e-01  9.2935810689641518e-01  9.2537017486007134e-01  9.2599307750623305e-01  9.2703967693159450e-01  9.2470990912295470e-01  9.1772286785276203e-01  9.0689955746498596e-01  8.9396277774528921e-01  8.8065621454560505e-01  8.6835921404676397e-01  8.5802238584322998e-01  8.5023990213409961e-01  8.4535069286148312e-01  8.4352233485571904e-01  8.4480353173227962e-01  8.4914326014275288e-01  8.5637721632332786e-01  8.6618190324525823e-01  8.7799856534792764e-01  8.9093924128407376e-01  9.0371441949715869e-01  9.1467515309213332e-01  9.2213275179111553e-01  9.2512857990010899e-01  9.2456175031054244e-01  9.2379839167485200e-01  9.2710545791467347e-01  9.3590181637594794e-01  9.4732508788131531e-01  9.5742490469803776e-01  9.6334584015242941e-01  9.6457458562161946e-01  9.6515549428991942e-01  9.0400249087710383e-01  3.6442965757332302e-01  6.3111047722756819e-01  9.3931920570093452e-01  9.4232270728801526e-01  9.3119117089301762e-01  9.1762193776847789e-01  9.0331534364550958e-01  8.9109387235003756e-01  8.8276412475080224e-01  8.7726800270759342e-01  8.7179329428684038e-01  8.6416004502238419e-01  8.5381535558536403e-01  8.4145195158319541e-01  8.2827292492346805e-01  8.1546811311434908e-01  8.0398206341162903e-01  7.9447328281048302e-01  7.8735884844022763e-01  7.8287936165951522e-01  7.8115435241195164e-01  7.8221783116408616e-01  7.8603187946208597e-01  7.9247848165227430e-01  8.0133024914156359e-01  8.1220236935370860e-01  8.2449446449519548e-01  8.3734655738227892e-01  8.4966171460556650e-01  8.6028341696814636e-01  8.6842210264228947e-01  8.7430842105637252e-01  8.7968609686972221e-01  8.8728245902651093e-01  8.9883798606945220e-01  9.1354616034983072e-01  9.2916255409929183e-01  9.4368209797564084e-01  9.4437007526749306e-01  6.8556891981649570e-01  4.0463741694663524e-01  3.4932249913940377e-01  3.6443787532229732e-01  7.0490547417836247e-01  8.3768572403698116e-01  8.5310338024992560e-01  8.4458145650015015e-01  8.3159688903309703e-01  8.1945130704680036e-01  8.0969776689341511e-01  8.0160508937447128e-01  7.9357130212803695e-01  7.8447140917877689e-01  7.7408333957925834e-01  7.6285526426698747e-01  7.5152050750222887e-01  7.4081632076112591e-01  7.3134758303142611e-01  7.2355282160698686e-01  7.1772144448379394e-01  7.1402710033015082e-01  7.1255874229915617e-01  7.1334165094132784e-01  7.1634597747379192e-01  7.2148253896353209e-01  7.2858667246594777e-01  7.3739264772023538e-01  7.4750515224048952e-01  7.5838239606928892e-01  7.6935791536987030e-01  7.7974087450524865e-01  7.8903215399790727e-01  7.9724319950307920e-01  8.0516366756884161e-01  8.1420853768082624e-01  8.2547477622278986e-01  8.3830391056142639e-01  8.4845056332939794e-01  8.3763405898839660e-01  7.1880217583082495e-01  3.9605890492342616e-01  3.5299590098190481e-01  3.4781535032249478e-01  3.0764846100901755e-01  5.1055082912508865e-01  6.5495229609879713e-01  7.0909148611923667e-01  7.2253544414255133e-01  7.2200602071665165e-01  7.1746198505629744e-01  7.1225485058629190e-01  7.0693976557063432e-01  7.0112075928168305e-01  6.9445214031166458e-01  6.8694876986680575e-01  6.7893208847965070e-01  6.7087015986580889e-01  6.6324145841900395e-01  6.5645697141204851e-01  6.5083202800406814e-01  6.4658777459167638e-01  6.4386508560308997e-01  6.4274003611315988e-01  6.4323532218312784e-01  6.4532529179730480e-01  6.4893407851857876e-01  6.5392757843317828e-01  6.6010151663558714e-01  6.6717033386584101e-01  6.7476544098618441e-01  6.8245575373943779e-01  6.8980501723520771e-01  6.9647220434390722e-01  7.0233310636733315e-01  7.0754230478095426e-01  7.1235656909502498e-01  7.1641976690291465e-01  7.1707783371075251e-01  7.0548676301883406e-01  6.5638628495008600e-01  5.2006462486891325e-01  3.1708556092504425e-01  3.4911088157154979e-01  3.4659708618508411e-01  2.8247631069854756e-01  4.1080564132956160e-01  5.1637342463493263e-01  5.7132216242518197e-01  5.9550806200990158e-01  6.0542101641021717e-01  6.0918642375620402e-01  6.1028820830077646e-01  6.0991782365457881e-01  6.0836646477739176e-01  6.0572839872448003e-01  6.0216812006473375e-01  5.9796351898896927e-01  5.9345867944146113e-01  5.8900309657506167e-01  5.8490781995083818e-01  5.8142388298746395e-01  5.7873739374418776e-01  5.7697355916014736e-01  5.7620349809139149e-01  5.7645002591604144e-01  5.7769050699383473e-01  5.7985624247984835e-01  5.8282896033058795e-01  5.8643614650252585e-01  5.9044843328383656e-01  5.9458390869720579e-01  5.9852507970792024e-01  6.0195201695907385e-01  6.0458634649922327e-01  6.0622187210210332e-01  6.0668713166034638e-01  6.0563867608423760e-01  6.0200276323939250e-01  5.9273337421190930e-01  5.7031981000880627e-01  5.1901351240201288e-01  4.1791641289452702e-01  2.8845268780437350e-01  3.4733406766814318e-01  3.4587108986274329e-01  2.6966554353842787e-01  3.5871960683130555e-01  4.3145051813440816e-01  4.7343113763748573e-01  4.9604449757265262e-01  5.0863212663684920e-01  5.1623691562988838e-01  5.2121263973682885e-01  5.2450301606052041e-01  5.2645668880679697e-01  5.2723741704181182e-01  5.2700904798147241e-01  5.2598654997940020e-01  5.2442372433232987e-01  5.2258209070516204e-01  5.2070276598973808e-01  5.1898882417402503e-01  5.1759755875010427e-01  5.1663926220606071e-01  5.1617905294216426e-01  5.1623922866188643e-01  5.1680071844824660e-01  5.1780317083919636e-01  5.1914407238776106e-01  5.2067814308548499e-01  5.2221912801845571e-01  5.2354677343102096e-01  5.2442153036324779e-01  5.2460699065932292e-01  5.2389340130274198e-01  5.2210357091995263e-01  5.1904553563626354e-01  5.1435449710848169e-01  5.0713054342674113e-01  4.9520572835802895e-01  4.7378951468711683e-01  4.3361949161160596e-01  3.6287409477006294e-01  2.7297437793833657e-01  3.4635054982384622e-01  3.4529850080938396e-01  2.6126297741941118e-01  3.2664371398044867e-01  3.7804092139766615e-01  4.0841486394828230e-01  4.2606910746252413e-01  4.3725965596020039e-01  4.4521646351384786e-01  4.5135829481996859e-01  4.5623478296697134e-01  4.6003017773127614e-01  4.6281817478354853e-01  4.6468096827170258e-01  4.6574401364459805e-01  4.6617016027406938e-01  4.6613874099343539e-01  4.6582425793589000e-01  4.6538070707911716e-01  4.6493233728941774e-01  4.6456938950386695e-01  4.6434684732519677e-01  4.6428456732902396e-01  4.6436777166707299e-01  4.6454753638434182e-01  4.6474153220726772e-01  4.6483586645862357e-01  4.6468938865209158e-01  4.6414206519797152e-01  4.6302855138059279e-01  4.6119612538305060e-01  4.5852175764767372e-01  4.5491563065106777e-01  4.5028807141624227e-01  4.4444351715564967e-01  4.3684304695679038e-01  4.2612660890981691e-01  4.0919788450242739e-01  3.7984813398745232e-01  3.2942618943854696e-01  2.6345105652554779e-01  3.4567674275628302e-01  3.4480471276306451e-01  2.5518050735388209e-01  3.0515085078287224e-01  3.4261199234110740e-01  3.6449143088906177e-01  3.7755105308980341e-01  3.8643678391379854e-01  3.9336150848365425e-01  3.992167828