<?xml version="1.0"?>
<VTKFile type="UnstructuredGrid"  version="0.1"  >
<UnstructuredGrid>
<Piece  NumberOfPoints="1681" NumberOfCells="3200">
<Points>
<DataArray  type="Float64"  NumberOfComponents="3"  format="ascii">0 0 0  0.025 0 0  0.05 0 0  0.075 0 0  0.1 0 0  0.125 0 0  0.15 0 0  0.175 0 0  0.2 0 0  0.225 0 0  0.25 0 0  0.275 0 0  0.3 0 0  0.325 0 0  0.35 0 0  0.375 0 0  0.4 0 0  0.425 0 0  0.45 0 0  0.475 0 0  0.5 0 0  0.525 0 0  0.55 0 0  0.575 0 0  0.6 0 0  0.625 0 0  0.65 0 0  0.675 0 0  0.7 0 0  0.725 0 0  0.75 0 0  0.775 0 0  0.8 0 0  0.825 0 0  0.85 0 0  0.875 0 0  0.9 0 0  0.925 0 0  0.95 0 0  0.975 0 0  1 0 0  0 0.025 0  0.025 0.025 0  0.05 0.025 0  0.075 0.025 0  0.1 0.025 0  0.125 0.025 0  0.15 0.025 0  0.175 0.025 0  0.2 0.025 0  0.225 0.025 0  0.25 0.025 0  0.275 0.025 0  0.3 0.025 0  0.325 0.025 0  0.35 0.025 0  0.375 0.025 0  0.4 0.025 0  0.425 0.025 0  0.45 0.025 0  0.475 0.025 0  0.5 0.025 0  0.525 0.025 0  0.55 0.025 0  0.575 0.025 0  0.6 0.025 0  0.625 0.025 0  0.65 0.025 0  0.675 0.025 0  0.7 0.025 0  0.725 0.025 0  0.75 0.025 0  0.775 0.025 0  0.8 0.025 0  0.825 0.025 0  0.85 0.025 0  0.875 0.025 0  0.9 0.025 0  0.925 0.025 0  0.95 0.025 0  0.975 0.025 0  1 0.025 0  0 0.05 0  0.025 0.05 0  0.05 0.05 0  0.075 0.05 0  0.1 0.05 0  0.125 0.05 0  0.15 0.05 0  0.175 0.05 0  0.2 0.05 0  0.225 0.05 0  0.25 0.05 0  0.275 0.05 0  0.3 0.05 0  0.325 0.05 0  0.35 0.05 0  0.375 0.05 0  0.4 0.05 0  0.425 0.05 0  0.45 0.05 0  0.475 0.05 0  0.5 0.05 0  0.525 0.05 0  0.55 0.05 0  0.575 0.05 0  0.6 0.05 0  0.625 0.05 0  0.65 0.05 0  0.675 0.05 0  0.7 0.05 0  0.725 0.05 0  0.75 0.05 0  0.775 0.05 0  0.8 0.05 0  0.825 0.05 0  0.85 0.05 0  0.875 0.05 0  0.9 0.05 0  0.925 0.05 0  0.95 0.05 0  0.975 0.05 0  1 0.05 0  0 0.075 0  0.025 0.075 0  0.05 0.075 0  0.075 0.075 0  0.1 0.075 0  0.125 0.075 0  0.15 0.075 0  0.175 0.075 0  0.2 0.075 0  0.225 0.075 0  0.25 0.075 0  0.275 0.075 0  0.3 0.075 0  0.325 0.075 0  0.35 0.075 0  0.375 0.075 0  0.4 0.075 0  0.425 0.075 0  0.45 0.075 0  0.475 0.075 0  0.5 0.075 0  0.525 0.075 0  0.55 0.075 0  0.575 0.075 0  0.6 0.075 0  0.625 0.075 0  0.65 0.075 0  0.675 0.075 0  0.7 0.075 0  0.725 0.075 0  0.75 0.075 0  0.775 0.075 0  0.8 0.075 0  0.825 0.075 0  0.85 0.075 0  0.875 0.075 0  0.9 0.075 0  0.925 0.075 0  0.95 0.075 0  0.975 0.075 0  1 0.075 0  0 0.1 0  0.025 0.1 0  0.05 0.1 0  0.075 0.1 0  0.1 0.1 0  0.125 0.1 0  0.15 0.1 0  0.175 0.1 0  0.2 0.1 0  0.225 0.1 0  0.25 0.1 0  0.275 0.1 0  0.3 0.1 0  0.325 0.1 0  0.35 0.1 0  0.375 0.1 0  0.4 0.1 0  0.425 0.1 0  0.45 0.1 0  0.475 0.1 0  0.5 0.1 0  0.525 0.1 0  0.55 0.1 0  0.575 0.1 0  0.6 0.1 0  0.625 0.1 0  0.65 0.1 0  0.675 0.1 0  0.7 0.1 0  0.725 0.1 0  0.75 0.1 0  0.775 0.1 0  0.8 0.1 0  0.825 0.1 0  0.85 0.1 0  0.875 0.1 0  0.9 0.1 0  0.925 0.1 0  0.95 0.1 0  0.975 0.1 0  1 0.1 0  0 0.125 0  0.025 0.125 0  0.05 0.125 0  0.075 0.125 0  0.1 0.125 0  0.125 0.125 0  0.15 0.125 0  0.175 0.125 0  0.2 0.125 0  0.225 0.125 0  0.25 0.125 0  0.275 0.125 0  0.3 0.125 0  0.325 0.125 0  0.35 0.125 0  0.375 0.125 0  0.4 0.125 0  0.425 0.125 0  0.45 0.125 0  0.475 0.125 0  0.5 0.125 0  0.525 0.125 0  0.55 0.125 0  0.575 0.125 0  0.6 0.125 0  0.625 0.125 0  0.65 0.125 0  0.675 0.125 0  0.7 0.125 0  0.725 0.125 0  0.75 0.125 0  0.775 0.125 0  0.8 0.125 0  0.825 0.125 0  0.85 0.125 0  0.875 0.125 0  0.9 0.125 0  0.925 0.125 0  0.95 0.125 0  0.975 0.125 0  1 0.125 0  0 0.15 0  0.025 0.15 0  0.05 0.15 0  0.075 0.15 0  0.1 0.15 0  0.125 0.15 0  0.15 0.15 0  0.175 0.15 0  0.2 0.15 0  0.225 0.15 0  0.25 0.15 0  0.275 0.15 0  0.3 0.15 0  0.325 0.15 0  0.35 0.15 0  0.375 0.15 0  0.4 0.15 0  0.425 0.15 0  0.45 0.15 0  0.475 0.15 0  0.5 0.15 0  0.525 0.15 0  0.55 0.15 0  0.575 0.15 0  0.6 0.15 0  0.625 0.15 0  0.65 0.15 0  0.675 0.15 0  0.7 0.15 0  0.725 0.15 0  0.75 0.15 0  0.775 0.15 0  0.8 0.15 0  0.825 0.15 0  0.85 0.15 0  0.875 0.15 0  0.9 0.15 0  0.925 0.15 0  0.95 0.15 0  0.975 0.15 0  1 0.15 0  0 0.175 0  0.025 0.175 0  0.05 0.175 0  0.075 0.175 0  0.1 0.175 0  0.125 0.175 0  0.15 0.175 0  0.175 0.175 0  0.2 0.175 0  0.225 0.175 0  0.25 0.175 0  0.275 0.175 0  0.3 0.175 0  0.325 0.175 0  0.35 0.175 0  0.375 0.175 0  0.4 0.175 0  0.425 0.175 0  0.45 0.175 0  0.475 0.175 0  0.5 0.175 0  0.525 0.175 0  0.55 0.175 0  0.575 0.175 0  0.6 0.175 0  0.625 0.175 0  0.65 0.175 0  0.675 0.175 0  0.7 0.175 0  0.725 0.175 0  0.75 0.175 0  0.775 0.175 0  0.8 0.175 0  0.825 0.175 0  0.85 0.175 0  0.875 0.175 0  0.9 0.175 0  0.925 0.175 0  0.95 0.175 0  0.975 0.175 0  1 0.175 0  0 0.2 0  0.025 0.2 0  0.05 0.2 0  0.075 0.2 0  0.1 0.2 0  0.125 0.2 0  0.15 0.2 0  0.175 0.2 0  0.2 0.2 0  0.225 0.2 0  0.25 0.2 0  0.275 0.2 0  0.3 0.2 0  0.325 0.2 0  0.35 0.2 0  0.375 0.2 0  0.4 0.2 0  0.425 0.2 0  0.45 0.2 0  0.475 0.2 0  0.5 0.2 0  0.525 0.2 0  0.55 0.2 0  0.575 0.2 0  0.6 0.2 0  0.625 0.2 0  0.65 0.2 0  0.675 0.2 0  0.7 0.2 0  0.725 0.2 0  0.75 0.2 0  0.775 0.2 0  0.8 0.2 0  0.825 0.2 0  0.85 0.2 0  0.875 0.2 0  0.9 0.2 0  0.925 0.2 0  0.95 0.2 0  0.975 0.2 0  1 0.2 0  0 0.225 0  0.025 0.225 0  0.05 0.225 0  0.075 0.225 0  0.1 0.225 0  0.125 0.225 0  0.15 0.225 0  0.175 0.225 0  0.2 0.225 0  0.225 0.225 0  0.25 0.225 0  0.275 0.225 0  0.3 0.225 0  0.325 0.225 0  0.35 0.225 0  0.375 0.225 0  0.4 0.225 0  0.425 0.225 0  0.45 0.225 0  0.475 0.225 0  0.5 0.225 0  0.525 0.225 0  0.55 0.225 0  0.575 0.225 0  0.6 0.225 0  0.625 0.225 0  0.65 0.225 0  0.675 0.225 0  0.7 0.225 0  0.725 0.225 0  0.75 0.225 0  0.775 0.225 0  0.8 0.225 0  0.825 0.225 0  0.85 0.225 0  0.875 0.225 0  0.9 0.225 0  0.925 0.225 0  0.95 0.225 0  0.975 0.225 0  1 0.225 0  0 0.25 0  0.025 0.25 0  0.05 0.25 0  0.075 0.25 0  0.1 0.25 0  0.125 0.25 0  0.15 0.25 0  0.175 0.25 0  0.2 0.25 0  0.225 0.25 0  0.25 0.25 0  0.275 0.25 0  0.3 0.25 0  0.325 0.25 0  0.35 0.25 0  0.375 0.25 0  0.4 0.25 0  0.425 0.25 0  0.45 0.25 0  0.475 0.25 0  0.5 0.25 0  0.525 0.25 0  0.55 0.25 0  0.575 0.25 0  0.6 0.25 0  0.625 0.25 0  0.65 0.25 0  0.675 0.25 0  0.7 0.25 0  0.725 0.25 0  0.75 0.25 0  0.775 0.25 0  0.8 0.25 0  0.825 0.25 0  0.85 0.25 0  0.875 0.25 0  0.9 0.25 0  0.925 0.25 0  0.95 0.25 0  0.975 0.25 0  1 0.25 0  0 0.275 0  0.025 0.275 0  0.05 0.275 0  0.075 0.275 0  0.1 0.275 0  0.125 0.275 0  0.15 0.275 0  0.175 0.275 0  0.2 0.275 0  0.225 0.275 0  0.25 0.275 0  0.275 0.275 0  0.3 0.275 0  0.325 0.275 0  0.35 0.275 0  0.375 0.275 0  0.4 0.275 0  0.425 0.275 0  0.45 0.275 0  0.475 0.275 0  0.5 0.275 0  0.525 0.275 0  0.55 0.275 0  0.575 0.275 0  0.6 0.275 0  0.625 0.275 0  0.65 0.275 0  0.675 0.275 0  0.7 0.275 0  0.725 0.275 0  0.75 0.275 0  0.775 0.275 0  0.8 0.275 0  0.825 0.275 0  0.85 0.275 0  0.875 0.275 0  0.9 0.275 0  0.925 0.275 0  0.95 0.275 0  0.975 0.275 0  1 0.275 0  0 0.3 0  0.025 0.3 0  0.05 0.3 0  0.075 0.3 0  0.1 0.3 0  0.125 0.3 0  0.15 0.3 0  0.175 0.3 0  0.2 0.3 0  0.225 0.3 0  0.25 0.3 0  0.275 0.3 0  0.3 0.3 0  0.325 0.3 0  0.35 0.3 0  0.375 0.3 0  0.4 0.3 0  0.425 0.3 0  0.45 0.3 0  0.475 0.3 0  0.5 0.3 0  0.525 0.3 0  0.55 0.3 0  0.575 0.3 0  0.6 0.3 0  0.625 0.3 0  0.65 0.3 0  0.675 0.3 0  0.7 0.3 0  0.725 0.3 0  0.75 0.3 0  0.775 0.3 0  0.8 0.3 0  0.825 0.3 0  0.85 0.3 0  0.875 0.3 0  0.9 0.3 0  0.925 0.3 0  0.95 0.3 0  0.975 0.3 0  1 0.3 0  0 0.325 0  0.025 0.325 0  0.05 0.325 0  0.075 0.325 0  0.1 0.325 0  0.125 0.325 0  0.15 0.325 0  0.175 0.325 0  0.2 0.325 0  0.225 0.325 0  0.25 0.325 0  0.275 0.325 0  0.3 0.325 0  0.325 0.325 0  0.35 0.325 0  0.375 0.325 0  0.4 0.325 0  0.425 0.325 0  0.45 0.325 0  0.475 0.325 0  0.5 0.325 0  0.525 0.325 0  0.55 0.325 0  0.575 0.325 0  0.6 0.325 0  0.625 0.325 0  0.65 0.325 0  0.675 0.325 0  0.7 0.325 0  0.725 0.325 0  0.75 0.325 0  0.775 0.325 0  0.8 0.325 0  0.825 0.325 0  0.85 0.325 0  0.875 0.325 0  0.9 0.325 0  0.925 0.325 0  0.95 0.325 0  0.975 0.325 0  1 0.325 0  0 0.35 0  0.025 0.35 0  0.05 0.35 0  0.075 0.35 0  0.1 0.35 0  0.125 0.35 0  0.15 0.35 0  0.175 0.35 0  0.2 0.35 0  0.225 0.35 0  0.25 0.35 0  0.275 0.35 0  0.3 0.35 0  0.325 0.35 0  0.35 0.35 0  0.375 0.35 0  0.4 0.35 0  0.425 0.35 0  0.45 0.35 0  0.475 0.35 0  0.5 0.35 0  0.525 0.35 0  0.55 0.35 0  0.575 0.35 0  0.6 0.35 0  0.625 0.35 0  0.65 0.35 0  0.675 0.35 0  0.7 0.35 0  0.725 0.35 0  0.75 0.35 0  0.775 0.35 0  0.8 0.35 0  0.825 0.35 0  0.85 0.35 0  0.875 0.35 0  0.9 0.35 0  0.925 0.35 0  0.95 0.35 0  0.975 0.35 0  1 0.35 0  0 0.375 0  0.025 0.375 0  0.05 0.375 0  0.075 0.375 0  0.1 0.375 0  0.125 0.375 0  0.15 0.375 0  0.175 0.375 0  0.2 0.375 0  0.225 0.375 0  0.25 0.375 0  0.275 0.375 0  0.3 0.375 0  0.325 0.375 0  0.35 0.375 0  0.375 0.375 0  0.4 0.375 0  0.425 0.375 0  0.45 0.375 0  0.475 0.375 0  0.5 0.375 0  0.525 0.375 0  0.55 0.375 0  0.575 0.375 0  0.6 0.375 0  0.625 0.375 0  0.65 0.375 0  0.675 0.375 0  0.7 0.375 0  0.725 0.375 0  0.75 0.375 0  0.775 0.375 0  0.8 0.375 0  0.825 0.375 0  0.85 0.375 0  0.875 0.375 0  0.9 0.375 0  0.925 0.375 0  0.95 0.375 0  0.975 0.375 0  1 0.375 0  0 0.4 0  0.025 0.4 0  0.05 0.4 0  0.075 0.4 0  0.1 0.4 0  0.125 0.4 0  0.15 0.4 0  0.175 0.4 0  0.2 0.4 0  0.225 0.4 0  0.25 0.4 0  0.275 0.4 0  0.3 0.4 0  0.325 0.4 0  0.35 0.4 0  0.375 0.4 0  0.4 0.4 0  0.425 0.4 0  0.45 0.4 0  0.475 0.4 0  0.5 0.4 0  0.525 0.4 0  0.55 0.4 0  0.575 0.4 0  0.6 0.4 0  0.625 0.4 0  0.65 0.4 0  0.675 0.4 0  0.7 0.4 0  0.725 0.4 0  0.75 0.4 0  0.775 0.4 0  0.8 0.4 0  0.825 0.4 0  0.85 0.4 0  0.875 0.4 0  0.9 0.4 0  0.925 0.4 0  0.95 0.4 0  0.975 0.4 0  1 0.4 0  0 0.425 0  0.025 0.425 0  0.05 0.425 0  0.075 0.425 0  0.1 0.425 0  0.125 0.425 0  0.15 0.425 0  0.175 0.425 0  0.2 0.425 0  0.225 0.425 0  0.25 0.425 0  0.275 0.425 0  0.3 0.425 0  0.325 0.425 0  0.35 0.425 0  0.375 0.425 0  0.4 0.425 0  0.425 0.425 0  0.45 0.425 0  0.475 0.425 0  0.5 0.425 0  0.525 0.425 0  0.55 0.425 0  0.575 0.425 0  0.6 0.425 0  0.625 0.425 0  0.65 0.425 0  0.675 0.425 0  0.7 0.425 0  0.725 0.425 0  0.75 0.425 0  0.775 0.425 0  0.8 0.425 0  0.825 0.425 0  0.85 0.425 0  0.875 0.425 0  0.9 0.425 0  0.925 0.425 0  0.95 0.425 0  0.975 0.425 0  1 0.425 0  0 0.45 0  0.02
[...]
<PointData  Scalars="ControlVisualisation"> 
<DataArray  type="Float64"  Name="ControlVisualisation"  format="ascii">2.0147770314940523e-03  1.3440261647321844e-03  1.3442096445750213e-03  1.3445197548225020e-03  1.3449468052257566e-03  1.3454794546021288e-03  1.3461033093989121e-03  1.3468016729877347e-03  1.3475560414459957e-03  1.3483466329260679e-03  1.3491529495318576e-03  1.3499543304690289e-03  1.3507304846412306e-03  1.3514619892971598e-03  1.3521307444166063e-03  1.3527203758997742e-03  1.3532165834001485e-03  1.3536074309193579e-03  1.3538835799064384e-03  1.3540384656389604e-03  1.3540684180665505e-03  1.3539727282730759e-03  1.3537536612783236e-03  1.3534164153240665e-03  1.3529690271428039e-03  1.3524222222013322e-03  1.3517892086754831e-03  1.3510854141294197e-03  1.3503281646015338e-03  1.3495363071482651e-03  1.3487297788951256e-03  1.3479291281934982e-03  1.3471549966185686e-03  1.3464275728936846e-03  1.3457660369267054e-03  1.3451880036688562e-03  1.3447090098121369e-03  1.3443418937929526e-03  1.3440976998966214e-03  1.3439786997568441e-03  4.0234105767537045e-03  1.3440265780834367e-03  6.7249565474829286e-04  6.7269022528324278e-04  6.7303422484835866e-04  6.7352305818820586e-04  6.7414389363065839e-04  6.7488028210538548e-04  6.7571293135245455e-04  6.7662012946199436e-04  6.7757835933139176e-04  6.7856293979206802e-04  6.7954867853103342e-04  6.8051052231351628e-04  6.8142418647353185e-04  6.8226674896116918e-04  6.8301719664667232e-04  6.8365691393953889e-04  6.8417010600834870e-04  6.8454415082068660e-04  6.8476987586253918e-04  6.8484175670104291e-04  6.8475803558766318e-04  6.8452075910421925e-04  6.8413573453263165e-04  6.8361240527233988e-04  6.8296364631621710e-04  6.8220548163350062e-04  6.8135672638013414e-04  6.8043855821570815e-04  6.7947402366517334e-04  6.7848748746049197e-04  6.7750403503663581e-04  6.7654884074464167e-04  6.7564651655718951e-04  6.7482046092497421e-04  6.7409221522874698e-04  6.7348088099100222e-04  6.7300256281860413e-04  6.7266951048341897e-04  6.7247838821984148e-04  1.3439787561325557e-03  1.3442146275506020e-03  6.7269417025783425e-04  6.7294831096258016e-04  6.7335114552522586e-04  6.7392465745255334e-04  6.7465491535726764e-04  6.7552279915922731e-04  6.7650568277682216e-04  6.7757804006934874e-04  6.7871216790792350e-04  6.7987892210943500e-04  6.8104848301271735e-04  6.8219112274048668e-04  6.8327795346063557e-04  6.8428163911518429e-04  6.8517705519859085e-04  6.8594188362834099e-04  6.8655713209740188e-04  6.8700756945301827e-04  6.8728207058005742e-04  6.8737386598983726e-04  6.8728069281675033e-04  6.8700484529953931e-04  6.8655312408124735e-04  6.8593668491926470e-04  6.8517078865619539e-04  6.8427445570997801e-04  6.8327002987265679e-04  6.8218265796909190e-04  6.8103969388650320e-04  6.7987003768753122e-04  6.7870342286983562e-04  6.7756966735077711e-04  6.7649790594817778e-04  6.7551582596401920e-04  6.7464891880153813e-04  6.7391982298174019e-04  6.7334737769156815e-04  6.7294403594721360e-04  6.7267281420408341e-04  1.3440992718961968e-03  1.3445439650753390e-03  6.7305665162665715e-04  6.7337209287191208e-04  6.7378113853386096e-04  6.7435978492766293e-04  6.7509639470258022e-04  6.7597182557265444e-04  6.7696316938939502e-04  6.7804462026423867e-04  6.7918819030051108e-04  6.8036446168855277e-04  6.8154336334522875e-04  6.8269494428883676e-04  6.8379012531370352e-04  6.8480141136241653e-04  6.8570354966805756e-04  6.8647412138393336e-04  6.8709405678470494e-04  6.8754806628048008e-04  6.8782498133920539e-04  6.8791800100948366e-04  6.8782484112581458e-04  6.8754778448451342e-04  6.8709363138951636e-04  6.8647355106095029e-04  6.8570283551718989e-04  6.8480055878117514e-04  6.8378914568880615e-04  6.8269385619953180e-04  6.8154219302350239e-04  6.8036324256545797e-04  6.7918696159508614e-04  6.7804342472262027e-04  6.7696205003951314e-04  6.7597082475328468e-04  6.7509554293994649e-04  6.7435910813019016e-04  6.7378037184872132e-04  6.7336820402014836e-04  6.7302266012546688e-04  1.3443532155768567e-03  1.3450229376540963e-03  6.7359844726005362e-04  6.7400643961415573e-04  6.7442094806683317e-04  6.7500068948203422e-04  6.7573820248841921e-04  6.7661443861323652e-04  6.7760634868060140e-04  6.7868801094895061e-04  6.7983134806578940e-04  6.8100689738199050e-04  6.8218459228264498e-04  6.8333453573560189e-04  6.8442774713154580e-04  6.8543686546438797e-04  6.8633679513765847e-04  6.8710528339554924e-04  6.8772342081409418e-04  6.8817605836964839e-04  6.8845213631774441e-04  6.8854492149144437e-04  6.8845215077814994e-04  6.8817607947001518e-04  6.8772343401694521e-04  6.8710526951375509e-04  6.8633673310871909e-04  6.8543673548456755e-04  6.8442753374715795e-04  6.8333423048297164e-04  6.8218419551050575e-04  6.8100641898177457e-04  6.7983080696106977e-04  6.7868743343300290e-04  6.7760576525571661e-04  6.7661388146711345e-04  6.7573769628148314e-04  6.7500023435337658e-04  6.7442018378627917e-04  6.7400110271418094e-04  6.7355035290160700e-04  1.3447523454331383e-03  1.3456658699211254e-03  6.7433601038908921e-04  6.7487173663981616e-04  6.7529343030083748e-04  6.7587411057796814e-04  6.7661218944139372e-04  6.7748871212866850e-04  6.7848046912213531e-04  6.7956140063493470e-04  6.8070333662034082e-04  6.8187678367124854e-04  6.8305171175649907e-04  6.8419832711466046e-04  6.8528781138775649e-04  6.8629301149887643e-04  6.8718906813076117e-04  6.8795397355553073e-04  6.8856905205364491e-04  6.8901935811273372e-04  6.8929398910245858e-04  6.8938631020489818e-04  6.8929409020638676e-04  6.8901954735925625e-04  6.8856930499668198e-04  6.8795425704956063e-04  6.8718934411287388e-04  6.8629324134562636e-04  6.8528796034026090e-04  6.8419836825628312e-04  6.8305162906075808e-04  6.8187657373487394e-04  6.8070300880366359e-04  6.7956097559442529e-04  6.7847997553658875e-04  6.7748818251364392e-04  6.7661165051803183e-04  6.7587355815454939e-04  6.7529237982943827e-04  6.7486455525406707e-04  6.7427224865325896e-04  1.3453073043015952e-03  1.3464918483521771e-03  6.7529183305946078e-04  6.7599465462779497e-04  6.7642554204909672e-04  6.7700702533931862e-04  6.7774529114064620e-04  6.7862154385168669e-04  6.7961238761223214e-04  6.8069160225184082e-04  6.8183092192605343e-04  6.8300083797413367e-04  6.8417139184146793e-04  6.8531294544385763e-04  6.8639690924852156e-04  6.8739641433926901e-04  6.8828691831673350e-04  6.8904673805929284e-04  6.8965750479687161e-04  6.9010453871902293e-04  6.9037714153575398e-04  6.9046880613732125e-04  6.9037734292217530e-04  6.9010492258399507e-04  6.8965803521840784e-04  6.8904736568793591e-04  6.8828758529135183e-04  6.8739706001673590e-04  6.8639747613420091e-04  6.8531338469351641e-04  6.8417166771762015e-04  6.8300093073949547e-04  6.8183082878482584e-04  6.8069133618068667e-04  6.7961197393047901e-04  6.7862101526570756e-04  6.7774467598744124e-04  6.7700631976683981e-04  6.7642413628284960e-04  6.7598538635122438e-04  6.7521040845794106e-04  1.3460345803458632e-03  1.3475258187520098e-03  6.7649576846432228e-04  6.7741049696444522e-04  6.7785263497189500e-04  6.7843446123715416e-04  6.7917210857173919e-04  6.8004702191851413e-04  6.8103560188184284e-04  6.8211146251171946e-04  6.8324625607153473e-04  6.8441049350574819e-04  6.8557434316766951e-04  6.8670839574032567e-04  6.8778437691146231e-04  6.8877579623531908e-04  6.8965852461263339e-04  6.9041129618275111e-04  6.9101613269835385e-04  6.9145868991381384e-04  6.9172852630995565e-04  6.9181929477472772e-04  6.9172885784048556e-04  6.9145932686391479e-04  6.9101702520674916e-04  6.9041237512595271e-04  6.8965970779611113e-04  6.8877699568070530e-04  6.8778550651408090e-04  6.8670937853765335e-04  6.8557511746272076e-04  6.8441101718122010e-04  6.8324650859428310e-04  6.8211144435012083e-04  6.8103533111560258e-04  6.8004652913706621e-04  6.7917142288224084e-04  6.7843357742203639e-04  6.7785079657430687e-04  6.7739878157534964e-04  6.7639405820623451e-04  1.3469559377829647e-03  1.3487996605228208e-03  6.7798631594953584e-04  6.7916487367923714e-04  6.7962035092445554e-04  6.8020156308971186e-04  6.8093712199456371e-04  6.8180882781695735e-04  6.8279288413598653e-04  6.8386275943640887e-04  6.8499006610442110e-04  6.8614539988853189e-04  6.8729914225976012e-04  6.8842221560779155e-04  6.8948677484218228e-04  6.9046682668363749e-04  6.9133877231858951e-04  6.9208187244657732e-04  6.9267863573176222e-04  6.9311513266376225e-04  6.9338123713007520e-04  6.9347079778827301e-04  6.9338174084066352e-04  6.9311610517252382e-04  6.9268001008918490e-04  6.9208355515952211e-04  6.9134065096777093e-04  6.9046877896875632e-04  6.8948867821169713e-04  6.8842395657445785e-04  6.8730062449939302e-04  6.8614655031522362e-04  6.8499083828987329e-04  6.8386313399850928e-04  6.8279286575355065e-04  6.8180844027397928e-04  6.8093639212556611e-04  6.8020048183371545e-04  6.7961798866014885e-04  6.7915025777739481e-04  6.7786095769922447e-04  1.3480994517736378e-03  1.3503536361226458e-03  6.7981256714577415e-04  6.8131605910570954e-04  6.8178691225735915e-04  6.8236577719189644e-04  6.8309676343663098e-04  6.8396219140364986e-04  6.8493811043091718e-04  6.8599790442070200e-04  6.8711323223434660e-04  6.8825488500189784e-04  6.8939358770727906e-04  6.9050073843368359e-04  6.9154907170198600e-04  6.9251324091825829e-04  6.9337031949563189e-04  6.9410022328959603e-04  6.9468605847121151e-04  6.9511439931452777e-04  6.9537550007162487e-04  6.9546344436466822e-04  6.9537623455416195e-04  6.9511582255205333e-04  6.9468808244989202e-04  6.9410272429987468e-04  6.9337314732667501e-04  6.9251622986694558e-04  6.9155205243281624e-04  6.9050354964762014e-04  6.8939608656281843e-04  6.8825695534384976e-04  6.8711478986495519e-04  6.8599889894282800e-04  6.8493852318288705e-04  6.8396203110714560e-04  6.8309604804033962e-04  6.8236448806510870e-04  6.8178391108819755e-04  6.8129795681221874e-04  6.7965927482203546e-04  1.3495007526147513e-03  1.3522383665225714e-03  6.8203685829970801e-04  6.8393818655681962e-04  6.8442624717752934e-04  6.8499983816090650e-04  6.8572222608809588e-04  6.8657649675167294e-04  6.8753864975892648e-04  6.8858211190171779e-04  6.8967874359065562e-04  6.9079970918409358e-04  6.9191627016931833e-04  6.9300049971766800e-04  6.9402590906794649e-04  6.9496798534320612e-04  6.9580464477493012e-04  6.9651660774986291e-04  6.9708770278648915e-04  6.9750510614774094e-04  6.9775952280938579e-04  6.9784531324414546e-04  6.9776056912671609e-04  6.9750713974498218e-04  6.9709060962209492e-04  6.9652022654505643e-04  6.9580877791627774e-04  6.9497241204526594e-04  6.9403039972350147e-04  6.9300483022362649e-04  6.9192023503019567e-04  6.9080313230162683e-04  6.8968148586051711e-04  6.8858407509568207e-04  6.8753977605376317e-04  6.8657676579261698e-04  6.8572163503344827e-04  6.8499834881905754e-04  6.8442246517781582e-04  6.8391584037955024e-04  6.8185017285407492e-04  1.3512047094008739e-03  1.3545174995409214e-03  6.8473842198135562e-04  6.8712567522277149e-04  6.8763229557813096e-04  6.8819584241113830e-04  6.8890325469124340e-04  6.8973875772460785e-04  6.9067850988129877e-04  6.9169621593677811e-04  6.9276419915573098e-04  6.9385427405970997e-04  6.9493851910793576e-04  6.9598995511665563e-04  6.9698312503736499e-04  6.9789457996527319e-04  6.9870327980982381e-04  6.9939091853059179e-04  6.9994218349527556e-04  7.0034495728968447e-04  7.0059046867851056e-04  7.0067339774768946e-04  7.0059193863345685e-04  7.0034782179887671e-04  6.9994629638689724e-04  6.9939607182256886e-04  6.9870921639997926e-04  6.9790100911052842e-04  6.9698973942204667e-04  6.9599644812766686e-04  6.9494460092946241e-04  6.9385968536357992e-04  6.9276872145688552e-04  6.9169967811291764e-04  6.9068079015517517e-04  6.8973978341934836e-04  6.8890298135556335e-04  6.8819419458236047e-04  6.8762755843430792e-04  6.8709809982613664e-04  6.8451136262052666e-04  1.3532676956595174e-03  1.3572713598129071e-03  6.8801848280156390e-04  6.9099942552452976e-04  6.9152499754370714e-04  6.9207086502070722e-04  6.9275331492769736e-04  6.9355829565682545e-04  6.9446250799918359e-04  6.9544034401105019e-04  6.9646501485163962e-04  6.9750940676015878e-04  6.9854681569044756e-04  6.9955157614043633e-04  7.0049958565386464e-04  7.0136873487759862e-04  7.0213925531459570e-04  7.0279399700974056e-04  7.0331864706302087e-04  7.0370189792391008e-04  7.0393557235758888e-04  7.0401471012894120e-04  7.0393761976329577e-04  7.0370589732962944e-04  7.0332441280766020e-04  7.0280126324012682e-04  7.0214769043368231e-04  7.0137795943101629e-04  7.0050919231843666e-04  6.9956115019207885e-04  6.9855595429749574e-04  6.9751773572340801e-04  6.9647220186266315e-04  6.9544610819516101e-04  6.9446662523321527e-04  6.9356060283230130e-04  6.9275368999420115e-04  6.9206916369648987e-04  6.9151909406867779e-04  6.9096532703108351e-04  6.8774205338628484e-04  1.3557606711910189e-03  1.3606020114057405e-03  6.9200748172435346e-04  6.9571563082941948e-04  6.9625875271810936e-04  6.9677481125111137e-04  6.9741672247461200e-04  6.9817308794405488e-04  6.9902183036720281e-04  6.9993872030302154e-04  7.0089853306567194e-04  7.0187585639062337e-04  7.0284576436991622e-04  7.0378438439702609e-04  7.0466936332711004e-04  7.0548024553945213e-04  7.0619877618675138e-04  7.0680914194967215e-04  7.0729815967747402e-04  7.0765542120893423e-04  7.0787340064320278e-04  7.0794752860576290e-04  7.0787623664553528e-04  7.0766097363026185e-04  7.0730619478104914e-04  7.0681932267050958e-04  7.0621067808271029e-04  7.0549337706335966e-04  7.0468318893244174e-04  7.0379834844327700e-04  7.0285931369352234e-04  7.0188845981881216e-04  7.0090969702847606e-04  6.9994800095239218e-04  6.9902884252063158e-04  6.9817751600601517e-04  6.9741830457267263e-04  6.9677327740954166e-04  6.9625143400683974e-04  6.9567328974778778e-04  6.9166995865865952e-04  1.3587734198126083e-03  1.3646404007716484e-03  6.9687552386790057e-04  7.0147856597495707e-04  7.0203459666405576e-04  7.0250157708077543e-04  7.0307861475549910e-04  7.0375847968358091e-04  7.0452149869531502e-04  7.0534596887029998e-04  7.0620928846963573e-04  7.0708866970279130e-04  7.0796172873548331e-04  7.0880698861476251e-04  7.0960429987456666e-04  7.1033518804720051e-04  7.1098313713340521e-04  7.1153381772128704e-04  7.1197526741211209e-04  7.1229803000306968e-04  7.1249525868100321e-04  7.1256278724408386e-04  7.1249917240988857e-04  7.1230570929897068e-04  7.1198642104874411e-04  7.1154802207921140e-04  7.1099985293019785e-04  7.1035378279358889e-04  7.0962407440816903e-04  7.0882720493646676e-04  7.0798163591659271e-04  7.0710752527846526e-04  7.0622637440522309e-04  7.0536060359641713e-04  7.0453304778430367e-04  7.0376637471708211e-04  7.0308234607430273e-04  7.0250064476265603e-04  7.0202558588087311e-04  7.0142566432939216e-04  6.9646140524697107e-04  1.3624204680196060e-03  1.3695566393812321e-03  7.0284784778001463e-04  7.0855959598343881e-04  7.0911812277246885e-04  7.0950523110344078e-04  7.0997913132111068e-04  7.1053928867415082e-04  7.1117047863011288e-04  7.1185541359825738e-04  7.1257574824051351e-04  7.1331263880091106e-04  7.1404724197093427e-04  7.1476118357492421e-04  7.1543698322210872e-04  7.1605842678119154e-04  7.1661088256064469e-04  7.1708156171333757e-04  7.1745972641038100e-04  7.1773685064646967e-04  7.1790673869650385e-04  7.1796560576324630e-04  7.1791212474409084e-04  7.1774744227389310e-04  7.1747516594348776e-04  7.1710132258541329e-04  7.1663428502538921e-04  7.1608466201289521e-04  7.1546514412738904e-04  7.1479029799540513e-04  7.1407630260419313e-04  7.1334062498237274e-04  7.1260163759147830e-04  7.1187818665263995e-04  7.1118912346567766e-04  7.1055282389141986e-04  7.0998661102499310e-04  7.0950573035021588e-04  7.0910715217059410e-04  7.0849295682028784e-04  7.0233626065627024e-04  1.3668495041275002e-03  1.3755751501674594e-03  7.1022836521584675e-04  7.1732622979838205e-04  7.1786655691008863e-04  7.1812402180200941e-04  7.1843396052064250e-04  7.1880685577967792e-04  7.1923547328518744e-04  7.1971002896566302e-04  7.2021890803251789e-04  7.2074902573401173e-04  7.2128629084814886e-04  7.2181615106128578e-04  7.2232414799008708e-04  7.2279643121671896e-04  7.2322020271462092e-04  7.2358408210588751e-04  7.2387839496898955e-04  7.2409539159722168e-04  7.2422940452918940e-04  7.2427695263230544e-04  7.2423679865515607e-04  7.2410996632273387e-04  7.2389972111396874e-04  7.2361151550669428e-04  7.2325289462154912e-04  7.2283335284232370e-04  7.2236412791660794e-04  7.2185791804173184e-04  7.2132851094807750e-04  7.2079032320527246e-04  7.2025786451631268e-04  7.1974516497763218e-04  7.1926522349642153e-04  7.1882957504579585e-04  7.1844793746970439e-04  7.1812753486880532e-04  7.1785347284966672e-04  7.1724141449780747e-04  7.0959057280269966e-04  1.3722536100762681e-03  1.3829975661966332e-03  7.1943662849352648e-04  7.2828799831321756e-04  7.2877092112125610e-04  7.2881694891044162e-04  7.2886473955665904e-04  7.2894340103207779e-04  7.2905986679071559e-04  7.2921686962637599e-04  7.2941316248304074e-04  7.2964374458694861e-04  7.2990052909972911e-04  7.3017326115475698e-04  7.3045047676157575e-04  7.3072037441808597e-04  7.3097154151210953e-04  7.3119352651490632e-04  7.3137727264936160e-04  7.3151543513157646e-04  7.3160260153637532e-04  7.3163543090026112e-04  7.3161272491776847e-04  7.3153544325973616e-04  7.3140667226720402e-04  7.3123155015984893e-04  7.3101714228588591e-04  7.3077224823908692e-04  7.3050711236976316e-04  7.3023300392513024e-04  7.2996163578363635e-04  7.2970440620989771e-04  7.2947148073909576e-04  7.2927078170518958e-04  7.2910703550907484e-04  7.2898115092576111e-04  7.2889003423472697e-04  7.2882653767806279e-04  7.2875595022209652e-04  7.2817865675418067e-04  7.1863198593254086e-04  1.3788894659572395e-03  1.3922382788855152e-03  7.3106804403329250e-04  7.4217173341963928e-04  7.4252407636886321e-04  7.4222120233741781e-04  7.4184507814227172e-04  7.4145728828356461e-04  7.4108981943463159e-04  7.4076594324444674e-04  7.4049982341932918e-04  7.4029708060353145e-04  7.4015637824908489e-04  7.4007139701314330e-04  7.4003272704337793e-04  7.4002945236164566e-04  7.4005037116000585e-04  7.4008489044371476e-04  7.4012366548338506e-04  7.4015904694497221e-04  7.4018537835258719e-04  7.4019917199640690e-04  7.4019918670254739e-04  7.4018643043834197e-04  7.4016410768535257e-04  7.4013752155081152e-04  7.4011392219445517e-04  7.4010226853347461e-04  7.4011284529241768e-04  7.4015665925535826e-04  7.4024453239671529e-04  7.4038582258344155e-04  7.4058673871800994e-04  7.4084832331550935e-04  7.4116438754509204e-04  7.4151989816171281e-04  7.4189038345567079e-04  7.4224291116185132e-04  7.4250849215441446e-04  7.4202855498133177e-04  7.3003715672515391e-04  1.3871051363455835e-03  1.4038814668754502e-03  7.4599652381105873e-04  7.6005082849064009e-04  7.6013537009027960e-04  7.5924569806918348e-04  7.5817200858069333e-04  7.5703467584654731e-04  7.5591009056194482e-04  7.5485445178325036e-04  7.5390342219534682e-04  7.5307478743031936e-04  7.5237279726633472e-04  7.5179261293283593e-04  7.5132404121732246e-04  7.5095432398246073e-04  7.5067006720649400e-04  7.5045852478276961e-04  7.5030845390331520e-04  7.5021068896832853e-04  7.5015850676299909e-04  7.5014781955697377e-04  7.5017723090693060e-04  7.5024799631141727e-04  7.5036393057383141e-04  7.5053128997281814e-04  7.5075862548277215e-04  7.5105655368617118e-04  7.5143733640643990e-04  7.5191411449961748e-04  7.5249961027900236e-04  7.5320408929287555e-04  7.5403237957813115e-04  7.5497991669136390e-04  7.5602795108164166e-04  7.5713874657416780e-04  7.5825306394562860e-04  7.5929191280592540e-04  7.6012366208814226e-04  7.5985972888188236e-04  7.4464836204853892e-04  1.3973835447146437e-03  1.4187765283047709e-03  7.6555648496083671e-04  7.8357941559992379e-04  7.8313416411240498e-04  7.8122963910406051e-04  7.7897959333657828e-04  7.7661539281692941e-04  7.7429224633753695e-04  7.721166485