<?xml version="1.0"?>
<VTKFile type="UnstructuredGrid"  version="0.1"  >
<UnstructuredGrid>
<Piece  NumberOfPoints="1681" NumberOfCells="3200">
<Points>
<DataArray  type="Float64"  NumberOfComponents="3"  format="ascii">0 0 0  0.025 0 0  0.05 0 0  0.075 0 0  0.1 0 0  0.125 0 0  0.15 0 0  0.175 0 0  0.2 0 0  0.225 0 0  0.25 0 0  0.275 0 0  0.3 0 0  0.325 0 0  0.35 0 0  0.375 0 0  0.4 0 0  0.425 0 0  0.45 0 0  0.475 0 0  0.5 0 0  0.525 0 0  0.55 0 0  0.575 0 0  0.6 0 0  0.625 0 0  0.65 0 0  0.675 0 0  0.7 0 0  0.725 0 0  0.75 0 0  0.775 0 0  0.8 0 0  0.825 0 0  0.85 0 0  0.875 0 0  0.9 0 0  0.925 0 0  0.95 0 0  0.975 0 0  1 0 0  0 0.025 0  0.025 0.025 0  0.05 0.025 0  0.075 0.025 0  0.1 0.025 0  0.125 0.025 0  0.15 0.025 0  0.175 0.025 0  0.2 0.025 0  0.225 0.025 0  0.25 0.025 0  0.275 0.025 0  0.3 0.025 0  0.325 0.025 0  0.35 0.025 0  0.375 0.025 0  0.4 0.025 0  0.425 0.025 0  0.45 0.025 0  0.475 0.025 0  0.5 0.025 0  0.525 0.025 0  0.55 0.025 0  0.575 0.025 0  0.6 0.025 0  0.625 0.025 0  0.65 0.025 0  0.675 0.025 0  0.7 0.025 0  0.725 0.025 0  0.75 0.025 0  0.775 0.025 0  0.8 0.025 0  0.825 0.025 0  0.85 0.025 0  0.875 0.025 0  0.9 0.025 0  0.925 0.025 0  0.95 0.025 0  0.975 0.025 0  1 0.025 0  0 0.05 0  0.025 0.05 0  0.05 0.05 0  0.075 0.05 0  0.1 0.05 0  0.125 0.05 0  0.15 0.05 0  0.175 0.05 0  0.2 0.05 0  0.225 0.05 0  0.25 0.05 0  0.275 0.05 0  0.3 0.05 0  0.325 0.05 0  0.35 0.05 0  0.375 0.05 0  0.4 0.05 0  0.425 0.05 0  0.45 0.05 0  0.475 0.05 0  0.5 0.05 0  0.525 0.05 0  0.55 0.05 0  0.575 0.05 0  0.6 0.05 0  0.625 0.05 0  0.65 0.05 0  0.675 0.05 0  0.7 0.05 0  0.725 0.05 0  0.75 0.05 0  0.775 0.05 0  0.8 0.05 0  0.825 0.05 0  0.85 0.05 0  0.875 0.05 0  0.9 0.05 0  0.925 0.05 0  0.95 0.05 0  0.975 0.05 0  1 0.05 0  0 0.075 0  0.025 0.075 0  0.05 0.075 0  0.075 0.075 0  0.1 0.075 0  0.125 0.075 0  0.15 0.075 0  0.175 0.075 0  0.2 0.075 0  0.225 0.075 0  0.25 0.075 0  0.275 0.075 0  0.3 0.075 0  0.325 0.075 0  0.35 0.075 0  0.375 0.075 0  0.4 0.075 0  0.425 0.075 0  0.45 0.075 0  0.475 0.075 0  0.5 0.075 0  0.525 0.075 0  0.55 0.075 0  0.575 0.075 0  0.6 0.075 0  0.625 0.075 0  0.65 0.075 0  0.675 0.075 0  0.7 0.075 0  0.725 0.075 0  0.75 0.075 0  0.775 0.075 0  0.8 0.075 0  0.825 0.075 0  0.85 0.075 0  0.875 0.075 0  0.9 0.075 0  0.925 0.075 0  0.95 0.075 0  0.975 0.075 0  1 0.075 0  0 0.1 0  0.025 0.1 0  0.05 0.1 0  0.075 0.1 0  0.1 0.1 0  0.125 0.1 0  0.15 0.1 0  0.175 0.1 0  0.2 0.1 0  0.225 0.1 0  0.25 0.1 0  0.275 0.1 0  0.3 0.1 0  0.325 0.1 0  0.35 0.1 0  0.375 0.1 0  0.4 0.1 0  0.425 0.1 0  0.45 0.1 0  0.475 0.1 0  0.5 0.1 0  0.525 0.1 0  0.55 0.1 0  0.575 0.1 0  0.6 0.1 0  0.625 0.1 0  0.65 0.1 0  0.675 0.1 0  0.7 0.1 0  0.725 0.1 0  0.75 0.1 0  0.775 0.1 0  0.8 0.1 0  0.825 0.1 0  0.85 0.1 0  0.875 0.1 0  0.9 0.1 0  0.925 0.1 0  0.95 0.1 0  0.975 0.1 0  1 0.1 0  0 0.125 0  0.025 0.125 0  0.05 0.125 0  0.075 0.125 0  0.1 0.125 0  0.125 0.125 0  0.15 0.125 0  0.175 0.125 0  0.2 0.125 0  0.225 0.125 0  0.25 0.125 0  0.275 0.125 0  0.3 0.125 0  0.325 0.125 0  0.35 0.125 0  0.375 0.125 0  0.4 0.125 0  0.425 0.125 0  0.45 0.125 0  0.475 0.125 0  0.5 0.125 0  0.525 0.125 0  0.55 0.125 0  0.575 0.125 0  0.6 0.125 0  0.625 0.125 0  0.65 0.125 0  0.675 0.125 0  0.7 0.125 0  0.725 0.125 0  0.75 0.125 0  0.775 0.125 0  0.8 0.125 0  0.825 0.125 0  0.85 0.125 0  0.875 0.125 0  0.9 0.125 0  0.925 0.125 0  0.95 0.125 0  0.975 0.125 0  1 0.125 0  0 0.15 0  0.025 0.15 0  0.05 0.15 0  0.075 0.15 0  0.1 0.15 0  0.125 0.15 0  0.15 0.15 0  0.175 0.15 0  0.2 0.15 0  0.225 0.15 0  0.25 0.15 0  0.275 0.15 0  0.3 0.15 0  0.325 0.15 0  0.35 0.15 0  0.375 0.15 0  0.4 0.15 0  0.425 0.15 0  0.45 0.15 0  0.475 0.15 0  0.5 0.15 0  0.525 0.15 0  0.55 0.15 0  0.575 0.15 0  0.6 0.15 0  0.625 0.15 0  0.65 0.15 0  0.675 0.15 0  0.7 0.15 0  0.725 0.15 0  0.75 0.15 0  0.775 0.15 0  0.8 0.15 0  0.825 0.15 0  0.85 0.15 0  0.875 0.15 0  0.9 0.15 0  0.925 0.15 0  0.95 0.15 0  0.975 0.15 0  1 0.15 0  0 0.175 0  0.025 0.175 0  0.05 0.175 0  0.075 0.175 0  0.1 0.175 0  0.125 0.175 0  0.15 0.175 0  0.175 0.175 0  0.2 0.175 0  0.225 0.175 0  0.25 0.175 0  0.275 0.175 0  0.3 0.175 0  0.325 0.175 0  0.35 0.175 0  0.375 0.175 0  0.4 0.175 0  0.425 0.175 0  0.45 0.175 0  0.475 0.175 0  0.5 0.175 0  0.525 0.175 0  0.55 0.175 0  0.575 0.175 0  0.6 0.175 0  0.625 0.175 0  0.65 0.175 0  0.675 0.175 0  0.7 0.175 0  0.725 0.175 0  0.75 0.175 0  0.775 0.175 0  0.8 0.175 0  0.825 0.175 0  0.85 0.175 0  0.875 0.175 0  0.9 0.175 0  0.925 0.175 0  0.95 0.175 0  0.975 0.175 0  1 0.175 0  0 0.2 0  0.025 0.2 0  0.05 0.2 0  0.075 0.2 0  0.1 0.2 0  0.125 0.2 0  0.15 0.2 0  0.175 0.2 0  0.2 0.2 0  0.225 0.2 0  0.25 0.2 0  0.275 0.2 0  0.3 0.2 0  0.325 0.2 0  0.35 0.2 0  0.375 0.2 0  0.4 0.2 0  0.425 0.2 0  0.45 0.2 0  0.475 0.2 0  0.5 0.2 0  0.525 0.2 0  0.55 0.2 0  0.575 0.2 0  0.6 0.2 0  0.625 0.2 0  0.65 0.2 0  0.675 0.2 0  0.7 0.2 0  0.725 0.2 0  0.75 0.2 0  0.775 0.2 0  0.8 0.2 0  0.825 0.2 0  0.85 0.2 0  0.875 0.2 0  0.9 0.2 0  0.925 0.2 0  0.95 0.2 0  0.975 0.2 0  1 0.2 0  0 0.225 0  0.025 0.225 0  0.05 0.225 0  0.075 0.225 0  0.1 0.225 0  0.125 0.225 0  0.15 0.225 0  0.175 0.225 0  0.2 0.225 0  0.225 0.225 0  0.25 0.225 0  0.275 0.225 0  0.3 0.225 0  0.325 0.225 0  0.35 0.225 0  0.375 0.225 0  0.4 0.225 0  0.425 0.225 0  0.45 0.225 0  0.475 0.225 0  0.5 0.225 0  0.525 0.225 0  0.55 0.225 0  0.575 0.225 0  0.6 0.225 0  0.625 0.225 0  0.65 0.225 0  0.675 0.225 0  0.7 0.225 0  0.725 0.225 0  0.75 0.225 0  0.775 0.225 0  0.8 0.225 0  0.825 0.225 0  0.85 0.225 0  0.875 0.225 0  0.9 0.225 0  0.925 0.225 0  0.95 0.225 0  0.975 0.225 0  1 0.225 0  0 0.25 0  0.025 0.25 0  0.05 0.25 0  0.075 0.25 0  0.1 0.25 0  0.125 0.25 0  0.15 0.25 0  0.175 0.25 0  0.2 0.25 0  0.225 0.25 0  0.25 0.25 0  0.275 0.25 0  0.3 0.25 0  0.325 0.25 0  0.35 0.25 0  0.375 0.25 0  0.4 0.25 0  0.425 0.25 0  0.45 0.25 0  0.475 0.25 0  0.5 0.25 0  0.525 0.25 0  0.55 0.25 0  0.575 0.25 0  0.6 0.25 0  0.625 0.25 0  0.65 0.25 0  0.675 0.25 0  0.7 0.25 0  0.725 0.25 0  0.75 0.25 0  0.775 0.25 0  0.8 0.25 0  0.825 0.25 0  0.85 0.25 0  0.875 0.25 0  0.9 0.25 0  0.925 0.25 0  0.95 0.25 0  0.975 0.25 0  1 0.25 0  0 0.275 0  0.025 0.275 0  0.05 0.275 0  0.075 0.275 0  0.1 0.275 0  0.125 0.275 0  0.15 0.275 0  0.175 0.275 0  0.2 0.275 0  0.225 0.275 0  0.25 0.275 0  0.275 0.275 0  0.3 0.275 0  0.325 0.275 0  0.35 0.275 0  0.375 0.275 0  0.4 0.275 0  0.425 0.275 0  0.45 0.275 0  0.475 0.275 0  0.5 0.275 0  0.525 0.275 0  0.55 0.275 0  0.575 0.275 0  0.6 0.275 0  0.625 0.275 0  0.65 0.275 0  0.675 0.275 0  0.7 0.275 0  0.725 0.275 0  0.75 0.275 0  0.775 0.275 0  0.8 0.275 0  0.825 0.275 0  0.85 0.275 0  0.875 0.275 0  0.9 0.275 0  0.925 0.275 0  0.95 0.275 0  0.975 0.275 0  1 0.275 0  0 0.3 0  0.025 0.3 0  0.05 0.3 0  0.075 0.3 0  0.1 0.3 0  0.125 0.3 0  0.15 0.3 0  0.175 0.3 0  0.2 0.3 0  0.225 0.3 0  0.25 0.3 0  0.275 0.3 0  0.3 0.3 0  0.325 0.3 0  0.35 0.3 0  0.375 0.3 0  0.4 0.3 0  0.425 0.3 0  0.45 0.3 0  0.475 0.3 0  0.5 0.3 0  0.525 0.3 0  0.55 0.3 0  0.575 0.3 0  0.6 0.3 0  0.625 0.3 0  0.65 0.3 0  0.675 0.3 0  0.7 0.3 0  0.725 0.3 0  0.75 0.3 0  0.775 0.3 0  0.8 0.3 0  0.825 0.3 0  0.85 0.3 0  0.875 0.3 0  0.9 0.3 0  0.925 0.3 0  0.95 0.3 0  0.975 0.3 0  1 0.3 0  0 0.325 0  0.025 0.325 0  0.05 0.325 0  0.075 0.325 0  0.1 0.325 0  0.125 0.325 0  0.15 0.325 0  0.175 0.325 0  0.2 0.325 0  0.225 0.325 0  0.25 0.325 0  0.275 0.325 0  0.3 0.325 0  0.325 0.325 0  0.35 0.325 0  0.375 0.325 0  0.4 0.325 0  0.425 0.325 0  0.45 0.325 0  0.475 0.325 0  0.5 0.325 0  0.525 0.325 0  0.55 0.325 0  0.575 0.325 0  0.6 0.325 0  0.625 0.325 0  0.65 0.325 0  0.675 0.325 0  0.7 0.325 0  0.725 0.325 0  0.75 0.325 0  0.775 0.325 0  0.8 0.325 0  0.825 0.325 0  0.85 0.325 0  0.875 0.325 0  0.9 0.325 0  0.925 0.325 0  0.95 0.325 0  0.975 0.325 0  1 0.325 0  0 0.35 0  0.025 0.35 0  0.05 0.35 0  0.075 0.35 0  0.1 0.35 0  0.125 0.35 0  0.15 0.35 0  0.175 0.35 0  0.2 0.35 0  0.225 0.35 0  0.25 0.35 0  0.275 0.35 0  0.3 0.35 0  0.325 0.35 0  0.35 0.35 0  0.375 0.35 0  0.4 0.35 0  0.425 0.35 0  0.45 0.35 0  0.475 0.35 0  0.5 0.35 0  0.525 0.35 0  0.55 0.35 0  0.575 0.35 0  0.6 0.35 0  0.625 0.35 0  0.65 0.35 0  0.675 0.35 0  0.7 0.35 0  0.725 0.35 0  0.75 0.35 0  0.775 0.35 0  0.8 0.35 0  0.825 0.35 0  0.85 0.35 0  0.875 0.35 0  0.9 0.35 0  0.925 0.35 0  0.95 0.35 0  0.975 0.35 0  1 0.35 0  0 0.375 0  0.025 0.375 0  0.05 0.375 0  0.075 0.375 0  0.1 0.375 0  0.125 0.375 0  0.15 0.375 0  0.175 0.375 0  0.2 0.375 0  0.225 0.375 0  0.25 0.375 0  0.275 0.375 0  0.3 0.375 0  0.325 0.375 0  0.35 0.375 0  0.375 0.375 0  0.4 0.375 0  0.425 0.375 0  0.45 0.375 0  0.475 0.375 0  0.5 0.375 0  0.525 0.375 0  0.55 0.375 0  0.575 0.375 0  0.6 0.375 0  0.625 0.375 0  0.65 0.375 0  0.675 0.375 0  0.7 0.375 0  0.725 0.375 0  0.75 0.375 0  0.775 0.375 0  0.8 0.375 0  0.825 0.375 0  0.85 0.375 0  0.875 0.375 0  0.9 0.375 0  0.925 0.375 0  0.95 0.375 0  0.975 0.375 0  1 0.375 0  0 0.4 0  0.025 0.4 0  0.05 0.4 0  0.075 0.4 0  0.1 0.4 0  0.125 0.4 0  0.15 0.4 0  0.175 0.4 0  0.2 0.4 0  0.225 0.4 0  0.25 0.4 0  0.275 0.4 0  0.3 0.4 0  0.325 0.4 0  0.35 0.4 0  0.375 0.4 0  0.4 0.4 0  0.425 0.4 0  0.45 0.4 0  0.475 0.4 0  0.5 0.4 0  0.525 0.4 0  0.55 0.4 0  0.575 0.4 0  0.6 0.4 0  0.625 0.4 0  0.65 0.4 0  0.675 0.4 0  0.7 0.4 0  0.725 0.4 0  0.75 0.4 0  0.775 0.4 0  0.8 0.4 0  0.825 0.4 0  0.85 0.4 0  0.875 0.4 0  0.9 0.4 0  0.925 0.4 0  0.95 0.4 0  0.975 0.4 0  1 0.4 0  0 0.425 0  0.025 0.425 0  0.05 0.425 0  0.075 0.425 0  0.1 0.425 0  0.125 0.425 0  0.15 0.425 0  0.175 0.425 0  0.2 0.425 0  0.225 0.425 0  0.25 0.425 0  0.275 0.425 0  0.3 0.425 0  0.325 0.425 0  0.35 0.425 0  0.375 0.425 0  0.4 0.425 0  0.425 0.425 0  0.45 0.425 0  0.475 0.425 0  0.5 0.425 0  0.525 0.425 0  0.55 0.425 0  0.575 0.425 0  0.6 0.425 0  0.625 0.425 0  0.65 0.425 0  0.675 0.425 0  0.7 0.425 0  0.725 0.425 0  0.75 0.425 0  0.775 0.425 0  0.8 0.425 0  0.825 0.425 0  0.85 0.425 0  0.875 0.425 0  0.9 0.425 0  0.925 0.425 0  0.95 0.425 0  0.975 0.425 0  1 0.425 0  0 0.45 0  0.02
[...]
<PointData  Scalars="ControlVisualisation"> 
<DataArray  type="Float64"  Name="ControlVisualisation"  format="ascii">1.9306293802790836e-01  1.3503694555525847e-01  1.3523012692913566e-01  1.3566102535741059e-01  1.3627776884916909e-01  1.3698995981291778e-01  1.3770885319526421e-01  1.3836913562353639e-01  1.3893352053307939e-01  1.3938694939990287e-01  1.3972851981518297e-01  1.3996497718830064e-01  1.4010655525331267e-01  1.4016462837898155e-01  1.4015048484059195e-01  1.4007472734456075e-01  1.3994701268988990e-01  1.3977597614947260e-01  1.3956925841143636e-01  1.3933358922467873e-01  1.3907490045160847e-01  1.3879845133530574e-01  1.3850895472981611e-01  1.3821069667383390e-01  1.3790764386749702e-01  1.3760353498610800e-01  1.3730195266078993e-01  1.3700637377478075e-01  1.3672019661407336e-01  1.3644674459224362e-01  1.3618924770611518e-01  1.3595080430811829e-01  1.3573432825732529e-01  1.3554248595071494e-01  1.3537763845811918e-01  1.3524178695055489e-01  1.3513661194585769e-01  1.3506344381178489e-01  1.3502296849712606e-01  1.3501247610199238e-01  2.9147719384626947e-01  1.3503450606861761e-01  7.5456649864371866e-02  7.6054759080403850e-02  7.7176459819050205e-02  7.8761316770643103e-02  8.0622851140403851e-02  8.2555575842786083e-02  8.4394988430038648e-02  8.6033701667734677e-02  8.7414031435565073e-02  8.8512936356745286e-02  8.9328960806385152e-02  8.9873592740521355e-02  9.0166095645631605e-02  9.0230348647318825e-02  9.0092693639638427e-02  8.9780320837133151e-02  8.9320036223493562e-02  8.8737370595616705e-02  8.8056005268690965e-02  8.7297473855169769e-02  8.6481085319436532e-02  8.5624009089306521e-02  8.4741466723373154e-02  8.3846982597691980e-02  8.2952655365069905e-02  8.2069420820245348e-02  8.1207284654784606e-02  8.0375510263212865e-02  7.9582752465380546e-02  7.8837133114644881e-02  7.8146259016952602e-02  7.7517188014419272e-02  7.6956350884865493e-02  7.6469453235678136e-02  7.6061355455181043e-02  7.5736011168400189e-02  7.5496201808711166e-02  7.5342367609941563e-02  7.5262147240783422e-02  1.3501247499638816e-01  1.3520940834730238e-01  7.6060550308192226e-02  7.7446447421805009e-02  7.9534101269369328e-02  8.2416866165771305e-02  8.5823455082215380e-02  8.9440015675529602e-02  9.3006679601984735e-02  9.6320560782005959e-02  9.9222287412775292e-02  1.0159383249581096e-01  1.0336394193947411e-01  1.0451015527632088e-01  1.0505336520349591e-01  1.0504695760496427e-01  1.0456430472245325e-01  1.0368750055370420e-01  1.0249873592569995e-01  1.0107456296175540e-01  9.9482674023882708e-02  9.7780594408059474e-02  9.6015690211981239e-02  9.4225993612204531e-02  9.2441471043834683e-02  9.0685470227616041e-02  8.8976168113008375e-02  8.7327904631768941e-02  8.5752331664130335e-02  8.4259338586039761e-02  8.2857739637660577e-02  8.1555727255864657e-02  8.0361110548725481e-02  7.9281371548851551e-02  7.8323577644992426e-02  7.7494208608166304e-02  7.6798893629610135e-02  7.6242151045280107e-02  7.5826164427599541e-02  7.5544843262260269e-02  7.5342388953766243e-02  1.3502295288460026e-01  1.3561249983680085e-01  7.7296718551839838e-02  7.9903368186204957e-02  8.2883997350851280e-02  8.6651910381859751e-02  9.0966035786969560e-02  9.5521163347053933e-02  1.0003641276509447e-01  1.0423798810559153e-01  1.0787409748261537e-01  1.1075052073122471e-01  1.1275645706390124e-01  1.1386827157594273e-01  1.1413540847315641e-01  1.1365785642914382e-01  1.1256300624168268e-01  1.1098634879247132e-01  1.0905761799770236e-01  1.0689224939840469e-01  1.0458721024022108e-01  1.0222002759443628e-01  9.9849920162572617e-02  9.7520145508414577e-02  9.5260903385659193e-02  9.3092338336218855e-02  9.1027344900074095e-02  8.9073998188098372e-02  8.7237519434159597e-02  8.5521749291803395e-02  8.3930147616301076e-02  8.2466371315057962e-02  8.1134503036701958e-02  7.9939015488230347e-02  7.8884552692228938e-02  7.7975609876898916e-02  7.7216090317738073e-02  7.6608659888202202e-02  7.6152022917517312e-02  7.5826817621365880e-02  7.5496461122766478e-02  1.3506342323047732e-01  1.3623839219239142e-01  7.9335851684642480e-02  8.4747322172848999e-02  8.9629441433739895e-02  9.4908243662327696e-02  1.0048759615521681e-01  1.0608749731330704e-01  1.1132870129580637e-01  1.1584892681216137e-01  1.1938871408458700e-01  1.2181809513765428e-01  1.2312314018909548e-01  1.2337708630583508e-01  1.2270997333911932e-01  1.2128214322936569e-01  1.1926319608527237e-01  1.1681654922435210e-01  1.1408918269423485e-01  1.1120586755233419e-01  1.0826700689649145e-01  1.0534916113152454e-01  1.0250737233072646e-01  9.9778521009337248e-02  9.7185104478035619e-02  9.4738985591939204e-02  9.2444804409948039e-02  9.0302865283749922e-02  8.8311407756512958e-02  8.6468244512353507e-02  8.4771806055107229e-02  8.3221671634045924e-02  8.1818689635357419e-02  8.0564800300494732e-02  7.9462661614592603e-02  7.8515161612742052e-02  7.7724740028050215e-02  7.7092187538563145e-02  7.6611751427859809e-02  7.6245217528417536e-02  7.5737230349405105e-02  1.3513682708896405e-01  1.3703030080842268e-01  8.4004852557770709e-02  9.7030699347959520e-02  1.0781364019162336e-01  1.1660942148923290e-01  1.2391594690580453e-01  1.2980293294315895e-01  1.3418217350380354e-01  1.3703248251600986e-01  1.3843633585023210e-01  1.3855182087080353e-01  1.3757390027476063e-01  1.3570620236532122e-01  1.3314503071226835e-01  1.3007157752005422e-01  1.2664826997709955e-01  1.2301678929280477e-01  1.1929686196064723e-01  1.1558577736165591e-01  1.1195881574029797e-01  1.0847066851716437e-01  1.0515774641245208e-01  1.0204112924726180e-01  9.9129849488675661e-02  9.6424206699465942e-02  9.3918856404033357e-02  9.1605482824384396e-02  8.9474936009928813e-02  8.7518781941397034e-02  8.5730274302080078e-02  8.4104805107120303e-02  8.2639925162732983e-02  8.1335043477750502e-02  8.0190905477915561e-02  7.9208919827289365e-02  7.8390172491745888e-02  7.7733418431891549e-02  7.7227086664769018e-02  7.6807965231260142e-02  7.6065090984513889e-02  1.3524298020394504e-01  1.4951242637946233e-01  1.0549248055274736e-01  1.5977616221631907e-01  1.8902295035006123e-01  1.9623483417921261e-01  1.9446116871697172e-01  1.8950610712479576e-01  1.8361682271855190e-01  1.7751784330801376e-01  1.7139324549112961e-01  1.6528714262745717e-01  1.5922724325202595e-01  1.5324720429104133e-01  1.4738357701648747e-01  1.4167209686125698e-01  1.3614665568662881e-01  1.3083909555485265e-01  1.2577842751429436e-01  1.2098933986305420e-01  1.1649052390717836e-01  1.1229340538369485e-01  1.0840164259985360e-01  1.0481148120177268e-01  1.0151285167258524e-01  9.8490982826575368e-02  9.5728266521036470e-02  9.3206121661076544e-02  9.0906648710204624e-02  8.8813925296868448e-02  8.6914859046839738e-02  8.5199577860779349e-02  8.3661392896749509e-02  8.2296409927564818e-02  8.1102870818779704e-02  8.0080268407083086e-02  7.9227947839188295e-02  7.8541932065969544e-02  7.8002686775580810e-02  7.7515312992649230e-02  7.6478335576940309e-02  1.3538130972861945e-01  4.0238704423852550e-01  4.1217213942845649e-01  5.2831317449233861e-01  4.8824618157855731e-01  4.2627366802087580e-01  3.6699408756544272e-01  3.1758740706473887e-01  2.7873521982397920e-01  2.4866663303901521e-01  2.2517396961915731e-01  2.0640424414817857e-01  1.9101696480597574e-01  1.7809499300468917e-01  1.6701531442176581e-01  1.5734930469419278e-01  1.4879809712362735e-01  1.4115198658235900e-01  1.3426364549673714e-01  1.2802912358007332e-01  1.2237372699256893e-01  1.1724148661528187e-01  1.1258757014464504e-01  1.0837317875497357e-01  1.0456249146754004e-01  1.0112121143692850e-01  9.8016272193389473e-02  9.5216286789406468e-02  9.2692367369476170e-02  9.0419003713389068e-02  8.8374763796180172e-02  8.6542663100019096e-02  8.4910133987039949e-02  8.3468601579150772e-02  8.2212707136361945e-02  8.1139176407801245e-02  8.0244865004563237e-02  7.9521950174434836e-02  7.8940111148054423e-02  7.8365628329230483e-02  7.6974187846614570e-02  1.3555111314320395e-01  9.0785999745158397e-01  9.3054884539847071e-01  9.0807147005891808e-01  8.3712067523416445e-01  7.2381821691772485e-01  6.0408070253154633e-01  4.9983757037067261e-01  4.1599810404989845e-01  3.5103237126027920e-01  3.0148845301898874e-01  2.6369640532868444e-01  2.3452580896908098e-01  2.1159175481627199e-01  1.9317709463051264e-01  1.7807339202447983e-01  1.6543525797741720e-01  1.5467109349148775e-01  1.4536612105885505e-01  1.3722861263822927e-01  1.3005193047312974e-01  1.2368746399210252e-01  1.1802533684810700e-01  1.1298085052751598e-01  1.0848526390031089e-01  1.0447987505150150e-01  1.0091258915436634e-01  9.7736289035993823e-02  9.4908414560163690e-02  9.2391230945755382e-02  9.0152345050081586e-02  8.8165124738869449e-02  8.6408789073006212e-02  8.4868054625687334e-02  8.3532299841060920e-02  8.2394167138165261e-02  8.1446883170109716e-02  8.0677236864772212e-02  8.0040556738495444e-02  7.9356547870948771e-02  7.7548924312165118e-02  1.3575154751060969e-01  9.4606523032403000e-01  9.6373105333986853e-01  9.4321149409554761e-01  9.3406707220766227e-01  8.8729915967718564e-01  7.8299884986891843e-01  6.6390354437556942e-01  5.5532207349629736e-01  4.6404186207339271e-01  3.9047518376413176e-01  3.3274102638814113e-01  2.8797811306074955e-01  2.5323112240192264e-01  2.2596696663430865e-01  2.0422268125167453e-01  1.8655465024758283e-01  1.7192787002020243e-01  1.5960870130788174e-01  1.4907921524050971e-01  1.3997343054640674e-01  1.3203105324690001e-01  1.2506422025375177e-01  1.1893375008000215e-01  1.1353240821255155e-01  1.0877344375952690e-01  1.0458314676576012e-01  1.0089646865461190e-01  9.7654905270048498e-02  9.4805922752883312e-02  9.2303264042976313e-02  9.0107550536445077e-02  8.8186710699410975e-02  8.6515921076489088e-02  8.5076874316343032e-02  8.3856159257688467e-02  8.2841688871312047e-02  8.2012766362596023e-02  8.1305871303314431e-02  8.0485395376356295e-02  7.8197820899355494e-02  1.3598154381316360e-01  9.5228479553411327e-01  9.7552785264229314e-01  9.5403176064995743e-01  9.4425478792025996e-01  9.3251285326575073e-01  8.6577596378217969e-01  7.6326548505197411e-01  6.5664667917900355e-01  5.5871850459785599e-01  4.7357392127082515e-01  4.0257752317932738e-01  3.4524278378285111e-01  2.9974630006136543e-01  2.6376915610183715e-01  2.3512476090006151e-01  2.1202069836183801e-01  1.9308859265267278e-01  1.7732133558801719e-01  1.6399141291975988e-01  1.5257793042304818e-01  1.4270876420340631e-01  1.3411679736904486e-01  1.2660744653195094e-01  1.2003485603946060e-01  1.1428476520800589e-01  1.0926262856367361e-01  1.0488595471483450e-01  1.0108002175323652e-01  9.7776175262844406e-02  9.4911891732524484e-02  9.2431774682569037e-02  9.0288705552846363e-02  8.8444519733862761e-02  8.6869753583460066e-02  8.5542004892814841e-02  8.4441363270215952e-02  8.3536754664022675e-02  8.2740056789381067e-02  8.1750032589868599e-02  7.8915233069093316e-02  1.3623981640147592e-01  9.4018693988799906e-01  9.6788133439389423e-01  9.5037328649994379e-01  9.4507073070735681e-01  9.3653891400903844e-01  8.8309711318166029e-01  7.9842606588414489e-01  7.0632793068227961e-01  6.1693842724207515e-01  5.3403551708575314e-01  4.6030256121906787e-01  3.9740114245259206e-01  3.4538461411400329e-01  3.0306607008209563e-01  2.6875473949051337e-01  2.4078055936892723e-01  2.1772560667206631e-01  1.9847389730766843e-01  1.8218242599314344e-01  1.6822926792101789e-01  1.5616198547775267e-01  1.4565366747166267e-01  1.3646758700251385e-01  1.2842949418361838e-01  1.2140630046592740e-01  1.1529017951038281e-01  1.0998741356781123e-01  1.0541146748820782e-01  1.0147973247816945e-01  9.8113194716332605e-02  9.5238054705217276e-02  9.2788176231102013e-02  9.0707269969931184e-02  8.8949879131317119e-02  8.7480254944300465e-02  8.6266874040114419e-02  8.5264179776633447e-02  8.4351899466974037e-02  8.3150328317185246e-02  7.9694781042810803e-02  1.3652488554633727e-01  8.6831683852499220e-01  9.3965605048605350e-01  9.3666394827491806e-01  9.3087185246264981e-01  9.0493926330164809e-01  8.4946228841331717e-01  7.7943181365484882e-01  7.0635196436578263e-01  6.3375057389350642e-01  5.6297364815455797e-01  4.9621317533060250e-01  4.3591755202417259e-01  3.8350822265420437e-01  3.3909014460163756e-01  3.0189336179643683e-01  2.7079719783790235e-01  2.4466832045189021e-01  2.2251604403874592e-01  2.0353751404734283e-01  1.8711096798865653e-01  1.7276954373923264e-01  1.6017063116737607e-01  1.4906665143167463e-01  1.3927912109688095e-01  1.3067640860092586e-01  1.2315529110305959e-01  1.1662651748768159e-01  1.1100467827085070e-01  1.0620256861561117e-01  1.0212984659179912e-01  9.8695214586543720e-02  9.5810778878786682e-02  9.3396892524697794e-02  9.1385740950294267e-02  8.9721891766100001e-02  8.8356427361033843e-02  8.7223241838138579e-02  8.6159613983809891e-02  8.4690595227599363e-02  8.0529686231145148e-02  1.3683512142909687e-01  2.8476155360035332e-01  6.4700857346762208e-01  7.8945971078624644e-01  8.0914165189642562e-01  7.8917933133319873e-01  7.5223728112248311e-01  7.0780516527269233e-01  6.6030976056594470e-01  6.1032232247021523e-01  5.5819968021842437e-01  5.0563918915764550e-01  4.5508956227489261e-01  4.0856193970467142e-01  3.6708359329043128e-01  3.3080425069422331e-01  2.9933691523793904e-01  2.7206152574387166e-01  2.4831759280774329e-01  2.2750311804064971e-01  2.0911461795740291e-01  1.9275527225557529e-01  1.7812740906229130e-01  1.6501782462169912e-01  1.5328004076489232e-01  1.4281550967655768e-01  1.3355504984444944e-01  1.2544177565910899e-01  1.1841697931134823e-01  1.1241045635392580e-01  1.0733636766568537e-01  1.0309482494285668e-01  9.9578155127349369e-02  9.6679633897042191e-02  9.4301743093746310e-02  9.2360574979087909e-02  9.0781006020115976e-02  8.9467024289737115e-02  8.8198732056284396e-02  8.6383327903319235e-02  8.1413252800517519e-02  1.3716879594851480e-01  1.4725059319908068e-01  1.5621841620177324e-01  4.0009091059477531e-01  5.2665734675925380e-01  5.7595669046452824e-01  5.9048655718075993e-01  5.8707986422526237e-01  5.7301419207624371e-01  5.5079092744386449e-01  5.2194456863387628e-01  4.8850593502446849e-01  4.5292613554731559e-01  4.1742275051443245e-01  3.8355483711229171e-01  3.5216982371925493e-01  3.2356245747662266e-01  2.9767882948654889e-01  2.7428471296523571e-01  2.5308024060004086e-01  2.3376918266021618e-01  2.1609648186300695e-01  1.9986530874313735e-01  1.8494107126979781e-01  1.7124672635291183e-01  1.5875185339501202e-01  1.4745716310241574e-01  1.3737618017545594e-01  1.2851642191467394e-01  1.2086304548834174e-01  1.1436811696489847e-01  1.0894790486174076e-01  1.0448879165517015e-01  1.0085992716789607e-01  9.7928407197838185e-02  9.5570970675363798e-02  9.3673197451348875e-02  9.2094271323635818e-02  9.0535138381646285e-02  8.8254612806897059e-02  8.2339450750162732e-02  1.3752412934065153e-01  1.4105992298762143e-01  1.0513528639648283e-01  1.9172510314594005e-01  2.8258085283246653e-01  3.5502457028344514e-01  4.0635418244532140e-01  4.3988450711857885e-01  4.5878489794545363e-01  4.6519271705068477e-01  4.6116758663422713e-01  4.4900733892914857e-01  4.3116686650514835e-01  4.0991509707597190e-01  3.8706923677272598e-01  3.6390653936532780e-01  3.4121608543316639e-01  3.1941276486342346e-01  2.9865826002872636e-01  2.7896311427270931e-01  2.6026341531879710e-01  2.4247446665987535e-01  2.2552622088495916e-01  2.0938472294673699e-01  1.9406238287742356e-01  1.7961857149960936e-01  1.6615129828631015e-01  1.5378083220531996e-01  1.4262711897919300e-01  1.3278449403288906e-01  1.2429885271183938e-01  1.1715312150196000e-01  1.1126558951765629e-01  1.0650211242914442e-01  1.0269817594282642e-01  9.9681602613215417e-02  9.7280737335806181e-02  9.5286182076008683e-02  9.3286252082635052e-02  9.0351610273403618e-02  8.3303472713233948e-02  1.3789930138698259e-01  1.4013012985097434e-01  9.5670012216879305e-02  1.3172179772021192e-01  1.7061393294650173e-01  2.1587148400461409e-01  2.6345513610523763e-01  3.0801789892430559e-01  3.4493291497196371e-01  3.7177549270849231e-01  3.8824005420909141e-01  3.9536653232154717e-01  3.9488212769142178e-01  3.8867265781197879e-01  3.7845283412149899e-01  3.6560631955724932e-01  3.5115130534600286e-01  3.3577805691628743e-01  3.1991720462536105e-01  3.0381322359569496e-01  2.8759078418859851e-01  2.7130983519358981e-01  2.5500927790476352e-01  2.3874032845091336e-01  2.2259039059188693e-01  2.0669734827216316e-01  1.9125327657273622e-01  1.7649621327566978e-01  1.6268934601731067e-01  1.5008909663807840e-01  1.3890698739060028e-01  1.2927380305981118e-01  1.2121646757657276e-01  1.1465599416859351e-01  1.0942770515398517e-01  1.0531396771865235e-01  1.0206659293580757e-01  9.9371802701261447e-02  9.6655447135981010e-02  9.2752745173996398e-02  8.4302038951053218e-02  1.3829237221950069e-01  1.3899534365860586e-01  9.0169477182702795e-02  1.0986870045365534e-01  1.2818803908833026e-01  1.5221318454453381e-01  1.8312005834050732e-01  2.1912981624162448e-01  2.5610651496286019e-01  2.8982541729583405e-01  3.1746179441633005e-01  3.3788284090118897e-01  3.5123943819168146e-01  3.5839231355975798e-01  3.6046156715662347e-01  3.5854426784611504e-01  3.5357407236402461e-01  3.4627471054665948e-01  3.3716703294885603e-01  3.2660174569562017e-01  3.1480147758380339e-01  3.0190387684094067e-01  2.8800224646157518e-01  2.7318251361297852e-01  2.5755588367780108e-01  2.4128597959880482e-01  2.2460812135336178e-01  2.0783718161302317e-01  1.9135983809700616e-01  1.7560791919468208e-01  1.6101278990011703e-01  1.4794660332605486e-01  1.3666351472116325e-01  1.2725857322095668e-01  1.1965896346077501e-01  1.1364810340642748e-01  1.0889804004285535e-01  1.0494637654752194e-01  1.0098954982002159e-01  9.5582223173503247e-02  8.5333167727881173e-02  1.3870102130648898e-01  1.3798907834171398e-01  8.6245840184970141e-02  9.8744170595295083e-02  1.0905431373373600e-01  1.2316254996384551e-01  1.4271411014404911e-01  1.6794277665480600e-01  1.9746512274501180e-01  2.2866238107687237e-01  2.5867750719917204e-01  2.8532248410791494e-01  3.0739916069358053e-01  3.2456813260763701e-01  3.3704850552943999e-01  3.4533314530379444e-01  3.4998858950142964e-01  3.5153909673983813e-01  3.5041298809610366e-01  3.4692832375261828e-01  3.4130112231193593e-01  3.3366576923337976e-01  3.2410204524878766e-01  3.1266605978781870e-01  2.9942362472059225e-01  2.8448461613315429e-01  2.6803595122717488e-01  2.5036921756057412e-01  2.3189708400685252e-01  2.1315102780334944e-01  1.9475272818307005e-01  1.7735457976504213e-01  1.6155288015905661e-01  1.4778953609500764e-01  1.3627038435525582e-01  1.2692550613210474e-01  1.1941072385255572e-01  1.1309402954172433e-01  1.0688105863956747e-01  9.9033752232014396e-02  8.6395420689029070e-02  1.3912199649794116e-01  1.3705795533562573e-01  8.2873026772781244e-02  9.1098697476625218e-02  9.7887444274151303e-02  1.0749334721379163e-01  1.2098604456699069e-01  1.3891232086862537e-01  1.6123601894259890e-01  1.8706071641122857e-01  2.1476626989030109e-01  2.4250318214566607e-01  2.6867880952786949e-01  2.9220587152007399e-01  3.1250899245144831e-01  3.2940303754833250e-01  3.4294370656134454e-01  3.5330178815776753e-01  3.6067566395350009e-01  3.6523861795264884e-01  3.6711260492369013e-01  3.6636085556859277e-01  3.6299403506495492e-01  3.5698678205697815e-01  3.4830277140169263e-01  3.3692689861858105e-01  3.2290289460287841e-01  3.0637378109305130e-01  2.8762112591984584e-01  2.6709687169322527e-01  2.4543826848058486e-01  2.2345256563086127e-01  2.0205528285814245e-01  1.8215101113928850e-01  1.6446531150612972e-01  1.4936229611252838e-01  1.3671184702032010e-01  1.2582826749461376e-01  1.1537187740049565e-01  1.0341992294640542e-01  8.7487668243044131e-02  1.3955001209328727e-01  1.3625357748752298e-01  8.0048204651861160e-02  8.5461997620144114e-02  9.0505502973356772e-02  9.7860303867975590e-02  1.0812356973774755e-01  1.2171689942298999e-01  1.3899956470724095e-01  1.600163858