<?xml version="1.0"?>
<VTKFile type="UnstructuredGrid"  version="0.1"  >
<UnstructuredGrid>
<Piece  NumberOfPoints="1681" NumberOfCells="3200">
<Points>
<DataArray  type="Float64"  NumberOfComponents="3"  format="ascii">0 0 0  0.025 0 0  0.05 0 0  0.075 0 0  0.1 0 0  0.125 0 0  0.15 0 0  0.175 0 0  0.2 0 0  0.225 0 0  0.25 0 0  0.275 0 0  0.3 0 0  0.325 0 0  0.35 0 0  0.375 0 0  0.4 0 0  0.425 0 0  0.45 0 0  0.475 0 0  0.5 0 0  0.525 0 0  0.55 0 0  0.575 0 0  0.6 0 0  0.625 0 0  0.65 0 0  0.675 0 0  0.7 0 0  0.725 0 0  0.75 0 0  0.775 0 0  0.8 0 0  0.825 0 0  0.85 0 0  0.875 0 0  0.9 0 0  0.925 0 0  0.95 0 0  0.975 0 0  1 0 0  0 0.025 0  0.025 0.025 0  0.05 0.025 0  0.075 0.025 0  0.1 0.025 0  0.125 0.025 0  0.15 0.025 0  0.175 0.025 0  0.2 0.025 0  0.225 0.025 0  0.25 0.025 0  0.275 0.025 0  0.3 0.025 0  0.325 0.025 0  0.35 0.025 0  0.375 0.025 0  0.4 0.025 0  0.425 0.025 0  0.45 0.025 0  0.475 0.025 0  0.5 0.025 0  0.525 0.025 0  0.55 0.025 0  0.575 0.025 0  0.6 0.025 0  0.625 0.025 0  0.65 0.025 0  0.675 0.025 0  0.7 0.025 0  0.725 0.025 0  0.75 0.025 0  0.775 0.025 0  0.8 0.025 0  0.825 0.025 0  0.85 0.025 0  0.875 0.025 0  0.9 0.025 0  0.925 0.025 0  0.95 0.025 0  0.975 0.025 0  1 0.025 0  0 0.05 0  0.025 0.05 0  0.05 0.05 0  0.075 0.05 0  0.1 0.05 0  0.125 0.05 0  0.15 0.05 0  0.175 0.05 0  0.2 0.05 0  0.225 0.05 0  0.25 0.05 0  0.275 0.05 0  0.3 0.05 0  0.325 0.05 0  0.35 0.05 0  0.375 0.05 0  0.4 0.05 0  0.425 0.05 0  0.45 0.05 0  0.475 0.05 0  0.5 0.05 0  0.525 0.05 0  0.55 0.05 0  0.575 0.05 0  0.6 0.05 0  0.625 0.05 0  0.65 0.05 0  0.675 0.05 0  0.7 0.05 0  0.725 0.05 0  0.75 0.05 0  0.775 0.05 0  0.8 0.05 0  0.825 0.05 0  0.85 0.05 0  0.875 0.05 0  0.9 0.05 0  0.925 0.05 0  0.95 0.05 0  0.975 0.05 0  1 0.05 0  0 0.075 0  0.025 0.075 0  0.05 0.075 0  0.075 0.075 0  0.1 0.075 0  0.125 0.075 0  0.15 0.075 0  0.175 0.075 0  0.2 0.075 0  0.225 0.075 0  0.25 0.075 0  0.275 0.075 0  0.3 0.075 0  0.325 0.075 0  0.35 0.075 0  0.375 0.075 0  0.4 0.075 0  0.425 0.075 0  0.45 0.075 0  0.475 0.075 0  0.5 0.075 0  0.525 0.075 0  0.55 0.075 0  0.575 0.075 0  0.6 0.075 0  0.625 0.075 0  0.65 0.075 0  0.675 0.075 0  0.7 0.075 0  0.725 0.075 0  0.75 0.075 0  0.775 0.075 0  0.8 0.075 0  0.825 0.075 0  0.85 0.075 0  0.875 0.075 0  0.9 0.075 0  0.925 0.075 0  0.95 0.075 0  0.975 0.075 0  1 0.075 0  0 0.1 0  0.025 0.1 0  0.05 0.1 0  0.075 0.1 0  0.1 0.1 0  0.125 0.1 0  0.15 0.1 0  0.175 0.1 0  0.2 0.1 0  0.225 0.1 0  0.25 0.1 0  0.275 0.1 0  0.3 0.1 0  0.325 0.1 0  0.35 0.1 0  0.375 0.1 0  0.4 0.1 0  0.425 0.1 0  0.45 0.1 0  0.475 0.1 0  0.5 0.1 0  0.525 0.1 0  0.55 0.1 0  0.575 0.1 0  0.6 0.1 0  0.625 0.1 0  0.65 0.1 0  0.675 0.1 0  0.7 0.1 0  0.725 0.1 0  0.75 0.1 0  0.775 0.1 0  0.8 0.1 0  0.825 0.1 0  0.85 0.1 0  0.875 0.1 0  0.9 0.1 0  0.925 0.1 0  0.95 0.1 0  0.975 0.1 0  1 0.1 0  0 0.125 0  0.025 0.125 0  0.05 0.125 0  0.075 0.125 0  0.1 0.125 0  0.125 0.125 0  0.15 0.125 0  0.175 0.125 0  0.2 0.125 0  0.225 0.125 0  0.25 0.125 0  0.275 0.125 0  0.3 0.125 0  0.325 0.125 0  0.35 0.125 0  0.375 0.125 0  0.4 0.125 0  0.425 0.125 0  0.45 0.125 0  0.475 0.125 0  0.5 0.125 0  0.525 0.125 0  0.55 0.125 0  0.575 0.125 0  0.6 0.125 0  0.625 0.125 0  0.65 0.125 0  0.675 0.125 0  0.7 0.125 0  0.725 0.125 0  0.75 0.125 0  0.775 0.125 0  0.8 0.125 0  0.825 0.125 0  0.85 0.125 0  0.875 0.125 0  0.9 0.125 0  0.925 0.125 0  0.95 0.125 0  0.975 0.125 0  1 0.125 0  0 0.15 0  0.025 0.15 0  0.05 0.15 0  0.075 0.15 0  0.1 0.15 0  0.125 0.15 0  0.15 0.15 0  0.175 0.15 0  0.2 0.15 0  0.225 0.15 0  0.25 0.15 0  0.275 0.15 0  0.3 0.15 0  0.325 0.15 0  0.35 0.15 0  0.375 0.15 0  0.4 0.15 0  0.425 0.15 0  0.45 0.15 0  0.475 0.15 0  0.5 0.15 0  0.525 0.15 0  0.55 0.15 0  0.575 0.15 0  0.6 0.15 0  0.625 0.15 0  0.65 0.15 0  0.675 0.15 0  0.7 0.15 0  0.725 0.15 0  0.75 0.15 0  0.775 0.15 0  0.8 0.15 0  0.825 0.15 0  0.85 0.15 0  0.875 0.15 0  0.9 0.15 0  0.925 0.15 0  0.95 0.15 0  0.975 0.15 0  1 0.15 0  0 0.175 0  0.025 0.175 0  0.05 0.175 0  0.075 0.175 0  0.1 0.175 0  0.125 0.175 0  0.15 0.175 0  0.175 0.175 0  0.2 0.175 0  0.225 0.175 0  0.25 0.175 0  0.275 0.175 0  0.3 0.175 0  0.325 0.175 0  0.35 0.175 0  0.375 0.175 0  0.4 0.175 0  0.425 0.175 0  0.45 0.175 0  0.475 0.175 0  0.5 0.175 0  0.525 0.175 0  0.55 0.175 0  0.575 0.175 0  0.6 0.175 0  0.625 0.175 0  0.65 0.175 0  0.675 0.175 0  0.7 0.175 0  0.725 0.175 0  0.75 0.175 0  0.775 0.175 0  0.8 0.175 0  0.825 0.175 0  0.85 0.175 0  0.875 0.175 0  0.9 0.175 0  0.925 0.175 0  0.95 0.175 0  0.975 0.175 0  1 0.175 0  0 0.2 0  0.025 0.2 0  0.05 0.2 0  0.075 0.2 0  0.1 0.2 0  0.125 0.2 0  0.15 0.2 0  0.175 0.2 0  0.2 0.2 0  0.225 0.2 0  0.25 0.2 0  0.275 0.2 0  0.3 0.2 0  0.325 0.2 0  0.35 0.2 0  0.375 0.2 0  0.4 0.2 0  0.425 0.2 0  0.45 0.2 0  0.475 0.2 0  0.5 0.2 0  0.525 0.2 0  0.55 0.2 0  0.575 0.2 0  0.6 0.2 0  0.625 0.2 0  0.65 0.2 0  0.675 0.2 0  0.7 0.2 0  0.725 0.2 0  0.75 0.2 0  0.775 0.2 0  0.8 0.2 0  0.825 0.2 0  0.85 0.2 0  0.875 0.2 0  0.9 0.2 0  0.925 0.2 0  0.95 0.2 0  0.975 0.2 0  1 0.2 0  0 0.225 0  0.025 0.225 0  0.05 0.225 0  0.075 0.225 0  0.1 0.225 0  0.125 0.225 0  0.15 0.225 0  0.175 0.225 0  0.2 0.225 0  0.225 0.225 0  0.25 0.225 0  0.275 0.225 0  0.3 0.225 0  0.325 0.225 0  0.35 0.225 0  0.375 0.225 0  0.4 0.225 0  0.425 0.225 0  0.45 0.225 0  0.475 0.225 0  0.5 0.225 0  0.525 0.225 0  0.55 0.225 0  0.575 0.225 0  0.6 0.225 0  0.625 0.225 0  0.65 0.225 0  0.675 0.225 0  0.7 0.225 0  0.725 0.225 0  0.75 0.225 0  0.775 0.225 0  0.8 0.225 0  0.825 0.225 0  0.85 0.225 0  0.875 0.225 0  0.9 0.225 0  0.925 0.225 0  0.95 0.225 0  0.975 0.225 0  1 0.225 0  0 0.25 0  0.025 0.25 0  0.05 0.25 0  0.075 0.25 0  0.1 0.25 0  0.125 0.25 0  0.15 0.25 0  0.175 0.25 0  0.2 0.25 0  0.225 0.25 0  0.25 0.25 0  0.275 0.25 0  0.3 0.25 0  0.325 0.25 0  0.35 0.25 0  0.375 0.25 0  0.4 0.25 0  0.425 0.25 0  0.45 0.25 0  0.475 0.25 0  0.5 0.25 0  0.525 0.25 0  0.55 0.25 0  0.575 0.25 0  0.6 0.25 0  0.625 0.25 0  0.65 0.25 0  0.675 0.25 0  0.7 0.25 0  0.725 0.25 0  0.75 0.25 0  0.775 0.25 0  0.8 0.25 0  0.825 0.25 0  0.85 0.25 0  0.875 0.25 0  0.9 0.25 0  0.925 0.25 0  0.95 0.25 0  0.975 0.25 0  1 0.25 0  0 0.275 0  0.025 0.275 0  0.05 0.275 0  0.075 0.275 0  0.1 0.275 0  0.125 0.275 0  0.15 0.275 0  0.175 0.275 0  0.2 0.275 0  0.225 0.275 0  0.25 0.275 0  0.275 0.275 0  0.3 0.275 0  0.325 0.275 0  0.35 0.275 0  0.375 0.275 0  0.4 0.275 0  0.425 0.275 0  0.45 0.275 0  0.475 0.275 0  0.5 0.275 0  0.525 0.275 0  0.55 0.275 0  0.575 0.275 0  0.6 0.275 0  0.625 0.275 0  0.65 0.275 0  0.675 0.275 0  0.7 0.275 0  0.725 0.275 0  0.75 0.275 0  0.775 0.275 0  0.8 0.275 0  0.825 0.275 0  0.85 0.275 0  0.875 0.275 0  0.9 0.275 0  0.925 0.275 0  0.95 0.275 0  0.975 0.275 0  1 0.275 0  0 0.3 0  0.025 0.3 0  0.05 0.3 0  0.075 0.3 0  0.1 0.3 0  0.125 0.3 0  0.15 0.3 0  0.175 0.3 0  0.2 0.3 0  0.225 0.3 0  0.25 0.3 0  0.275 0.3 0  0.3 0.3 0  0.325 0.3 0  0.35 0.3 0  0.375 0.3 0  0.4 0.3 0  0.425 0.3 0  0.45 0.3 0  0.475 0.3 0  0.5 0.3 0  0.525 0.3 0  0.55 0.3 0  0.575 0.3 0  0.6 0.3 0  0.625 0.3 0  0.65 0.3 0  0.675 0.3 0  0.7 0.3 0  0.725 0.3 0  0.75 0.3 0  0.775 0.3 0  0.8 0.3 0  0.825 0.3 0  0.85 0.3 0  0.875 0.3 0  0.9 0.3 0  0.925 0.3 0  0.95 0.3 0  0.975 0.3 0  1 0.3 0  0 0.325 0  0.025 0.325 0  0.05 0.325 0  0.075 0.325 0  0.1 0.325 0  0.125 0.325 0  0.15 0.325 0  0.175 0.325 0  0.2 0.325 0  0.225 0.325 0  0.25 0.325 0  0.275 0.325 0  0.3 0.325 0  0.325 0.325 0  0.35 0.325 0  0.375 0.325 0  0.4 0.325 0  0.425 0.325 0  0.45 0.325 0  0.475 0.325 0  0.5 0.325 0  0.525 0.325 0  0.55 0.325 0  0.575 0.325 0  0.6 0.325 0  0.625 0.325 0  0.65 0.325 0  0.675 0.325 0  0.7 0.325 0  0.725 0.325 0  0.75 0.325 0  0.775 0.325 0  0.8 0.325 0  0.825 0.325 0  0.85 0.325 0  0.875 0.325 0  0.9 0.325 0  0.925 0.325 0  0.95 0.325 0  0.975 0.325 0  1 0.325 0  0 0.35 0  0.025 0.35 0  0.05 0.35 0  0.075 0.35 0  0.1 0.35 0  0.125 0.35 0  0.15 0.35 0  0.175 0.35 0  0.2 0.35 0  0.225 0.35 0  0.25 0.35 0  0.275 0.35 0  0.3 0.35 0  0.325 0.35 0  0.35 0.35 0  0.375 0.35 0  0.4 0.35 0  0.425 0.35 0  0.45 0.35 0  0.475 0.35 0  0.5 0.35 0  0.525 0.35 0  0.55 0.35 0  0.575 0.35 0  0.6 0.35 0  0.625 0.35 0  0.65 0.35 0  0.675 0.35 0  0.7 0.35 0  0.725 0.35 0  0.75 0.35 0  0.775 0.35 0  0.8 0.35 0  0.825 0.35 0  0.85 0.35 0  0.875 0.35 0  0.9 0.35 0  0.925 0.35 0  0.95 0.35 0  0.975 0.35 0  1 0.35 0  0 0.375 0  0.025 0.375 0  0.05 0.375 0  0.075 0.375 0  0.1 0.375 0  0.125 0.375 0  0.15 0.375 0  0.175 0.375 0  0.2 0.375 0  0.225 0.375 0  0.25 0.375 0  0.275 0.375 0  0.3 0.375 0  0.325 0.375 0  0.35 0.375 0  0.375 0.375 0  0.4 0.375 0  0.425 0.375 0  0.45 0.375 0  0.475 0.375 0  0.5 0.375 0  0.525 0.375 0  0.55 0.375 0  0.575 0.375 0  0.6 0.375 0  0.625 0.375 0  0.65 0.375 0  0.675 0.375 0  0.7 0.375 0  0.725 0.375 0  0.75 0.375 0  0.775 0.375 0  0.8 0.375 0  0.825 0.375 0  0.85 0.375 0  0.875 0.375 0  0.9 0.375 0  0.925 0.375 0  0.95 0.375 0  0.975 0.375 0  1 0.375 0  0 0.4 0  0.025 0.4 0  0.05 0.4 0  0.075 0.4 0  0.1 0.4 0  0.125 0.4 0  0.15 0.4 0  0.175 0.4 0  0.2 0.4 0  0.225 0.4 0  0.25 0.4 0  0.275 0.4 0  0.3 0.4 0  0.325 0.4 0  0.35 0.4 0  0.375 0.4 0  0.4 0.4 0  0.425 0.4 0  0.45 0.4 0  0.475 0.4 0  0.5 0.4 0  0.525 0.4 0  0.55 0.4 0  0.575 0.4 0  0.6 0.4 0  0.625 0.4 0  0.65 0.4 0  0.675 0.4 0  0.7 0.4 0  0.725 0.4 0  0.75 0.4 0  0.775 0.4 0  0.8 0.4 0  0.825 0.4 0  0.85 0.4 0  0.875 0.4 0  0.9 0.4 0  0.925 0.4 0  0.95 0.4 0  0.975 0.4 0  1 0.4 0  0 0.425 0  0.025 0.425 0  0.05 0.425 0  0.075 0.425 0  0.1 0.425 0  0.125 0.425 0  0.15 0.425 0  0.175 0.425 0  0.2 0.425 0  0.225 0.425 0  0.25 0.425 0  0.275 0.425 0  0.3 0.425 0  0.325 0.425 0  0.35 0.425 0  0.375 0.425 0  0.4 0.425 0  0.425 0.425 0  0.45 0.425 0  0.475 0.425 0  0.5 0.425 0  0.525 0.425 0  0.55 0.425 0  0.575 0.425 0  0.6 0.425 0  0.625 0.425 0  0.65 0.425 0  0.675 0.425 0  0.7 0.425 0  0.725 0.425 0  0.75 0.425 0  0.775 0.425 0  0.8 0.425 0  0.825 0.425 0  0.85 0.425 0  0.875 0.425 0  0.9 0.425 0  0.925 0.425 0  0.95 0.425 0  0.975 0.425 0  1 0.425 0  0 0.45 0  0.02
[...]
<PointData  Scalars="ControlVisualisation"> 
<DataArray  type="Float64"  Name="ControlVisualisation"  format="ascii">4.7203021654358343e-02  3.2342915133930700e-02  3.2360908521090442e-02  3.2393680607930034e-02  3.2439731497787810e-02  3.2493899281670631e-02  3.2549051532737419e-02  3.2598789413156970e-02  3.2639026854936443e-02  3.2668146073673680e-02  3.2686351607392555e-02  3.2694873572748216e-02  3.2695349792731788e-02  3.2689449298436229e-02  3.2678683771276057e-02  3.2664335880468520e-02  3.2647451030939689e-02  3.2628859181300061e-02  3.2609207850266546e-02  3.2588996544763410e-02  3.2568608169004518e-02  3.2548335826957819e-02  3.2528404799211562e-02  3.2508990054678895e-02  3.2490229855904218e-02  3.2472236057929885e-02  3.2455101675662956e-02  3.2438906245286898e-02  3.2423719447358723e-02  3.2409603400929868e-02  3.2396613981863699e-02  3.2384801466443486e-02  3.2374210755435548e-02  3.2364881363346532e-02  3.2356847388138904e-02  3.2350137347118571e-02  3.2344774778976140e-02  3.2340775350098050e-02  3.2338166132510802e-02  3.2336895671743165e-02  8.2815231224637520e-02  3.2342532630172838e-02  1.6484923768641250e-02  1.6507830780865523e-02  1.6550839094581011e-02  1.6613159671240069e-02  1.6688102903737970e-02  1.6765922212117052e-02  1.6837468509345577e-02  1.6896505395188707e-02  1.6940196540444583e-02  1.6968387571966316e-02  1.6982544814410781e-02  1.6984863587725687e-02  1.6977689810628839e-02  1.6963208394465044e-02  1.6943308258991110e-02  1.6919549312128218e-02  1.6893181542371863e-02  1.6865186229073768e-02  1.6836322836346167e-02  1.6807173601345222e-02  1.6778182579664968e-02  1.6749688286934072e-02  1.6721950137320273e-02  1.6695169298175449e-02  1.6669504716530417e-02  1.6645085092619725e-02  1.6622017536215027e-02  1.6600393578071464e-02  1.6580293134153420e-02  1.6561786943168486e-02  1.6544937923747057e-02  1.6529801826925743e-02  1.6516427478309441e-02  1.6504856901007895e-02  1.6495125251634872e-02  1.6487261350425650e-02  1.6481286957806027e-02  1.6477216174157348e-02  1.6474879216508517e-02  3.2336895733584808e-02  3.2355675564200721e-02  1.6504398937570861e-02  1.6538758941193318e-02  1.6596200609019836e-02  1.6677347339119086e-02  1.6771556890198117e-02  1.6866139505694992e-02  1.6950500438974055e-02  1.7018181480482404e-02  1.7066792845836575e-02  1.7096837243629856e-02  1.7110406531229944e-02  1.7110229262854243e-02  1.7099100047220362e-02  1.7079580322916166e-02  1.7053870525641827e-02  1.7023783494992027e-02  1.6990771098788569e-02  1.6955973357646596e-02  1.6920272787841726e-02  1.6884345705140011e-02  1.6848707260923877e-02  1.6813749350670280e-02  1.6779771538726066e-02  1.6747005578002926e-02  1.6715634295425452e-02  1.6685805693583983e-02  1.6657643113254739e-02  1.6631252246672064e-02  1.6606725712114499e-02  1.6584145812238688e-02  1.6563586011695230e-02  1.6545111588599219e-02  1.6528779821954092e-02  1.6514640050551435e-02  1.6502733549064549e-02  1.6493094533269095e-02  1.6485745011585454e-02  1.6480674176508781e-02  1.6477220316361490e-02  3.2338167905163070e-02  3.2370809880036731e-02  1.6534974394558470e-02  1.6590424537081729e-02  1.6669825497791065e-02  1.6765225320858213e-02  1.6864336876451946e-02  1.6955785293983002e-02  1.7031480902974148e-02  1.7087869118069057e-02  1.7124988604629614e-02  1.7144718020325373e-02  1.7149635652846787e-02  1.7142470319835304e-02  1.7125819341507090e-02  1.7101991647191329e-02  1.7072941399333071e-02  1.7040266535707598e-02  1.7005243262324971e-02  1.6968873671147001e-02  1.6931934189358500e-02  1.6895020070567902e-02  1.6858584543751720e-02  1.6822972247049515e-02  1.6788446880804053e-02  1.6755213294461307e-02  1.6723434496214822e-02  1.6693244259997048e-02  1.6664756074230687e-02  1.6638069156745185e-02  1.6613272198809398e-02  1.6590445426618406e-02  1.6569661493541197e-02  1.6550985646586500e-02  1.6534475525028233e-02  1.6520180925909646e-02  1.6508143487012236e-02  1.6498397151520430e-02  1.6490960056046250e-02  1.6485773103553644e-02  1.6481312521815259e-02  3.2340788311044741e-02  3.2361837582056414e-02  1.6556282160727021e-02  1.6709445079850328e-02  1.6845258599880682e-02  1.6950886123383375e-02  1.7038355049198865e-02  1.7107775352904486e-02  1.7157236378659707e-02  1.7188533253961216e-02  1.7204254941952591e-02  1.7206718402956761e-02  1.7198070930375352e-02  1.7180429243136015e-02  1.7155802648521335e-02  1.7125978669684461e-02  1.7092464602787391e-02  1.7056491764506753e-02  1.7019048070997061e-02  1.6980915343013527e-02  1.6942703333130919e-02  1.6904880766913637e-02  1.6867804278420339e-02  1.6831744698787586e-02  1.6796909666949970e-02  1.6763461957316723e-02  1.6731533544042190e-02  1.6701235842583085e-02  1.6672666743494491e-02  1.6645915070079020e-02  1.6621063044525663e-02  1.6598187288509654e-02  1.6577358828513328e-02  1.6558642525312611e-02  1.6542096276295343e-02  1.6527770324405854e-02  1.6515706584538652e-02  1.6505938672968515e-02  1.6498479984448894e-02  1.6493204182880611e-02  1.6487350107089401e-02  3.2344824726586570e-02  3.3229186526995608e-02  1.6972723704357574e-02  1.7789608458713458e-02  1.7991570890875150e-02  1.7775529272233047e-02  1.7551008870786811e-02  1.7422763262595155e-02  1.7362666897206547e-02  1.7332478816199332e-02  1.7310505998290687e-02  1.7287306656792786e-02  1.7260035782577215e-02  1.7228537169264688e-02  1.7193588198965704e-02  1.7156120064389029e-02  1.7116976711155935e-02  1.7076874013223598e-02  1.7036413973573247e-02  1.6996095030655915e-02  1.6956316760407108e-02  1.6917388640853022e-02  1.6879544911565451e-02  1.6842962225658523e-02  1.6807776401949134e-02  1.6774096249047164e-02  1.6742013950764675e-02  1.6711612288164965e-02  1.6682969221401205e-02  1.6656160362578845e-02  1.6631259819209401e-02  1.6608339844146711e-02  1.6587469699895968e-02  1.6568714124523216e-02  1.6552131740633625e-02  1.6537773748295459e-02  1.6525682811525885e-02  1.6515892595601916e-02  1.6508410881226763e-02  1.6503024232410894e-02  1.6495355447089036e-02  3.2350275167373863e-02  3.5472198393751146e-02  2.2241576882068168e-02  3.5941798761845334e-02  4.1911359857214850e-02  3.2723719039495475e-02  2.4229918364403826e-02  1.9648957295614514e-02  1.8024314541509812e-02  1.7597498213687418e-02  1.7458633233689045e-02  1.7388290830505769e-02  1.7334829779383009e-02  1.7285825489106333e-02  1.7238393445032665e-02  1.7191900728845206e-02  1.7146195376976994e-02  1.7101295575508452e-02  1.7057329319602986e-02  1.7014468418617843e-02  1.6972874004685827e-02  1.6932672157912929e-02  1.6893953332114822e-02  1.6856782208528251e-02  1.6821208896112778e-02  1.6787277840845459e-02  1.6755033852672154e-02  1.6724525676560294e-02  1.6695807639736070e-02  1.6668939787955483e-02  1.6643986836378213e-02  1.6621016238571328e-02  1.6600095694821428e-02  1.6581290446010259e-02  1.6564660691933453e-02  1.6550259498734895e-02  1.6538131116346201e-02  1.6528309859066052e-02  1.6520796975599272e-02  1.6515271512884983e-02  1.6505354435684714e-02  3.2357157332309684e-02  8.7373671769036165e-01  7.6542207168209009e-01  8.3427779521801038e-01  7.7039330275457185e-01  5.4382223382142958e-01  2.6664501902613708e-01  7.2181550256604624e-02  2.7162868164871845e-02  1.9296780451302384e-02  1.7854093338866551e-02  1.7545589104801324e-02  1.7427685309720151e-02  1.7351734293449900e-02  1.7288877951231397e-02  1.7232237272276147e-02  1.7179367673173771e-02  1.7129230968308658e-02  1.7081412078023498e-02  1.7035752811113667e-02  1.6992169661360378e-02  1.6950588989050608e-02  1.6910938466624351e-02  1.6873154508312085e-02  1.6837189296901367e-02  1.6803014187064518e-02  1.6770620414241537e-02  1.6740018291272429e-02  1.6711235491079095e-02  1.6684314604479746e-02  1.6659310038841066e-02  1.6636284363591946e-02  1.6615304304891328e-02  1.6596436686072181e-02  1.6579744656462312e-02  1.6565284613682778e-02  1.6553103766160818e-02  1.6543238125377446e-02  1.6535681792315706e-02  1.6529985704093142e-02  1.6517376262724655e-02  3.2365488699670979e-02  9.9045198995332917e-01  9.9307308446054743e-01  9.9041043005320994e-01  9.8538723541910722e-01  9.7468127924699488e-01  9.3554549499853257e-01  7.0359325007475282e-01  2.7027801396210127e-01  4.6299287213396441e-02  2.1442181918555476e-02  1.8157762309865301e-02  1.7605915440244341e-02  1.7436257503894666e-02  1.7345263426104689e-02  1.7276214649510888e-02  1.7215722286168265e-02  1.7160086180496848e-02  1.7108185155803597e-02  1.7059567705270218e-02  1.7013913434858911e-02  1.6970929611457460e-02  1.6930358521635686e-02  1.6891991924403688e-02  1.6855673864641683e-02  1.6821296230508292e-02  1.6788792346982512e-02  1.6758130919821979e-02  1.6729310662911820e-02  1.6702355238012240e-02  1.6677308117637936e-02  1.6654227195416840e-02  1.6633179197891756e-02  1.6614234137847388e-02  1.6597460161917241e-02  1.6582919256224713e-02  1.6570663806969636e-02  1.6560733399071811e-02  1.6553115090756111e-02  1.6547211190205930e-02  1.6531452200356664e-02  3.2375287979063624e-02  9.9513490410876826e-01  9.9698589088743950e-01  9.9594091160123832e-01  9.9430981874976088e-01  9.9175186970457230e-01  9.8675157091006926e-01  9.7251146948648637e-01  8.9052712308144355e-01  4.6014515428608138e-01  8.3241838958639125e-02  2.3730967376259141e-02  1.8440052946530332e-02  1.7635065812306332e-02  1.7423429618567073e-02  1.7326105699532100e-02  1.7255215329467874e-02  1.7193370397745388e-02  1.7137095570717499e-02  1.7085427622090636e-02  1.7037728287712633e-02  1.6993422149866835e-02  1.6952028615446688e-02  1.6913178102261381e-02  1.6876600377989159e-02  1.6842105414004344e-02  1.6809566881883394e-02  1.6778910086585767e-02  1.6750103079976451e-02  1.6723149321208618e-02  1.6698080783553303e-02  1.6674950998781673e-02  1.6653827946588966e-02  1.6634786973033854e-02  1.6617904100802491e-02  1.6603250266882235e-02  1.6590886563669926e-02  1.6580859424172961e-02  1.6573150273255975e-02  1.6566992707193352e-02  1.6547611635456344e-02  3.2386572003027629e-02  9.9578941532752019e-01  9.9766671378734539e-01  9.9705803257876835e-01  9.9616406640919064e-01  9.9495026211987247e-01  9.9311886401256766e-01  9.8968177236467669e-01  9.8064175970631640e-01  9.3806137678899737e-01  5.7335232775923817e-01  1.1695113503233978e-01  2.4979813424394964e-02  1.8599084112528082e-02  1.7644099169364675e-02  1.7405288838485571e-02  1.7302175838512599e-02  1.7229289773299256e-02  1.7167526104100928e-02  1.7112703489301852e-02  1.7063134324739125e-02  1.7017730177179075e-02  1.6975721935424487e-02  1.6936568141388289e-02  1.6899887924318721e-02  1.6865413553847918e-02  1.6832960624470410e-02  1.6802410460383110e-02  1.6773698910057300e-02  1.6746807678077666e-02  1.6721756280311469e-02  1.6698593899999423e-02  1.6677390994751268e-02  1.6658230787630676e-02  1.6641200985415341e-02  1.6626386319101287e-02  1.6613862081387175e-02  1.6603687109317450e-02  1.6595840897836209e-02  1.6589369625464218e-02  1.6565876220036010e-02  3.2399351615089854e-02  9.9450850317279116e-01  9.9731584853012090e-01  9.9693200550414829e-01  9.9638884987619991e-01  9.9570785185433741e-01  9.9478107435028051e-01  9.9330128650476968e-01  9.9043687558476423e-01  9.8304528920017742e-01  9.5093185942462644e-01  6.1045206805191110e-01  1.3057653233483763e-01  2.4765670590344339e-02  1.8694365707448309e-02  1.7651381229308420e-02  1.7383942092126552e-02  1.7271996953002654e-02  1.7199230502359865e-02  1.7140675380567481e-02  1.7089572938404830e-02  1.7043471925972855e-02  1.7001181292944735e-02  1.6961992936092712e-02  1.6925437318183977e-02  1.6891182424483481e-02  1.6858990253906608e-02  1.6828697676524493e-02  1.6800205942491160e-02  1.6773472333229220e-02  1.6748501797966168e-02  1.6725338148181623e-02  1.6704054857988187e-02  1.6684745527477066e-02  1.6667514195182687e-02  1.6652466080856961e-02  1.6639699028529600e-02  1.6629293500480802e-02  1.6621234795591348e-02  1.6614366204318536e-02  1.6586249899333588e-02  3.2413624642731863e-02  9.8678126794423493e-01  9.9503972882246861e-01  9.9540888254080950e-01  9.9550762017023486e-01  9.9539124106251375e-01  9.9505270178191474e-01  9.9438462450809073e-01  9.9310928546087829e-01  9.9045730880595662e-01  9.8350276788971802e-01  9.5349837079230437e-01  6.0106672894616242e-01  1.2640334053956287e-01  2.4695897514688099e-02  1.8813825737862139e-02  1.7642153697402609e-02  1.7348511517850919e-02  1.7236211307229455e-02  1.7169394387600113e-02  1.7116633758260634e-02  1.7070302583837391e-02  1.7028150161576265e-02  1.6989267422353960e-02  1.6953130940908341e-02  1.6919362414084458e-02  1.6887673048180722e-02  1.6857851968735196e-02  1.6829760837561953e-02  1.6803327569447007e-02  1.6778538255842378e-02  1.6755428075879215e-02  1.6734072091272870e-02  1.6714575690236533e-02  1.6697064195003011e-02  1.6681672038206578e-02  1.6668531913147475e-02  1.6657760906380614e-02  1.6649364899783466e-02  1.6641975633059830e-02  1.6608702418972780e-02  3.2429364356682616e-02  5.5486789540301873e-01  9.7480395100164341e-01  9.8853193892995483e-01  9.9249690437475979e-01  9.9392137479207543e-01  9.9444715837019837e-01  9.9445526530277562e-01  9.9397768062312497e-01  9.9279409081148484e-01  9.9014454954477815e-01  9.8301135442368492e-01  9.5163696174814161e-01  5.6253199473343218e-01  1.1248603983072747e-01  2.4920587851604538e-02  1.8831404889301986e-02  1.7612637240692772e-02  1.7310535133983371e-02  1.7204868135846599e-02  1.7145261931473720e-02  1.7098221633974502e-02  1.7056445745885992e-02  1.7018198053626640e-02  1.6982827536037165e-02  1.6949888455437073e-02  1.6919026521930426e-02  1.6889972374217885e-02  1.6862538305570531e-02  1.6836614440935715e-02  1.6812160543868519e-02  1.6789195838784216e-02  1.6767791133389838e-02  1.6748061751189459e-02  1.6730158134905162e-02  1.6714254225141268e-02  1.6700534786307647e-02  1.6689177314129389e-02  1.6680235280808725e-02  1.6672133868901592e-02  1.6633141804392439e-02  3.2446500285217617e-02  3.7233955409805723e-02  1.8040376769785885e-01  9.2218243956268509e-01  9.8117878720412810e-01  9.9004843606915183e-01  9.9275350334680679e-01  9.9378060391975753e-01  9.9401172275602079e-01  9.9362006886657595e-01  9.9242384604490519e-01  9.8962817075676146e-01  9.8193707413468567e-01  9.4734140646179799e-01  5.1413923384524940e-01  1.0384148143098777e-01  2.4547387691729365e-02  1.8810726573208210e-02  1.7607860115245452e-02  1.7288908084252746e-02  1.7184667539285808e-02  1.7129135500336620e-02  1.7086258611724057e-02  1.7048623331778066e-02  1.7014365309455683e-02  1.6982678225114085e-02  1.6953067540972817e-02  1.6925181562130107e-02  1.6898762674893583e-02  1.6873648975042985e-02  1.6849764088148492e-02  1.6827097627813346e-02  1.6805700667390729e-02  1.6785688998743713e-02  1.6767238221317843e-02  1.6750571714805144e-02  1.6735948137632399e-02  1.6723641522556034e-02  1.6713800930665799e-02  1.6704676914468683e-02  1.6659368167242231e-02  3.2464886113604347e-02  3.2580367150985973e-02  2.3428510463717692e-02  3.2585885723482305e-01  8.9116486696401320e-01  9.7758444947616474e-01  9.8882551686630504e-01  9.9213959068939328e-01  9.9338976459456085e-01  9.9369103849597895e-01  9.9328370687810574e-01  9.9199326427777890e-01  9.8896456399752208e-01  9.8056690231800592e-01  9.4280366171572172e-01  4.9166702329185236e-01  1.1944785722365688e-01  2.5640159425771428e-02  1.9069796729542947e-02  1.7679680359782173e-02  1.7299136337684120e-02  1.7178155033567479e-02  1.7121029108845321e-02  1.7081160579582758e-02  1.7047751565557354e-02  1.7017682058452409e-02  1.6989826407503541e-02  1.6963642861838064e-02  1.6938729182676981e-02  1.6914843308761789e-02  1.6891876551803710e-02  1.6869764317367759e-02  1.6848495936167360e-02  1.6828162954125689e-02  1.6808960643651439e-02  1.6791166361431523e-02  1.6775133234764202e-02  1.6761282104812484e-02  1.6749941153016167e-02  1.6739271414256657e-02  1.6686995459737373e-02  3.2484245374081788e-02  3.2618153412190758e-02  1.7588190102998131e-02  3.1736189655632928e-02  3.7244184270001301e-01  9.0645621427472378e-01  9.7707467662679115e-01  9.8858434590891331e-01  9.9191713847047958e-01  9.9315067965782833e-01  9.9339910142908772e-01  9.9290962600072430e-01  9.9149847163705607e-01  9.8827673242723224e-01  9.7953791672344948e-01  9.4267173473012167e-01  5.4103809599434316e-01  1.7886347110055401e-01  3.1558339626867590e-02  2.0398049017758952e-02  1.8002074711947941e-02  1.7385547836834905e-02  1.7198501433042638e-02  1.7125478406935780e-02  1.7085973942225066e-02  1.7056109052832041e-02  1.7029763193221536e-02  1.7005717673791866e-02  1.6982883231349839e-02  1.6960732492615527e-02  1.6939195440188789e-02  1.6918080032414844e-02  1.6897180999730251e-02  1.6876523222143676e-02  1.6856322662913904e-02  1.6836895752383965e-02  1.6818684674099280e-02  1.6802313680805613e-02  1.6788432294814654e-02  1.6775303076544918e-02  1.6715317284201482e-02  3.2504078175455711e-02  3.2649481297359284e-02  1.7006938765152343e-02  1.8506100254582849e-02  3.7952979348307367e-02  4.2510337563116690e-01  9.3111030953333507e-01  9.7868608879972740e-01  9.8890039858350887e-01  9.9183075124022946e-01  9.9289440459789269e-01  9.9304011938372649e-01  9.9248163687864799e-01  9.9104044297451521e-01  9.8791764439780072e-01  9.8006236646158240e-01  9.5180974549761288e-01  7.0886159114514857e-01  3.4506017316600840e-01  6.3234727979721808e-02  2.6493283427801211e-02  1.9661788183666019e-02  1.7828365614202223e-02  1.7334017259087574e-02  1.7184631572232316e-02  1.7117642092746535e-02  1.7078539945747182e-02  1.7054034461397135e-02  1.7033055864650211e-02  1.7012386822873562e-02  1.6992719387025752e-02  1.6973360113781970e-02  1.6953258634020221e-02  1.6932312809134615e-02  1.6910857070547687e-02  1.6889174334946765e-02  1.6867671249792611e-02  1.6847191984866380e-02  1.6828944164415934e-02  1.6811700194689801e-02  1.6743073891139632e-02  3.2523498877513275e-02  3.2630671644423639e-02  1.6934977884219195e-02  1.7259530273520261e-02  1.9145962794969069e-02  4.5112971520530898e-02  5.1331591861356662e-01  9.4701610489567645e-01  9.8115491400940325e-01  9.8913170401270145e-01  9.9157148567009135e-01  9.9249457554606035e-01  9.9262279219080829e-01  9.9213876466116691e-01  9.9092227262549581e-01  9.8843856820945142e-01  9.8295272966140157e-01  9.6767919022006943e-01  8.9918218188948362e-01  6.1676729867267721e-01  2.7312798605217581e-01  6.7473525563206682e-02  2.9533247725771719e-02  2.1222746702839156e-02  1.8476413213351452e-02  1.7549079439285908e-02  1.7258004189868243e-02  1.7163219424278654e-02  1.7112560746448437e-02  1.7076699484789272e-02  1.7055572418783128e-02  1.7038998824218627e-02  1.7019633127050477e-02  1.6997843112858062e-02  1.6974894598972029e-02  1.6950457828562367e-02  1.6924186386426530e-02  1.6897015047313377e-02  1.6871134023360566e-02  1.6846674382917520e-02  1.6768049123401824e-02  3.2540949175620601e-02  3.2566160224957334e-02  1.6838850719063846e-02  1.7027011710852646e-02  1.7373874281844670e-02  2.0079767731079969e-02  6.4648777005272121e-02  5.9971967598944942e-01  9.6537043166896053e-01  9.8202834270226025e-01  9.8870837087028596e-01  9.9103704144051785e-01  9.9207136765065951e-01  9.9239990075206841e-01  9.9222041938260963e-01  9.9151009517033306e-01  9.9003589452036456e-01  9.8715067682583468e-01  9.8098864621331650e-01  9.6569636827865224e-01  9.1316764099044478e-01  7.0951527396254022e-01  4.0130770173101543e-01  1.5503357143520272e-01  4.9065306303864055e-02  2.7398347148191303e-02  2.1186380884044984e-02  1.8674670222851658e-02  1.7652129958483562e-02  1.7298715002153509e-02  1.7192124388116990e-02  1.7147165815590736e-02  1.7108313056800682e-02  1.7077594162815131e-02  1.7052856047665682e-02  1.7025720891650761e-02  1.6992597531935008e-02  1.6954511628248264e-02  1.6915133907022161e-02  1.6877432586140988e-02  1.6786358547203586e-02  3.2553667957346599e-02  3.2483579561210570e-02  1.6721610832402242e-02  1.6867592478774448e-02  1.7092584368214318e-02  1.7705366084812452e-02  2.2418760821939492e-02  1.4031873644122489e-01  6.0436620019176790e-01  9.802335425