<?xml version="1.0"?>
<VTKFile type="UnstructuredGrid"  version="0.1"  >
<UnstructuredGrid>
<Piece  NumberOfPoints="1681" NumberOfCells="3200">
<Points>
<DataArray  type="Float64"  NumberOfComponents="3"  format="ascii">0 0 0  0.025 0 0  0.05 0 0  0.075 0 0  0.1 0 0  0.125 0 0  0.15 0 0  0.175 0 0  0.2 0 0  0.225 0 0  0.25 0 0  0.275 0 0  0.3 0 0  0.325 0 0  0.35 0 0  0.375 0 0  0.4 0 0  0.425 0 0  0.45 0 0  0.475 0 0  0.5 0 0  0.525 0 0  0.55 0 0  0.575 0 0  0.6 0 0  0.625 0 0  0.65 0 0  0.675 0 0  0.7 0 0  0.725 0 0  0.75 0 0  0.775 0 0  0.8 0 0  0.825 0 0  0.85 0 0  0.875 0 0  0.9 0 0  0.925 0 0  0.95 0 0  0.975 0 0  1 0 0  0 0.025 0  0.025 0.025 0  0.05 0.025 0  0.075 0.025 0  0.1 0.025 0  0.125 0.025 0  0.15 0.025 0  0.175 0.025 0  0.2 0.025 0  0.225 0.025 0  0.25 0.025 0  0.275 0.025 0  0.3 0.025 0  0.325 0.025 0  0.35 0.025 0  0.375 0.025 0  0.4 0.025 0  0.425 0.025 0  0.45 0.025 0  0.475 0.025 0  0.5 0.025 0  0.525 0.025 0  0.55 0.025 0  0.575 0.025 0  0.6 0.025 0  0.625 0.025 0  0.65 0.025 0  0.675 0.025 0  0.7 0.025 0  0.725 0.025 0  0.75 0.025 0  0.775 0.025 0  0.8 0.025 0  0.825 0.025 0  0.85 0.025 0  0.875 0.025 0  0.9 0.025 0  0.925 0.025 0  0.95 0.025 0  0.975 0.025 0  1 0.025 0  0 0.05 0  0.025 0.05 0  0.05 0.05 0  0.075 0.05 0  0.1 0.05 0  0.125 0.05 0  0.15 0.05 0  0.175 0.05 0  0.2 0.05 0  0.225 0.05 0  0.25 0.05 0  0.275 0.05 0  0.3 0.05 0  0.325 0.05 0  0.35 0.05 0  0.375 0.05 0  0.4 0.05 0  0.425 0.05 0  0.45 0.05 0  0.475 0.05 0  0.5 0.05 0  0.525 0.05 0  0.55 0.05 0  0.575 0.05 0  0.6 0.05 0  0.625 0.05 0  0.65 0.05 0  0.675 0.05 0  0.7 0.05 0  0.725 0.05 0  0.75 0.05 0  0.775 0.05 0  0.8 0.05 0  0.825 0.05 0  0.85 0.05 0  0.875 0.05 0  0.9 0.05 0  0.925 0.05 0  0.95 0.05 0  0.975 0.05 0  1 0.05 0  0 0.075 0  0.025 0.075 0  0.05 0.075 0  0.075 0.075 0  0.1 0.075 0  0.125 0.075 0  0.15 0.075 0  0.175 0.075 0  0.2 0.075 0  0.225 0.075 0  0.25 0.075 0  0.275 0.075 0  0.3 0.075 0  0.325 0.075 0  0.35 0.075 0  0.375 0.075 0  0.4 0.075 0  0.425 0.075 0  0.45 0.075 0  0.475 0.075 0  0.5 0.075 0  0.525 0.075 0  0.55 0.075 0  0.575 0.075 0  0.6 0.075 0  0.625 0.075 0  0.65 0.075 0  0.675 0.075 0  0.7 0.075 0  0.725 0.075 0  0.75 0.075 0  0.775 0.075 0  0.8 0.075 0  0.825 0.075 0  0.85 0.075 0  0.875 0.075 0  0.9 0.075 0  0.925 0.075 0  0.95 0.075 0  0.975 0.075 0  1 0.075 0  0 0.1 0  0.025 0.1 0  0.05 0.1 0  0.075 0.1 0  0.1 0.1 0  0.125 0.1 0  0.15 0.1 0  0.175 0.1 0  0.2 0.1 0  0.225 0.1 0  0.25 0.1 0  0.275 0.1 0  0.3 0.1 0  0.325 0.1 0  0.35 0.1 0  0.375 0.1 0  0.4 0.1 0  0.425 0.1 0  0.45 0.1 0  0.475 0.1 0  0.5 0.1 0  0.525 0.1 0  0.55 0.1 0  0.575 0.1 0  0.6 0.1 0  0.625 0.1 0  0.65 0.1 0  0.675 0.1 0  0.7 0.1 0  0.725 0.1 0  0.75 0.1 0  0.775 0.1 0  0.8 0.1 0  0.825 0.1 0  0.85 0.1 0  0.875 0.1 0  0.9 0.1 0  0.925 0.1 0  0.95 0.1 0  0.975 0.1 0  1 0.1 0  0 0.125 0  0.025 0.125 0  0.05 0.125 0  0.075 0.125 0  0.1 0.125 0  0.125 0.125 0  0.15 0.125 0  0.175 0.125 0  0.2 0.125 0  0.225 0.125 0  0.25 0.125 0  0.275 0.125 0  0.3 0.125 0  0.325 0.125 0  0.35 0.125 0  0.375 0.125 0  0.4 0.125 0  0.425 0.125 0  0.45 0.125 0  0.475 0.125 0  0.5 0.125 0  0.525 0.125 0  0.55 0.125 0  0.575 0.125 0  0.6 0.125 0  0.625 0.125 0  0.65 0.125 0  0.675 0.125 0  0.7 0.125 0  0.725 0.125 0  0.75 0.125 0  0.775 0.125 0  0.8 0.125 0  0.825 0.125 0  0.85 0.125 0  0.875 0.125 0  0.9 0.125 0  0.925 0.125 0  0.95 0.125 0  0.975 0.125 0  1 0.125 0  0 0.15 0  0.025 0.15 0  0.05 0.15 0  0.075 0.15 0  0.1 0.15 0  0.125 0.15 0  0.15 0.15 0  0.175 0.15 0  0.2 0.15 0  0.225 0.15 0  0.25 0.15 0  0.275 0.15 0  0.3 0.15 0  0.325 0.15 0  0.35 0.15 0  0.375 0.15 0  0.4 0.15 0  0.425 0.15 0  0.45 0.15 0  0.475 0.15 0  0.5 0.15 0  0.525 0.15 0  0.55 0.15 0  0.575 0.15 0  0.6 0.15 0  0.625 0.15 0  0.65 0.15 0  0.675 0.15 0  0.7 0.15 0  0.725 0.15 0  0.75 0.15 0  0.775 0.15 0  0.8 0.15 0  0.825 0.15 0  0.85 0.15 0  0.875 0.15 0  0.9 0.15 0  0.925 0.15 0  0.95 0.15 0  0.975 0.15 0  1 0.15 0  0 0.175 0  0.025 0.175 0  0.05 0.175 0  0.075 0.175 0  0.1 0.175 0  0.125 0.175 0  0.15 0.175 0  0.175 0.175 0  0.2 0.175 0  0.225 0.175 0  0.25 0.175 0  0.275 0.175 0  0.3 0.175 0  0.325 0.175 0  0.35 0.175 0  0.375 0.175 0  0.4 0.175 0  0.425 0.175 0  0.45 0.175 0  0.475 0.175 0  0.5 0.175 0  0.525 0.175 0  0.55 0.175 0  0.575 0.175 0  0.6 0.175 0  0.625 0.175 0  0.65 0.175 0  0.675 0.175 0  0.7 0.175 0  0.725 0.175 0  0.75 0.175 0  0.775 0.175 0  0.8 0.175 0  0.825 0.175 0  0.85 0.175 0  0.875 0.175 0  0.9 0.175 0  0.925 0.175 0  0.95 0.175 0  0.975 0.175 0  1 0.175 0  0 0.2 0  0.025 0.2 0  0.05 0.2 0  0.075 0.2 0  0.1 0.2 0  0.125 0.2 0  0.15 0.2 0  0.175 0.2 0  0.2 0.2 0  0.225 0.2 0  0.25 0.2 0  0.275 0.2 0  0.3 0.2 0  0.325 0.2 0  0.35 0.2 0  0.375 0.2 0  0.4 0.2 0  0.425 0.2 0  0.45 0.2 0  0.475 0.2 0  0.5 0.2 0  0.525 0.2 0  0.55 0.2 0  0.575 0.2 0  0.6 0.2 0  0.625 0.2 0  0.65 0.2 0  0.675 0.2 0  0.7 0.2 0  0.725 0.2 0  0.75 0.2 0  0.775 0.2 0  0.8 0.2 0  0.825 0.2 0  0.85 0.2 0  0.875 0.2 0  0.9 0.2 0  0.925 0.2 0  0.95 0.2 0  0.975 0.2 0  1 0.2 0  0 0.225 0  0.025 0.225 0  0.05 0.225 0  0.075 0.225 0  0.1 0.225 0  0.125 0.225 0  0.15 0.225 0  0.175 0.225 0  0.2 0.225 0  0.225 0.225 0  0.25 0.225 0  0.275 0.225 0  0.3 0.225 0  0.325 0.225 0  0.35 0.225 0  0.375 0.225 0  0.4 0.225 0  0.425 0.225 0  0.45 0.225 0  0.475 0.225 0  0.5 0.225 0  0.525 0.225 0  0.55 0.225 0  0.575 0.225 0  0.6 0.225 0  0.625 0.225 0  0.65 0.225 0  0.675 0.225 0  0.7 0.225 0  0.725 0.225 0  0.75 0.225 0  0.775 0.225 0  0.8 0.225 0  0.825 0.225 0  0.85 0.225 0  0.875 0.225 0  0.9 0.225 0  0.925 0.225 0  0.95 0.225 0  0.975 0.225 0  1 0.225 0  0 0.25 0  0.025 0.25 0  0.05 0.25 0  0.075 0.25 0  0.1 0.25 0  0.125 0.25 0  0.15 0.25 0  0.175 0.25 0  0.2 0.25 0  0.225 0.25 0  0.25 0.25 0  0.275 0.25 0  0.3 0.25 0  0.325 0.25 0  0.35 0.25 0  0.375 0.25 0  0.4 0.25 0  0.425 0.25 0  0.45 0.25 0  0.475 0.25 0  0.5 0.25 0  0.525 0.25 0  0.55 0.25 0  0.575 0.25 0  0.6 0.25 0  0.625 0.25 0  0.65 0.25 0  0.675 0.25 0  0.7 0.25 0  0.725 0.25 0  0.75 0.25 0  0.775 0.25 0  0.8 0.25 0  0.825 0.25 0  0.85 0.25 0  0.875 0.25 0  0.9 0.25 0  0.925 0.25 0  0.95 0.25 0  0.975 0.25 0  1 0.25 0  0 0.275 0  0.025 0.275 0  0.05 0.275 0  0.075 0.275 0  0.1 0.275 0  0.125 0.275 0  0.15 0.275 0  0.175 0.275 0  0.2 0.275 0  0.225 0.275 0  0.25 0.275 0  0.275 0.275 0  0.3 0.275 0  0.325 0.275 0  0.35 0.275 0  0.375 0.275 0  0.4 0.275 0  0.425 0.275 0  0.45 0.275 0  0.475 0.275 0  0.5 0.275 0  0.525 0.275 0  0.55 0.275 0  0.575 0.275 0  0.6 0.275 0  0.625 0.275 0  0.65 0.275 0  0.675 0.275 0  0.7 0.275 0  0.725 0.275 0  0.75 0.275 0  0.775 0.275 0  0.8 0.275 0  0.825 0.275 0  0.85 0.275 0  0.875 0.275 0  0.9 0.275 0  0.925 0.275 0  0.95 0.275 0  0.975 0.275 0  1 0.275 0  0 0.3 0  0.025 0.3 0  0.05 0.3 0  0.075 0.3 0  0.1 0.3 0  0.125 0.3 0  0.15 0.3 0  0.175 0.3 0  0.2 0.3 0  0.225 0.3 0  0.25 0.3 0  0.275 0.3 0  0.3 0.3 0  0.325 0.3 0  0.35 0.3 0  0.375 0.3 0  0.4 0.3 0  0.425 0.3 0  0.45 0.3 0  0.475 0.3 0  0.5 0.3 0  0.525 0.3 0  0.55 0.3 0  0.575 0.3 0  0.6 0.3 0  0.625 0.3 0  0.65 0.3 0  0.675 0.3 0  0.7 0.3 0  0.725 0.3 0  0.75 0.3 0  0.775 0.3 0  0.8 0.3 0  0.825 0.3 0  0.85 0.3 0  0.875 0.3 0  0.9 0.3 0  0.925 0.3 0  0.95 0.3 0  0.975 0.3 0  1 0.3 0  0 0.325 0  0.025 0.325 0  0.05 0.325 0  0.075 0.325 0  0.1 0.325 0  0.125 0.325 0  0.15 0.325 0  0.175 0.325 0  0.2 0.325 0  0.225 0.325 0  0.25 0.325 0  0.275 0.325 0  0.3 0.325 0  0.325 0.325 0  0.35 0.325 0  0.375 0.325 0  0.4 0.325 0  0.425 0.325 0  0.45 0.325 0  0.475 0.325 0  0.5 0.325 0  0.525 0.325 0  0.55 0.325 0  0.575 0.325 0  0.6 0.325 0  0.625 0.325 0  0.65 0.325 0  0.675 0.325 0  0.7 0.325 0  0.725 0.325 0  0.75 0.325 0  0.775 0.325 0  0.8 0.325 0  0.825 0.325 0  0.85 0.325 0  0.875 0.325 0  0.9 0.325 0  0.925 0.325 0  0.95 0.325 0  0.975 0.325 0  1 0.325 0  0 0.35 0  0.025 0.35 0  0.05 0.35 0  0.075 0.35 0  0.1 0.35 0  0.125 0.35 0  0.15 0.35 0  0.175 0.35 0  0.2 0.35 0  0.225 0.35 0  0.25 0.35 0  0.275 0.35 0  0.3 0.35 0  0.325 0.35 0  0.35 0.35 0  0.375 0.35 0  0.4 0.35 0  0.425 0.35 0  0.45 0.35 0  0.475 0.35 0  0.5 0.35 0  0.525 0.35 0  0.55 0.35 0  0.575 0.35 0  0.6 0.35 0  0.625 0.35 0  0.65 0.35 0  0.675 0.35 0  0.7 0.35 0  0.725 0.35 0  0.75 0.35 0  0.775 0.35 0  0.8 0.35 0  0.825 0.35 0  0.85 0.35 0  0.875 0.35 0  0.9 0.35 0  0.925 0.35 0  0.95 0.35 0  0.975 0.35 0  1 0.35 0  0 0.375 0  0.025 0.375 0  0.05 0.375 0  0.075 0.375 0  0.1 0.375 0  0.125 0.375 0  0.15 0.375 0  0.175 0.375 0  0.2 0.375 0  0.225 0.375 0  0.25 0.375 0  0.275 0.375 0  0.3 0.375 0  0.325 0.375 0  0.35 0.375 0  0.375 0.375 0  0.4 0.375 0  0.425 0.375 0  0.45 0.375 0  0.475 0.375 0  0.5 0.375 0  0.525 0.375 0  0.55 0.375 0  0.575 0.375 0  0.6 0.375 0  0.625 0.375 0  0.65 0.375 0  0.675 0.375 0  0.7 0.375 0  0.725 0.375 0  0.75 0.375 0  0.775 0.375 0  0.8 0.375 0  0.825 0.375 0  0.85 0.375 0  0.875 0.375 0  0.9 0.375 0  0.925 0.375 0  0.95 0.375 0  0.975 0.375 0  1 0.375 0  0 0.4 0  0.025 0.4 0  0.05 0.4 0  0.075 0.4 0  0.1 0.4 0  0.125 0.4 0  0.15 0.4 0  0.175 0.4 0  0.2 0.4 0  0.225 0.4 0  0.25 0.4 0  0.275 0.4 0  0.3 0.4 0  0.325 0.4 0  0.35 0.4 0  0.375 0.4 0  0.4 0.4 0  0.425 0.4 0  0.45 0.4 0  0.475 0.4 0  0.5 0.4 0  0.525 0.4 0  0.55 0.4 0  0.575 0.4 0  0.6 0.4 0  0.625 0.4 0  0.65 0.4 0  0.675 0.4 0  0.7 0.4 0  0.725 0.4 0  0.75 0.4 0  0.775 0.4 0  0.8 0.4 0  0.825 0.4 0  0.85 0.4 0  0.875 0.4 0  0.9 0.4 0  0.925 0.4 0  0.95 0.4 0  0.975 0.4 0  1 0.4 0  0 0.425 0  0.025 0.425 0  0.05 0.425 0  0.075 0.425 0  0.1 0.425 0  0.125 0.425 0  0.15 0.425 0  0.175 0.425 0  0.2 0.425 0  0.225 0.425 0  0.25 0.425 0  0.275 0.425 0  0.3 0.425 0  0.325 0.425 0  0.35 0.425 0  0.375 0.425 0  0.4 0.425 0  0.425 0.425 0  0.45 0.425 0  0.475 0.425 0  0.5 0.425 0  0.525 0.425 0  0.55 0.425 0  0.575 0.425 0  0.6 0.425 0  0.625 0.425 0  0.65 0.425 0  0.675 0.425 0  0.7 0.425 0  0.725 0.425 0  0.75 0.425 0  0.775 0.425 0  0.8 0.425 0  0.825 0.425 0  0.85 0.425 0  0.875 0.425 0  0.9 0.425 0  0.925 0.425 0  0.95 0.425 0  0.975 0.425 0  1 0.425 0  0 0.45 0  0.02
[...]
<PointData  Scalars="ControlVisualisation"> 
<DataArray  type="Float64"  Name="ControlVisualisation"  format="ascii">3.4555383503336132e-02  2.3353032910537211e-02  2.3361889053310384e-02  2.3380458563610620e-02  2.3410186915001983e-02  2.3449278632410225e-02  2.3493445037936510e-02  2.3538039117595052e-02  2.3579529548004380e-02  2.3615848830644135e-02  2.3646260056028139e-02  2.3671136970252301e-02  2.3691564923462062e-02  2.3708787285318739e-02  2.3723793814907052e-02  2.3737249469992176e-02  2.3749646690997668e-02  2.3761427221434157e-02  2.3772972279334517e-02  2.3784546547764185e-02  2.3796279961512901e-02  2.3808176382576058e-02  2.3820103449533659e-02  2.3831755127824938e-02  2.3842613038336596e-02  2.3851921568169034e-02  2.3858673311123606e-02  2.3861598380871124e-02  2.3859166724300822e-02  2.3849624550720892e-02  2.3831092752297420e-02  2.3801756296116923e-02  2.3760205108970742e-02  2.3705970838498302e-02  2.3640297464767545e-02  2.3567013626367213e-02  2.3492962107839625e-02  2.3427255544676309e-02  2.3379439440055376e-02  2.3354793640915899e-02  6.5787416128051293e-02  2.3352590215869835e-02  1.1841110983042288e-02  1.1851157533823507e-02  1.1872913317299401e-02  1.1908757071147797e-02  1.1956887684924825e-02  1.2012260021220158e-02  1.2069146357487792e-02  1.2122953454171600e-02  1.2170703277751016e-02  1.2211025188956113e-02  1.2244100392849263e-02  1.2271273325279832e-02  1.2294247059053486e-02  1.2314360053231577e-02  1.2332439431759034e-02  1.2349085083608569e-02  1.2364892661609891e-02  1.2380421842627814e-02  1.2396077341220372e-02  1.2412075250589088e-02  1.2428473167758804e-02  1.2445164244144614e-02  1.2461815775568364e-02  1.2477804188444273e-02  1.2492179620769206e-02  1.2503647871617517e-02  1.2510552793850381e-02  1.2510870495120691e-02  1.2502255389670152e-02  1.2482168188101462e-02  1.2448121194543794e-02  1.2398104296663685e-02  1.2331237244056653e-02  1.2248678592650962e-02  1.2154634251506697e-02  1.2057165487066007e-02  1.1967874120118906e-02  1.1899033330229866e-02  1.1856844314935824e-02  2.3354837500694819e-02  2.3356382404247169e-02  1.1847367132523913e-02  1.1862978352063196e-02  1.1893518997896984e-02  1.1941372051844399e-02  1.2001939012485004e-02  1.2068267765266779e-02  1.2134210485567043e-02  1.2195501348258867e-02  1.2249218424313636e-02  1.2293658488769871e-02  1.2329184980693707e-02  1.2358174294098370e-02  1.2383331863277534e-02  1.2406125216907466e-02  1.2426921563456836e-02  1.2446048313159942e-02  1.2464282568842341e-02  1.2482485695159539e-02  1.2501171112755510e-02  1.2520527317897975e-02  1.2540626253853035e-02  1.2561434656807374e-02  1.2582647125515375e-02  1.2603558659170379e-02  1.2623054678341289e-02  1.2639632326502713e-02  1.2651375240946732e-02  1.2655917153394380e-02  1.2650488147183900e-02  1.2632063801083225e-02  1.2597660584994739e-02  1.2544749517798949e-02  1.2471976470712345e-02  1.2380043755154446e-02  1.2272718048869053e-02  1.2158532711219642e-02  1.2050967383858987e-02  1.1964640053037401e-02  1.1901755310556912e-02  2.3380379153678299e-02  2.3357055620324738e-02  1.1854686397168138e-02  1.1883560378145076e-02  1.1934083497806790e-02  1.1998389142479504e-02  1.2066478037433066e-02  1.2131902362018913e-02  1.2191616374285874e-02  1.2245769009630279e-02  1.2292825432530212e-02  1.2329155239914180e-02  1.2355224226662572e-02  1.2376182951067904e-02  1.2396756974749653e-02  1.2417673022983845e-02  1.2437106821749998e-02  1.2454336538882643e-02  1.2470775315014141e-02  1.2488015969264004e-02  1.2506460584461787e-02  1.2525891418869841e-02  1.2546358954477066e-02  1.2568134926667274e-02  1.2591130222103109e-02  1.2614639132872890e-02  1.2637519376630612e-02  1.2658369727399650e-02  1.2675458539067083e-02  1.2686585850211094e-02  1.2689088482267963e-02  1.2680093250296063e-02  1.2656838846200461e-02  1.2616671094462182e-02  1.2558008931002639e-02  1.2480771299985564e-02  1.2386678233967526e-02  1.2279947731683364e-02  1.2169644998521063e-02  1.2071745413094115e-02  1.1983767984161819e-02  2.3435349645864918e-02  2.3347952005829207e-02  1.1865032432326863e-02  1.1977899785843085e-02  1.2164726701480518e-02  1.2330383257258539e-02  1.2422512981302402e-02  1.2447226000353638e-02  1.2435266973060846e-02  1.2424259223916045e-02  1.2421864496830496e-02  1.2416234239768316e-02  1.2406677397097483e-02  1.2403017984200427e-02  1.2412435960769243e-02  1.2431137058710948e-02  1.2448333809301953e-02  1.2460575793032759e-02  1.2472579574357434e-02  1.2488154135453325e-02  1.2506529104580421e-02  1.2525768169329156e-02  1.2546022180898954e-02  1.2568668822285509e-02  1.2594070269698870e-02  1.2621202296285564e-02  1.2648675593766019e-02  1.2675334621204945e-02  1.2699948356387183e-02  1.2720701234136749e-02  1.2735013681764192e-02  1.2740391257526473e-02  1.2734576512974573e-02  1.2714989410056858e-02  1.2680241025724338e-02  1.2631594802007109e-02  1.2571066760093039e-02  1.2492014000593557e-02  1.2397974998818565e-02  1.2292330798726367e-02  1.2127358329737215e-02  2.3524207951969564e-02  2.4483795272136389e-02  1.2432844782355734e-02  1.3679953136427076e-02  1.5538415833102896e-02  1.7663961435994083e-02  1.8626033102828995e-02  1.8204894536831339e-02  1.6951635006424472e-02  1.5618795297694605e-02  1.4513992873226194e-02  1.3632069560546203e-02  1.3044760673401214e-02  1.2724955400816888e-02  1.2582409095277828e-02  1.2533599485937566e-02  1.2508391526058937e-02  1.2487147052265640e-02  1.2479604068604370e-02  1.2490414265855452e-02  1.2509303018700638e-02  1.2526737923944311e-02  1.2544232340204946e-02  1.2567049289420257e-02  1.2596065313526200e-02  1.2628365741423276e-02  1.2661544899044537e-02  1.2695253305836473e-02  1.2729653706271925e-02  1.2763420347372859e-02  1.2793423992455578e-02  1.2817429310262687e-02  1.2835509450593861e-02  1.2850135203152343e-02  1.2856816280042253e-02  1.2869994754400869e-02  1.2913668767034517e-02  1.2965405457324795e-02  1.2980853169508285e-02  1.2771484828197004e-02  1.2263829369741705e-02  2.3522581298107453e-02  2.6369123403364145e-02  2.1793652798327290e-02  1.5168170787461796e-01  3.2405701548477522e-01  3.9273803208521352e-01  4.0296977336398043e-01  3.5918450673583563e-01  2.7852141125227564e-01  1.9305731946483798e-01  1.0849741224600996e-01  5.3377972332811753e-02  2.9952122616674189e-02  2.0866225835100598e-02  1.6925291005353719e-02  1.4903197770673371e-02  1.3690409237820202e-02  1.3018715894080482e-02  1.2718472191390832e-02  1.2612877488825645e-02  1.2578415471569369e-02  1.2558070079316648e-02  1.2550925334840703e-02  1.2566708370421977e-02  1.2600613503857411e-02  1.2639441043543058e-02  1.2677509107025834e-02  1.2717696879447122e-02  1.2763771695522758e-02  1.2815420960601823e-02  1.2869556088165899e-02  1.2922259906526144e-02  1.2986368539091244e-02  1.3091819886712744e-02  1.3230080327905389e-02  1.3541214364166915e-02  1.4272206128212625e-02  1.5355526221546924e-02  1.6441892864215660e-02  1.6392901147191909e-02  1.4675948488762242e-02  2.4303785952247539e-02  9.4790946888099981e-01  9.5860822908695509e-01  9.8039569080670352e-01  9.8296389462777256e-01  9.8171082835722856e-01  9.7873783224290967e-01  9.7299395735933536e-01  9.6178791399843910e-01  9.3569523578703451e-01  8.6999032536043386e-01  7.4179046056947540e-01  5.7081823767237638e-01  3.9971568058781387e-01  2.4737415356689649e-01  1.2457140684830799e-01  5.1744342331000663e-02  2.7179860538788066e-02  1.9216508771451365e-02  1.5960125825182359e-02  1.4259182594085302e-02  1.3321168397157884e-02  1.2885273484772536e-02  1.2730766165905277e-02  1.2701515238981186e-02  1.2708506527583993e-02  1.2727027127362215e-02  1.2763290031175304e-02  1.2824530780622878e-02  1.2913521437749879e-02  1.3032854471829478e-02  1.3181699573650741e-02  1.3506461958075991e-02  1.4408593120331149e-02  1.6096686314973109e-02  1.9537194946571853e-02  2.9841973487493512e-02  6.4791871641728546e-02  1.4315247511324439e-01  2.2807072471071682e-01  2.9678018331419614e-01  1.6547158376339255e-01  9.9511322248041612e-01  9.9671750340185328e-01  9.9612733034929724e-01  9.9540831972093025e-01  9.9463081974110756e-01  9.9376370380177659e-01  9.9274157009216735e-01  9.9145577362281889e-01  9.8972703793560945e-01  9.8728348246311737e-01  9.8368297388082615e-01  9.7793560862395235e-01  9.6711011662010882e-01  9.4108003673954799e-01  8.6506197097495618e-01  7.1134641355125416e-01  5.2009941857129049e-01  3.3423141543559132e-01  1.8142478605252430e-01  7.9145647055777757e-02  3.4696025401604783e-02  2.1788729042670534e-02  1.7222899174628242e-02  1.5162566558055753e-02  1.4080943497845151e-02  1.3553876497446644e-02  1.3378813903486414e-02  1.3432804313113498e-02  1.3729734595359680e-02  1.4448797226263901e-02  1.5783239937593806e-02  1.8618072388106928e-02  2.7899059189004080e-02  7.0930063641047841e-02  2.1911155832576262e-01  4.4173926878984715e-01  6.7734892967181592e-01  8.5759954695199159e-01  9.4065573094711996e-01  9.6991609130789047e-01  9.5077924590970397e-01  9.9744455495778739e-01  9.9846689602334182e-01  9.9807337253891915e-01  9.9756633373737169e-01  9.9702927128071384e-01  9.9650306203240735e-01  9.9599438298876253e-01  9.9548348276131937e-01  9.9493428656680383e-01  9.9429872831090726e-01  9.9351466914324615e-01  9.9249741991009910e-01  9.9111730128633335e-01  9.8915198786233849e-01  9.8623482580253874e-01  9.8172059321196548e-01  9.7392473551992220e-01  9.5735594258403367e-01  9.1114566395402641e-01  7.8543757919910184e-01  6.0070699574185527e-01  4.0577057807735428e-01  2.4102054909315293e-01  1.2259038977347887e-01  5.7431682586056368e-02  3.3831072614609277e-02  2.6179491384649884e-02  2.4210831529236729e-02  2.6042971052967667e-02  3.4821191480145557e-02  6.7501769372227030e-02  1.7514392542714455e-01  3.7451477589100607e-01  6.3642869953499481e-01  8.6435163021723971e-01  9.4989827529475446e-01  9.7273946477659023e-01  9.8200287908126127e-01  9.8736729215049768e-01  9.9073584509309343e-01  9.8253462299485816e-01  9.9776775985866550e-01  9.9876543353959735e-01  9.9845963412520444e-01  9.9805432048482079e-01  9.9762607716279139e-01  9.9722814618589128e-01  9.9688013563140010e-01  9.9657563865475973e-01  9.9629570335471096e-01  9.9601772081111339e-01  9.9571964222338649e-01  9.9538014065334690e-01  9.9497538171933242e-01  9.9447314765338424e-01  9.9382541387230927e-01  9.9295937117488697e-01  9.9176163237475246e-01  9.9004001056376434e-01  9.8745191746124639e-01  9.8344135645890851e-01  9.7678089748539598e-01  9.6377769968378557e-01  9.3196585926019349e-01  8.4560089502559610e-01  7.0270488777685103e-01  5.5740779795024686e-01  4.4586660408460554e-01  3.8975317882867511e-01  3.9622961664685918e-01  4.7146498221771943e-01  6.1890144234264388e-01  7.9988620502343621e-01  9.1856119594224317e-01  9.5976887753701345e-01  9.7462986183747502e-01  9.8215579690611743e-01  9.8673304949752616e-01  9.8972900736487934e-01  9.9188559782762875e-01  9.9339611362089741e-01  9.8811382522047819e-01  9.9707965501021900e-01  9.9852930465099199e-01  9.9823410608167140e-01  9.9786192440836763e-01  9.9749698853369650e-01  9.9718665961557262e-01  9.9694379833597879e-01  9.9675912259360433e-01  9.9661413120776066e-01  9.9648969020772504e-01  9.9636983364501741e-01  9.9624185274431498e-01  9.9609468843391014e-01  9.9591707635310311e-01  9.9569624964635073e-01  9.9541708056782974e-01  9.9506034526240372e-01  9.9459839491383950e-01  9.9398785886298968e-01  9.9316029352960711e-01  9.9200901035925626e-01  9.9036239638502233e-01  9.8793492846261000e-01  9.8431197734396747e-01  9.7891200087439989e-01  9.7071146627075711e-01  9.5857260930693566e-01  9.4422847982766323e-01  9.3597152532547201e-01  9.4101676902196785e-01  9.5382118250725545e-01  9.6603293575047744e-01  9.7520914967879369e-01  9.8139632598120397e-01  9.8517993251663594e-01  9.8740879346374599e-01  9.8880202782613480e-01  9.8983493780431719e-01  9.9079394811280108e-01  9.9169394299830604e-01  9.8592055575774851e-01  9.9295502655076828e-01  9.9710578167926545e-01  9.9691006345981015e-01  9.9668524023792060e-01  9.9649270900652420e-01  9.9636112594566217e-01  9.9629064395322620e-01  9.9626718326363883e-01  9.9627221841715397e-01  9.9628952420304862e-01  9.9630735156475714e-01  9.9631739975317068e-01  9.9631325327468867e-01  9.9628946665331630e-01  9.9624109698631658e-01  9.9616315736647476e-01  9.9604972593376639e-01  9.9589273597461447e-01  9.9568076824582097e-01  9.9539811428313363e-01  9.9502341703947572e-01  9.9452613167226411e-01  9.9385980451991962e-01  9.9295349085708995e-01  9.9170476280630115e-01  9.8998279160307256e-01  9.8766808211604584e-01  9.8479056738027393e-01  9.8181178239737887e-01  9.7980467035549978e-01  9.7979964033371381e-01  9.8154323136956767e-01  9.8373769105552544e-01  9.8538141248368827e-01  9.8612306466090638e-01  9.8591124294010046e-01  9.8474079905359413e-01  9.8310165979089215e-01  9.8219193851296449e-01  9.8024582283386541e-01  9.6601585487727493e-01  6.1474347213660974e-01  9.8081269090148693e-01  9.8847393134183892e-01  9.9113700722517706e-01  9.9256768114682326e-01  9.9345576772733268e-01  9.9406911697368583e-01  9.9453771233581101e-01  9.9491365158717460e-01  9.9522215513304924e-01  9.9547812900869037e-01  9.9568994346932971e-01  9.9586187728182507e-01  9.9599670244737804e-01  9.9609679376052584e-01  9.9616367626359803e-01  9.9619732968695884e-01  9.9619596406684607e-01  9.9615603528237096e-01  9.9607199739783014e-01  9.9593541797698948e-01  9.9573323030537941e-01  9.9544515240027165e-01  9.9504047224596093e-01  9.9447399941288084e-01  9.9368054522553628e-01  9.9256936136317286e-01  9.9102994620515483e-01  9.8898905502698031e-01  9.8659828600366439e-01  9.8448741509485760e-01  9.8339665961588674e-01  9.8306110598232510e-01  9.8227454372178380e-01  9.7983675664197478e-01  9.7511042003051285e-01  9.6446625356538085e-01  9.2773231426624370e-01  7.4334151891176026e-01  3.9061236222814044e-01  3.0433824921778757e-01  2.4974989119191847e-02  3.1170805292088870e-02  4.2780367218719739e-01  8.3263448414261942e-01  9.5516185002662468e-01  9.7646236228598060e-01  9.8374016892215566e-01  9.8753918836239440e-01  9.8995369080278139e-01  9.9158638690138734e-01  9.9273959468497242e-01  9.9358971789860162e-01  9.9423286771848929e-01  9.9472798831533205e-01  9.9511437319075247e-01  9.9541728905919702e-01  9.9565179517786750e-01  9.9582677173975731e-01  9.9594750782609243e-01  9.9601613362259767e-01  9.9603087033179849e-01  9.9598493454231596e-01  9.9586505039598616e-01  9.9564895601886461e-01  9.9530072643733225e-01  9.9476160882876741e-01  9.9393204910326394e-01  9.9263730524506455e-01  9.9057189427205483e-01  9.8726837787705457e-01  9.8244890512674565e-01  9.7701330726937374e-01  9.7213437591344276e-01  9.6563427408888214e-01  9.4841525153984541e-01  8.6805829303202153e-01  5.8786036155620547e-01  2.8706818069842926e-01  6.6674410849011656e-02  1.8420299150675157e-02  2.6722435622644140e-02  2.3521257844344570e-02  1.2677444717104311e-02  1.9116518272419138e-02  5.4404791709757497e-02  2.1941767648981525e-01  4.5761617975744240e-01  6.8864595095302894e-01  8.6365745258320903e-01  9.4423459681782973e-01  9.6904145237213257e-01  9.7901700713228501e-01  9.8444245774307881e-01  9.8790484913398091e-01  9.9021584160374665e-01  9.9180753630715068e-01  9.9294145199399408e-01  9.9377000610912181e-01  9.9438412206602367e-01  9.9484158693253766e-01  9.9517816982799190e-01  9.9541329411149604e-01  9.9555402864743836e-01  9.9559687590004953e-01  9.9552679477712991e-01  9.9531250398694282e-01  9.9489477910497726e-01  9.9415838792833322e-01  9.9285871599265296e-01  9.9040678600747145e-01  9.8510567524367598e-01  9.7295659605227858e-01  9.4592236763676329e-01  8.9322534661860675e-01  7.6063607448190418e-01  5.3419796654152918e-01  2.3539160800866432e-01  5.5908012945880464e-02  2.0921689025306195e-02  1.4704425700975540e-02  1.2633802031589687e-02  2.3590520590798410e-02  2.3646333152725463e-02  1.2321426462311042e-02  1.2966739951667004e-02  1.4166938795540047e-02  1.7061038673157791e-02  2.3339992893359411e-02  4.3372139770688059e-02  1.1329158860823950e-01  2.4215662300814481e-01  4.0584548662644976e-01  6.0194866612562470e-01  7.9250281769276687e-01  9.0814106638641257e-01  9.5563822894156414e-01  9.7320570684623375e-01  9.8133280335800777e-01  9.8604341761744352e-01  9.8907319763899082e-01  9.9107729808228340e-01  9.9243176572561742e-01  9.9336402255451051e-01  9.9400007466453733e-01  9.9440526194689727e-01  9.9460498977158784e-01  9.9459152185740440e-01  9.9431624540257035e-01  9.9365589473067784e-01  9.9230337043994765e-01  9.8936012406414264e-01  9.8119639604023623e-01  9.4993518418835932e-01  7.3160646212056757e-01  4.4011091753861992e-01  2.1092770933534932e-01  5.5440619312598798e-02  2.1722466294507130e-02  1.5482809908108738e-02  1.3199816531623743e-02  1.2200845425312612e-02  1.1911123884170666e-02  2.3386282951281562e-02  2.3752732123145954e-02  1.2372529707731747e-02  1.2663351519419861e-02  1.2904481964193994e-02  1.3113267023033854e-02  1.3419376738844559e-02  1.4037852526070710e-02  1.5258757501944815e-02  1.7440935650664728e-02  2.1969625972462957e-02  3.3797077856505812e-02  7.0629442852065433e-02  1.6462936237113404e-01  3.0700307206559652e-01  4.8050574792115769e-01  6.8602541166571784e-01  8.5369996067726883e-01  9.3863216206739863e-01  9.6772031304437256e-01  9.7899408121465759e-01  9.8485614777627917e-01  9.8838481174061843e-01  9.9053666569954701e-01  9.9181242051710983e-01  9.9248118188325718e-01  9.9264159073025149e-01  9.9224452093766013e-01  9.9100295209271372e-01  9.8793671335307520e-01  9.7898240207402376e-01  9.3004303152254753e-01  6.0286580267798240e-01  2.1676791502659379e-01  3.6941214043013634e-02  1.8352458086333189e-02  1.4333293913131508e-02  1.2897116329601482e-02  1.2325970580637677e-02  1.2011163631839112e-02  1.1874045168327860e-02  2.3355456876371899e-02  2.3782655930505742e-02  1.2413902530141121e-02  1.2603124737543450e-02  1.2714861957810308e-02  1.2807311569582759e-02  1.2873783278785730e-02  1.2904828377673070e-02  1.2919184285270814e-02  1.2982803572131217e-02  1.3170242393533408e-02  1.3573945894482988e-02  1.4398431947891917e-02  1.5934865053490326e-02  1.8814338175668733e-02  2.5661987292737932e-02  4.6234179579790563e-02  1.1275868307383148e-01  2.4664333486818624e-01  4.2101957373514581e-01  6.4102684031391977e-01  8.3920224492134332e-01  9.3697277434171478e-01  9.6808539334897892e-01  9.7955619370960489e-01  9.8505649135436912e-01  9.8778430566726749e-01  9.8879956979851069e-01  9.8844287810277265e-01  9.8627964502482346e-01  9.8002040577636051e-01  9.5885219838495783e-01  8.2281922317205913e-01  4.7287237029408857e-01  8.5190836385974897e-02  1.7922610395733306e-02  1.3615880048405736e-02  1.2740528603934967e-02  1.2304146097191007e-02  1.2048086332046301e-02  1.1914628314742893e-02  2.3378362614599475e-02  2.3771202978969654e-02  1.2396853128908591e-02  1.2539958337336458e-02  1.2599055182224818e-02  1.2651749695777141e-02  1.2690610027131295e-02  1.2711399270443091e-02  1.2718855997921052e-02  1.2723986587555133e-02  1.2732247536387570e-02  1.2738204015114064e-02  1.2741267490866667e-02  1.2770313030196706e-02  1.2889692562636385e-02  1.3183568572292083e-02  1.3804808211287241e-02  1.5061785688396355e-02  1.7491243939631456e-02  2.3322089227798364e-02  4.2597161003502144e-02  1.1739673805436734e-01  2.8250456060775542e-01  4.8896663665837475e-01  7.5070190775561640e-01  9.1515527235566074e-01  9.6313094950276568e-01  9.7720542053701609e-01  9.8233607599829165e-01  9.8351063414945461e-01  9.8177191092104144e-01  9.7513133079708492e-01  9.5058518099345413e-01  7.7350678689946029e-01  3.4535618393156414e-01  3.4475110506111004e-02  1.4458863018665905e-02  1.2847121631701409e-02  1.2417371006710068e-02  1.2177960958388856e-02  1.2024860950873174e-02  2.3454166328411626e-02  2.3740239554371219e-02  1.2355304755993893e-02  1.2473659952011431e-02  1.2507783285846726e-02  1.2539112621379404e-02  1.2565919795337731e-02  1.2585545165966055e-02  1.2598398645976585e-02  1.260695556