<?xml version="1.0"?>
<VTKFile type="UnstructuredGrid"  version="0.1"  >
<UnstructuredGrid>
<Piece  NumberOfPoints="1681" NumberOfCells="3200">
<Points>
<DataArray  type="Float64"  NumberOfComponents="3"  format="ascii">0 0 0  0.025 0 0  0.05 0 0  0.075 0 0  0.1 0 0  0.125 0 0  0.15 0 0  0.175 0 0  0.2 0 0  0.225 0 0  0.25 0 0  0.275 0 0  0.3 0 0  0.325 0 0  0.35 0 0  0.375 0 0  0.4 0 0  0.425 0 0  0.45 0 0  0.475 0 0  0.5 0 0  0.525 0 0  0.55 0 0  0.575 0 0  0.6 0 0  0.625 0 0  0.65 0 0  0.675 0 0  0.7 0 0  0.725 0 0  0.75 0 0  0.775 0 0  0.8 0 0  0.825 0 0  0.85 0 0  0.875 0 0  0.9 0 0  0.925 0 0  0.95 0 0  0.975 0 0  1 0 0  0 0.025 0  0.025 0.025 0  0.05 0.025 0  0.075 0.025 0  0.1 0.025 0  0.125 0.025 0  0.15 0.025 0  0.175 0.025 0  0.2 0.025 0  0.225 0.025 0  0.25 0.025 0  0.275 0.025 0  0.3 0.025 0  0.325 0.025 0  0.35 0.025 0  0.375 0.025 0  0.4 0.025 0  0.425 0.025 0  0.45 0.025 0  0.475 0.025 0  0.5 0.025 0  0.525 0.025 0  0.55 0.025 0  0.575 0.025 0  0.6 0.025 0  0.625 0.025 0  0.65 0.025 0  0.675 0.025 0  0.7 0.025 0  0.725 0.025 0  0.75 0.025 0  0.775 0.025 0  0.8 0.025 0  0.825 0.025 0  0.85 0.025 0  0.875 0.025 0  0.9 0.025 0  0.925 0.025 0  0.95 0.025 0  0.975 0.025 0  1 0.025 0  0 0.05 0  0.025 0.05 0  0.05 0.05 0  0.075 0.05 0  0.1 0.05 0  0.125 0.05 0  0.15 0.05 0  0.175 0.05 0  0.2 0.05 0  0.225 0.05 0  0.25 0.05 0  0.275 0.05 0  0.3 0.05 0  0.325 0.05 0  0.35 0.05 0  0.375 0.05 0  0.4 0.05 0  0.425 0.05 0  0.45 0.05 0  0.475 0.05 0  0.5 0.05 0  0.525 0.05 0  0.55 0.05 0  0.575 0.05 0  0.6 0.05 0  0.625 0.05 0  0.65 0.05 0  0.675 0.05 0  0.7 0.05 0  0.725 0.05 0  0.75 0.05 0  0.775 0.05 0  0.8 0.05 0  0.825 0.05 0  0.85 0.05 0  0.875 0.05 0  0.9 0.05 0  0.925 0.05 0  0.95 0.05 0  0.975 0.05 0  1 0.05 0  0 0.075 0  0.025 0.075 0  0.05 0.075 0  0.075 0.075 0  0.1 0.075 0  0.125 0.075 0  0.15 0.075 0  0.175 0.075 0  0.2 0.075 0  0.225 0.075 0  0.25 0.075 0  0.275 0.075 0  0.3 0.075 0  0.325 0.075 0  0.35 0.075 0  0.375 0.075 0  0.4 0.075 0  0.425 0.075 0  0.45 0.075 0  0.475 0.075 0  0.5 0.075 0  0.525 0.075 0  0.55 0.075 0  0.575 0.075 0  0.6 0.075 0  0.625 0.075 0  0.65 0.075 0  0.675 0.075 0  0.7 0.075 0  0.725 0.075 0  0.75 0.075 0  0.775 0.075 0  0.8 0.075 0  0.825 0.075 0  0.85 0.075 0  0.875 0.075 0  0.9 0.075 0  0.925 0.075 0  0.95 0.075 0  0.975 0.075 0  1 0.075 0  0 0.1 0  0.025 0.1 0  0.05 0.1 0  0.075 0.1 0  0.1 0.1 0  0.125 0.1 0  0.15 0.1 0  0.175 0.1 0  0.2 0.1 0  0.225 0.1 0  0.25 0.1 0  0.275 0.1 0  0.3 0.1 0  0.325 0.1 0  0.35 0.1 0  0.375 0.1 0  0.4 0.1 0  0.425 0.1 0  0.45 0.1 0  0.475 0.1 0  0.5 0.1 0  0.525 0.1 0  0.55 0.1 0  0.575 0.1 0  0.6 0.1 0  0.625 0.1 0  0.65 0.1 0  0.675 0.1 0  0.7 0.1 0  0.725 0.1 0  0.75 0.1 0  0.775 0.1 0  0.8 0.1 0  0.825 0.1 0  0.85 0.1 0  0.875 0.1 0  0.9 0.1 0  0.925 0.1 0  0.95 0.1 0  0.975 0.1 0  1 0.1 0  0 0.125 0  0.025 0.125 0  0.05 0.125 0  0.075 0.125 0  0.1 0.125 0  0.125 0.125 0  0.15 0.125 0  0.175 0.125 0  0.2 0.125 0  0.225 0.125 0  0.25 0.125 0  0.275 0.125 0  0.3 0.125 0  0.325 0.125 0  0.35 0.125 0  0.375 0.125 0  0.4 0.125 0  0.425 0.125 0  0.45 0.125 0  0.475 0.125 0  0.5 0.125 0  0.525 0.125 0  0.55 0.125 0  0.575 0.125 0  0.6 0.125 0  0.625 0.125 0  0.65 0.125 0  0.675 0.125 0  0.7 0.125 0  0.725 0.125 0  0.75 0.125 0  0.775 0.125 0  0.8 0.125 0  0.825 0.125 0  0.85 0.125 0  0.875 0.125 0  0.9 0.125 0  0.925 0.125 0  0.95 0.125 0  0.975 0.125 0  1 0.125 0  0 0.15 0  0.025 0.15 0  0.05 0.15 0  0.075 0.15 0  0.1 0.15 0  0.125 0.15 0  0.15 0.15 0  0.175 0.15 0  0.2 0.15 0  0.225 0.15 0  0.25 0.15 0  0.275 0.15 0  0.3 0.15 0  0.325 0.15 0  0.35 0.15 0  0.375 0.15 0  0.4 0.15 0  0.425 0.15 0  0.45 0.15 0  0.475 0.15 0  0.5 0.15 0  0.525 0.15 0  0.55 0.15 0  0.575 0.15 0  0.6 0.15 0  0.625 0.15 0  0.65 0.15 0  0.675 0.15 0  0.7 0.15 0  0.725 0.15 0  0.75 0.15 0  0.775 0.15 0  0.8 0.15 0  0.825 0.15 0  0.85 0.15 0  0.875 0.15 0  0.9 0.15 0  0.925 0.15 0  0.95 0.15 0  0.975 0.15 0  1 0.15 0  0 0.175 0  0.025 0.175 0  0.05 0.175 0  0.075 0.175 0  0.1 0.175 0  0.125 0.175 0  0.15 0.175 0  0.175 0.175 0  0.2 0.175 0  0.225 0.175 0  0.25 0.175 0  0.275 0.175 0  0.3 0.175 0  0.325 0.175 0  0.35 0.175 0  0.375 0.175 0  0.4 0.175 0  0.425 0.175 0  0.45 0.175 0  0.475 0.175 0  0.5 0.175 0  0.525 0.175 0  0.55 0.175 0  0.575 0.175 0  0.6 0.175 0  0.625 0.175 0  0.65 0.175 0  0.675 0.175 0  0.7 0.175 0  0.725 0.175 0  0.75 0.175 0  0.775 0.175 0  0.8 0.175 0  0.825 0.175 0  0.85 0.175 0  0.875 0.175 0  0.9 0.175 0  0.925 0.175 0  0.95 0.175 0  0.975 0.175 0  1 0.175 0  0 0.2 0  0.025 0.2 0  0.05 0.2 0  0.075 0.2 0  0.1 0.2 0  0.125 0.2 0  0.15 0.2 0  0.175 0.2 0  0.2 0.2 0  0.225 0.2 0  0.25 0.2 0  0.275 0.2 0  0.3 0.2 0  0.325 0.2 0  0.35 0.2 0  0.375 0.2 0  0.4 0.2 0  0.425 0.2 0  0.45 0.2 0  0.475 0.2 0  0.5 0.2 0  0.525 0.2 0  0.55 0.2 0  0.575 0.2 0  0.6 0.2 0  0.625 0.2 0  0.65 0.2 0  0.675 0.2 0  0.7 0.2 0  0.725 0.2 0  0.75 0.2 0  0.775 0.2 0  0.8 0.2 0  0.825 0.2 0  0.85 0.2 0  0.875 0.2 0  0.9 0.2 0  0.925 0.2 0  0.95 0.2 0  0.975 0.2 0  1 0.2 0  0 0.225 0  0.025 0.225 0  0.05 0.225 0  0.075 0.225 0  0.1 0.225 0  0.125 0.225 0  0.15 0.225 0  0.175 0.225 0  0.2 0.225 0  0.225 0.225 0  0.25 0.225 0  0.275 0.225 0  0.3 0.225 0  0.325 0.225 0  0.35 0.225 0  0.375 0.225 0  0.4 0.225 0  0.425 0.225 0  0.45 0.225 0  0.475 0.225 0  0.5 0.225 0  0.525 0.225 0  0.55 0.225 0  0.575 0.225 0  0.6 0.225 0  0.625 0.225 0  0.65 0.225 0  0.675 0.225 0  0.7 0.225 0  0.725 0.225 0  0.75 0.225 0  0.775 0.225 0  0.8 0.225 0  0.825 0.225 0  0.85 0.225 0  0.875 0.225 0  0.9 0.225 0  0.925 0.225 0  0.95 0.225 0  0.975 0.225 0  1 0.225 0  0 0.25 0  0.025 0.25 0  0.05 0.25 0  0.075 0.25 0  0.1 0.25 0  0.125 0.25 0  0.15 0.25 0  0.175 0.25 0  0.2 0.25 0  0.225 0.25 0  0.25 0.25 0  0.275 0.25 0  0.3 0.25 0  0.325 0.25 0  0.35 0.25 0  0.375 0.25 0  0.4 0.25 0  0.425 0.25 0  0.45 0.25 0  0.475 0.25 0  0.5 0.25 0  0.525 0.25 0  0.55 0.25 0  0.575 0.25 0  0.6 0.25 0  0.625 0.25 0  0.65 0.25 0  0.675 0.25 0  0.7 0.25 0  0.725 0.25 0  0.75 0.25 0  0.775 0.25 0  0.8 0.25 0  0.825 0.25 0  0.85 0.25 0  0.875 0.25 0  0.9 0.25 0  0.925 0.25 0  0.95 0.25 0  0.975 0.25 0  1 0.25 0  0 0.275 0  0.025 0.275 0  0.05 0.275 0  0.075 0.275 0  0.1 0.275 0  0.125 0.275 0  0.15 0.275 0  0.175 0.275 0  0.2 0.275 0  0.225 0.275 0  0.25 0.275 0  0.275 0.275 0  0.3 0.275 0  0.325 0.275 0  0.35 0.275 0  0.375 0.275 0  0.4 0.275 0  0.425 0.275 0  0.45 0.275 0  0.475 0.275 0  0.5 0.275 0  0.525 0.275 0  0.55 0.275 0  0.575 0.275 0  0.6 0.275 0  0.625 0.275 0  0.65 0.275 0  0.675 0.275 0  0.7 0.275 0  0.725 0.275 0  0.75 0.275 0  0.775 0.275 0  0.8 0.275 0  0.825 0.275 0  0.85 0.275 0  0.875 0.275 0  0.9 0.275 0  0.925 0.275 0  0.95 0.275 0  0.975 0.275 0  1 0.275 0  0 0.3 0  0.025 0.3 0  0.05 0.3 0  0.075 0.3 0  0.1 0.3 0  0.125 0.3 0  0.15 0.3 0  0.175 0.3 0  0.2 0.3 0  0.225 0.3 0  0.25 0.3 0  0.275 0.3 0  0.3 0.3 0  0.325 0.3 0  0.35 0.3 0  0.375 0.3 0  0.4 0.3 0  0.425 0.3 0  0.45 0.3 0  0.475 0.3 0  0.5 0.3 0  0.525 0.3 0  0.55 0.3 0  0.575 0.3 0  0.6 0.3 0  0.625 0.3 0  0.65 0.3 0  0.675 0.3 0  0.7 0.3 0  0.725 0.3 0  0.75 0.3 0  0.775 0.3 0  0.8 0.3 0  0.825 0.3 0  0.85 0.3 0  0.875 0.3 0  0.9 0.3 0  0.925 0.3 0  0.95 0.3 0  0.975 0.3 0  1 0.3 0  0 0.325 0  0.025 0.325 0  0.05 0.325 0  0.075 0.325 0  0.1 0.325 0  0.125 0.325 0  0.15 0.325 0  0.175 0.325 0  0.2 0.325 0  0.225 0.325 0  0.25 0.325 0  0.275 0.325 0  0.3 0.325 0  0.325 0.325 0  0.35 0.325 0  0.375 0.325 0  0.4 0.325 0  0.425 0.325 0  0.45 0.325 0  0.475 0.325 0  0.5 0.325 0  0.525 0.325 0  0.55 0.325 0  0.575 0.325 0  0.6 0.325 0  0.625 0.325 0  0.65 0.325 0  0.675 0.325 0  0.7 0.325 0  0.725 0.325 0  0.75 0.325 0  0.775 0.325 0  0.8 0.325 0  0.825 0.325 0  0.85 0.325 0  0.875 0.325 0  0.9 0.325 0  0.925 0.325 0  0.95 0.325 0  0.975 0.325 0  1 0.325 0  0 0.35 0  0.025 0.35 0  0.05 0.35 0  0.075 0.35 0  0.1 0.35 0  0.125 0.35 0  0.15 0.35 0  0.175 0.35 0  0.2 0.35 0  0.225 0.35 0  0.25 0.35 0  0.275 0.35 0  0.3 0.35 0  0.325 0.35 0  0.35 0.35 0  0.375 0.35 0  0.4 0.35 0  0.425 0.35 0  0.45 0.35 0  0.475 0.35 0  0.5 0.35 0  0.525 0.35 0  0.55 0.35 0  0.575 0.35 0  0.6 0.35 0  0.625 0.35 0  0.65 0.35 0  0.675 0.35 0  0.7 0.35 0  0.725 0.35 0  0.75 0.35 0  0.775 0.35 0  0.8 0.35 0  0.825 0.35 0  0.85 0.35 0  0.875 0.35 0  0.9 0.35 0  0.925 0.35 0  0.95 0.35 0  0.975 0.35 0  1 0.35 0  0 0.375 0  0.025 0.375 0  0.05 0.375 0  0.075 0.375 0  0.1 0.375 0  0.125 0.375 0  0.15 0.375 0  0.175 0.375 0  0.2 0.375 0  0.225 0.375 0  0.25 0.375 0  0.275 0.375 0  0.3 0.375 0  0.325 0.375 0  0.35 0.375 0  0.375 0.375 0  0.4 0.375 0  0.425 0.375 0  0.45 0.375 0  0.475 0.375 0  0.5 0.375 0  0.525 0.375 0  0.55 0.375 0  0.575 0.375 0  0.6 0.375 0  0.625 0.375 0  0.65 0.375 0  0.675 0.375 0  0.7 0.375 0  0.725 0.375 0  0.75 0.375 0  0.775 0.375 0  0.8 0.375 0  0.825 0.375 0  0.85 0.375 0  0.875 0.375 0  0.9 0.375 0  0.925 0.375 0  0.95 0.375 0  0.975 0.375 0  1 0.375 0  0 0.4 0  0.025 0.4 0  0.05 0.4 0  0.075 0.4 0  0.1 0.4 0  0.125 0.4 0  0.15 0.4 0  0.175 0.4 0  0.2 0.4 0  0.225 0.4 0  0.25 0.4 0  0.275 0.4 0  0.3 0.4 0  0.325 0.4 0  0.35 0.4 0  0.375 0.4 0  0.4 0.4 0  0.425 0.4 0  0.45 0.4 0  0.475 0.4 0  0.5 0.4 0  0.525 0.4 0  0.55 0.4 0  0.575 0.4 0  0.6 0.4 0  0.625 0.4 0  0.65 0.4 0  0.675 0.4 0  0.7 0.4 0  0.725 0.4 0  0.75 0.4 0  0.775 0.4 0  0.8 0.4 0  0.825 0.4 0  0.85 0.4 0  0.875 0.4 0  0.9 0.4 0  0.925 0.4 0  0.95 0.4 0  0.975 0.4 0  1 0.4 0  0 0.425 0  0.025 0.425 0  0.05 0.425 0  0.075 0.425 0  0.1 0.425 0  0.125 0.425 0  0.15 0.425 0  0.175 0.425 0  0.2 0.425 0  0.225 0.425 0  0.25 0.425 0  0.275 0.425 0  0.3 0.425 0  0.325 0.425 0  0.35 0.425 0  0.375 0.425 0  0.4 0.425 0  0.425 0.425 0  0.45 0.425 0  0.475 0.425 0  0.5 0.425 0  0.525 0.425 0  0.55 0.425 0  0.575 0.425 0  0.6 0.425 0  0.625 0.425 0  0.65 0.425 0  0.675 0.425 0  0.7 0.425 0  0.725 0.425 0  0.75 0.425 0  0.775 0.425 0  0.8 0.425 0  0.825 0.425 0  0.85 0.425 0  0.875 0.425 0  0.9 0.425 0  0.925 0.425 0  0.95 0.425 0  0.975 0.425 0  1 0.425 0  0 0.45 0  0.02
[...]
<PointData  Scalars="ControlVisualisation"> 
<DataArray  type="Float64"  Name="ControlVisualisation"  format="ascii">5.2491318273288810e-05  3.5002393385186975e-05  3.5015092731708349e-05  3.5014508722483207e-05  3.5001875848977118e-05  3.4993564648377502e-05  3.5004250893392154e-05  3.5033596670908009e-05  3.5069366591606219e-05  3.5099693451121934e-05  3.5120147279107444e-05  3.5132928990895659e-05  3.5143242608501199e-05  3.5156906461155445e-05  3.5176580168005458e-05  3.5198243528064153e-05  3.5212745628036366e-05  3.5217075861635474e-05  3.5218007513039013e-05  3.5222404295668581e-05  3.5230004573634562e-05  3.5236878828318874e-05  3.5241018612959342e-05  3.5243532940018710e-05  3.5246197576709639e-05  3.5249236696895232e-05  3.5251134067968578e-05  3.5249634960548998e-05  3.5242705328992937e-05  3.5229041016481536e-05  3.5208182398093996e-05  3.5180373557015153e-05  3.5146482404408837e-05  3.5108317505050439e-05  3.5069338596031339e-05  3.5034866739760967e-05  3.5010132441596398e-05  3.4997022784711418e-05  3.4992558196698451e-05  3.4991787789653963e-05  1.0484576648319471e-04  3.5008092605188194e-05  1.7509182441489333e-05  1.7520896178573904e-05  1.7522675028480523e-05  1.7511758787407394e-05  1.7503971419382066e-05  1.7516528917652670e-05  1.7550404537077894e-05  1.7591780005287097e-05  1.7626339508173779e-05  1.7648283203572563e-05  1.7659838764941537e-05  1.7667311264809617e-05  1.7678199568187499e-05  1.7696366769506484e-05  1.7723982082623909e-05  1.7743210387959850e-05  1.7746565998714500e-05  1.7744962749006830e-05  1.7748959522115103e-05  1.7758641934261696e-05  1.7767730056716985e-05  1.7772598009251444e-05  1.7774986529071836e-05  1.7777870204939109e-05  1.7781932730759207e-05  1.7785419780931387e-05  1.7785604706645733e-05  1.7779992186728394e-05  1.7766936886059719e-05  1.7745803451724477e-05  1.7716783402710654e-05  1.7680659796782449e-05  1.7638969931435037e-05  1.7594800657477134e-05  1.7553350682748133e-05  1.7520799222105409e-05  1.7501282555880563e-05  1.7493216001430653e-05  1.7491270288010668e-05  3.4991748784229544e-05  3.5092430439319037e-05  1.7571009037414804e-05  1.7564581341995999e-05  1.7561437094983055e-05  1.7637260953101054e-05  1.7930561186240564e-05  1.8409053440421189e-05  1.8867459033915087e-05  1.9096595062031098e-05  1.9043301931788396e-05  1.8789499844273162e-05  1.8462770573212129e-05  1.8167802395376153e-05  1.7961598637897404e-05  1.7856259216868554e-05  1.7849834611428971e-05  1.7839024325449766e-05  1.7805810436336181e-05  1.7780736500376429e-05  1.7781403642666540e-05  1.7801928083091123e-05  1.7816810503935865e-05  1.7818300209021384e-05  1.7816227756153977e-05  1.7818727614056399e-05  1.7826052096167829e-05  1.7833950118198456e-05  1.7837769019523549e-05  1.7834202743493857e-05  1.7821513932582205e-05  1.7799446516140851e-05  1.7768845389886638e-05  1.7730797250654798e-05  1.7686282166004700e-05  1.7636952756057627e-05  1.7586626810056398e-05  1.7542620847522680e-05  1.7512304451693763e-05  1.7496872232287583e-05  1.7491394532450017e-05  3.4991520556701156e-05  3.5469532390288534e-05  1.7802826099030108e-05  1.7947758675364329e-05  1.9057477734677895e-05  2.1006532629706564e-05  2.6597198862817316e-05  4.1478429324644972e-05  8.5823017896344598e-05  2.4442192565023234e-04  2.6899790202265740e-04  1.1081906222491295e-04  5.7749534933550518e-05  3.7949257309894459e-05  2.8784510415532889e-05  2.4019600933393489e-05  2.1591360406664938e-05  1.9692969088177463e-05  1.8479842908810550e-05  1.8033924019096150e-05  1.7891116626567042e-05  1.7885731401452575e-05  1.7873563840012650e-05  1.7841747129106040e-05  1.7819611087340100e-05  1.7819000160082976e-05  1.7832407497448228e-05  1.7848497674230083e-05  1.7858913083631657e-05  1.7860688298239613e-05  1.7852199283156652e-05  1.7834073119058269e-05  1.7809255634255746e-05  1.7780007142548206e-05  1.7746122386782948e-05  1.7704802392796397e-05  1.7654880031275951e-05  1.7600485682835002e-05  1.7549288329558462e-05  1.7516016981032872e-05  1.7496004582093006e-05  3.4991819610173937e-05  3.6881107614202551e-05  1.8601143692516287e-05  2.1054762798917779e-05  7.2499864896654172e-05  2.6755851491191990e-01  5.6307084764608772e-01  7.9370187410871851e-01  9.4083012297922364e-01  9.9337833396528252e-01  9.8148589284550647e-01  9.0389624781219702e-01  7.8124511988726042e-01  6.2856468682451283e-01  4.5934219488062755e-01  2.8626523642324297e-01  1.2883625004905500e-01  9.6870484646024851e-03  5.6925556686586722e-05  3.0249730676804249e-05  2.3884038276011189e-05  2.1202279021754409e-05  1.9423215209226159e-05  1.8449467153273102e-05  1.8105981992305719e-05  1.7980089906545513e-05  1.7945781499648007e-05  1.7944022234565463e-05  1.7949502814730953e-05  1.7960208820941263e-05  1.7973450235846824e-05  1.7999310783131077e-05  1.8061563791868807e-05  1.8182932145536665e-05  1.8360091694154298e-05  1.8520633236342108e-05  1.8511602217939761e-05  1.8199465669507291e-05  1.7782369130840877e-05  1.7589780101907134e-05  1.7579081852688685e-05  3.5011277635344423e-05  3.7791221069804557e-05  2.4711150949151302e-05  3.1506085245249132e-01  9.9991753820714491e-01  9.9997973670055107e-01  9.9998670759465702e-01  9.9998863040849773e-01  9.9998917720018299e-01  9.9998902535777834e-01  9.9998829412869661e-01  9.9998691375193216e-01  9.9998469848608829e-01  9.9998112535294537e-01  9.9997485533058117e-01  9.9996149823735769e-01  9.9991527506074063e-01  9.8091448895349509e-01  7.1634646421263981e-01  4.7367159803276015e-01  2.6243338940395100e-01  1.0000019455252702e-01  5.2889714369494739e-04  4.8655387974925462e-05  3.0132880504235182e-05  2.4901225349136603e-05  2.2532002499499902e-05  2.1309232342640348e-05  2.0715707198386434e-05  2.0659377654568787e-05  2.1034549440853406e-05  2.1881482186673920e-05  2.3499023422497984e-05  2.6339516070113089e-05  3.1093037046825170e-05  3.7944196422617417e-05  4.2881609104501935e-05  3.7360115641406900e-05  2.7463173665031884e-05  2.1076167327913752e-05  1.8519915998115832e-05  3.6315672067249658e-05  1.4295617664784681e-04  9.9991879847226850e-01  9.9999096381024499e-01  9.9999466094800260e-01  9.9999557873056888e-01  9.9999601254001524e-01  9.9999611866963534e-01  9.9999605769026767e-01  9.9999587984780292e-01  9.9999559232958535e-01  9.9999518473051696e-01  9.9999463461222082e-01  9.9999390243897623e-01  9.9999291709708993e-01  9.9999154354872644e-01  9.9998950789764618e-01  9.9998626076217423e-01  9.9998134720560006e-01  9.9997331683391799e-01  9.9995422401894596e-01  9.9986564560086633e-01  8.9806957662714970e-01  6.6058158952366997e-01  4.5749126819080371e-01  2.9863977375161316e-01  1.8057681799274050e-01  1.0595304413717133e-01  6.0242695933360561e-02  4.7038472801474614e-02  7.5979021646528103e-02  1.3209569257878104e-01  2.2300458192203162e-01  3.4586958700824011e-01  4.8324817971336992e-01  6.1299019236655150e-01  7.0384455327395790e-01  7.1610934183524133e-01  6.1600212488558370e-01  3.4260123187715047e-01  4.3652071076481297e-05  3.8091360505398386e-05  9.9999588600983680e-01  9.9999777301105264e-01  9.9999818443577759e-01  9.9999829954702613e-01  9.9999826328198749e-01  9.9999815754744781e-01  9.9999801503025942e-01  9.9999785111720063e-01  9.9999766998873985e-01  9.9999746912793863e-01  9.9999724286700620e-01  9.9999698404467896e-01  9.9999668344886816e-01  9.9999632742878530e-01  9.9999589429267610e-01  9.9999535018781915e-01  9.9999464572482155e-01  9.9999371264733450e-01  9.9999245235429535e-01  9.9999069639844207e-01  9.9998811087984019e-01  9.9998427307031834e-01  9.9997887652671824e-01  9.9997072428652278e-01  9.9995586104376510e-01  9.9992363301863196e-01  9.9983229467683266e-01  9.9959549686374194e-01  9.9799866994692876e-01  9.9962510572014840e-01  9.9986682433696250e-01  9.9993606346111175e-01  9.9996166178448542e-01  9.9997370133094765e-01  9.9998023562912008e-01  9.9998410921659486e-01  9.9998650570234893e-01  9.9998788768214486e-01  9.9998810617066225e-01  9.9998504411496880e-01  9.9948135133647265e-01  9.9999909380385321e-01  9.9999942969057409e-01  9.9999933953333875e-01  9.9999920871474512e-01  9.9999905561329538e-01  9.9999889049333657e-01  9.9999872190733408e-01  9.9999855541869154e-01  9.9999839273887303e-01  9.9999823250593156e-01  9.9999807145460196e-01  9.9999790543713818e-01  9.9999772962715816e-01  9.9999753803800184e-01  9.9999732285510257e-01  9.9999707413439243e-01  9.9999678016688187e-01  9.9999642793813281e-01  9.9999600207220785e-01  9.9999548140640859e-01  9.9999483504499198e-01  9.9999402178952024e-01  9.9999299759040661e-01  9.9999172841678630e-01  9.9999020560771967e-01  9.9998847408527658e-01  9.9998668943009139e-01  9.9998517588546654e-01  9.9998440227704810e-01  9.9998466504941075e-01  9.9998590657131425e-01  9.9998774505054533e-01  9.9998970243966756e-01  9.9999149233076223e-01  9.9999301355054759e-01  9.9999427685722175e-01  9.9999533374334570e-01  9.9999622782724185e-01  9.9999696297591123e-01  9.9999749660581294e-01  9.9999408579784710e-01  9.9999949571768698e-01  9.9999970265799309e-01  9.9999961634357037e-01  9.9999949252712494e-01  9.9999934496367027e-01  9.9999918593357007e-01  9.9999902612409952e-01  9.9999887250725961e-01  9.9999872833896308e-01  9.9999859378613021e-01  9.9999846696067662e-01  9.9999834488910988e-01  9.9999822402396632e-01  9.9999810036863002e-01  9.9999796945571251e-01  9.9999782642086155e-01  9.9999766622095276e-01  9.9999748375510034e-01  9.9999727355357593e-01  9.9999702911751076e-01  9.9999674266654093e-01  9.9999640620206764e-01  9.9999601391151738e-01  9.9999556488790908e-01  9.9999506594034238e-01  9.9999453581224929e-01  9.9999401209343630e-01  9.9999355775201260e-01  9.9999325656420479e-01  9.9999318854598207e-01  9.9999339251918040e-01  9.9999384340747188e-01  9.9999446552599958e-01  9.9999517120821779e-01  9.9999589361069863e-01  9.9999659578845679e-01  9.9999725959088337e-01  9.9999786554170822e-01  9.9999837649791912e-01  9.9999873410696505e-01  9.9999754773753657e-01  9.9999955568250387e-01  9.9999975586306122e-01  9.9999968080075807e-01  9.9999956949129210e-01  9.9999943373719891e-01  9.9999928666759763e-01  9.9999913970419407e-01  9.9999900059327940e-01  9.9999887330812176e-01  9.9999875862664145e-01  9.9999865520445241e-01  9.9999856052485969e-01  9.9999847152288579e-01  9.9999838490749959e-01  9.9999829730939949e-01  9.9999820538065076e-01  9.9999810587385662e-01  9.9999799563597569e-01  9.9999787146265828e-01  9.9999772990633740e-01  9.9999756728028222e-01  9.9999738003907046e-01  9.9999716545600315e-01  9.9999692240265292e-01  9.9999665233028001e-01  9.9999636104013778e-01  9.9999606175372280e-01  9.9999577875081180e-01  9.9999554892554698e-01  9.9999541734710762e-01  9.9999542436985400e-01  9.9999558858483961e-01  9.9999589716153514e-01  9.9999631257877419e-01  9.9999679063375957e-01  9.9999729488041322e-01  9.9999779817717038e-01  9.9999827173179334e-01  9.9999867527230113e-01  9.9999895966731811e-01  9.9999812134489863e-01  9.9999942784375284e-01  9.9999971151506950e-01  9.9999963578811146e-01  9.9999952596781294e-01  9.9999939638905921e-01  9.9999925987555116e-01  9.9999912671363200e-01  9.9999900375529516e-01  9.9999889433975664e-01  9.9999879894336330e-01  9.9999871616642744e-01  9.9999864357234503e-01  9.9999857828391603e-01  9.9999851732596490e-01  9.9999845779600727e-01  9.9999839694074666e-01  9.9999833217126155e-01  9.9999826101584377e-01  9.9999818101680560e-01  9.9999808962135117e-01  9.9999798414364993e-01  9.9999786183957684e-01  9.9999772007101473e-01  9.9999755654573863e-01  9.9999736976531173e-01  9.9999716000715977e-01  9.9999693120035416e-01  9.9999669378684486e-01  9.9999646792939900e-01  9.9999628502235149e-01  9.9999618393829337e-01  9.9999619932945061e-01  9.9999634564615902e-01  9.9999660872071394e-01  9.9999695370279351e-01  9.9999734283909814e-01  9.9999774672476271e-01  9.9999814017047983e-01  9.9999849341776303e-01  9.9999875809224381e-01  9.9999786998041773e-01  9.9999872162938919e-01  9.9999947609873441e-01  9.9999941329092290e-01  9.9999931869406411e-01  9.9999920830313160e-01  9.9999909450530455e-01  9.9999898612403504e-01  9.9999888863877062e-01  9.9999880445290723e-01  9.9999873362864977e-01  9.9999867469244108e-01  9.9999862533355310e-01  9.9999858291165167e-01  9.9999854475729733e-01  9.9999850832282122e-01  9.9999847123455865e-01  9.9999843127940846e-01  9.9999838634274452e-01  9.9999833431386431e-01  9.9999827298354982e-01  9.9999819995843109e-01  9.9999811260041427e-01  9.9999800798455185e-01  9.9999788289042202e-01  9.9999773391742253e-01  9.9999755792393386e-01  9.9999735310564886e-01  9.9999712111932026e-01  9.9999687058563014e-01  9.9999662160084046e-01  9.9999640878066320e-01  9.9999627706414240e-01  9.9999626481642512e-01  9.9999638041416639e-01  9.9999659347840664e-01  9.9999685355307610e-01  9.9999711584579531e-01  9.9999735163065051e-01  9.9999754032405874e-01  9.9999763258392427e-01  9.9999608728401246e-01  9.9998895744142202e-01  9.9999797661613488e-01  9.9999853165146368e-01  9.9999868872944231e-01  9.9999871563070719e-01  9.9999869390864771e-01  9.9999865508344143e-01  9.9999861373060506e-01  9.9999857657036728e-01  9.9999854610077454e-01  9.9999852244350285e-01  9.9999850445812655e-01  9.9999849041477107e-01  9.9999847837989242e-01  9.9999846641665757e-01  9.9999845266371645e-01  9.9999843533471899e-01  9.9999841266665090e-01  9.9999838283651410e-01  9.9999834385939812e-01  9.9999829347402835e-01  9.9999822901205315e-01  9.9999814724092251e-01  9.9999804417940585e-01  9.9999791491732337e-01  9.9999775353222597e-01  9.9999755330655804e-01  9.9999730766553063e-01  9.9999701263185359e-01  9.9999667199038855e-01  9.9999630582492149e-01  9.9999595879996239e-01  9.9999569465134619e-01  9.9999555950930785e-01  9.9999552967401328e-01  9.9999550152638239e-01  9.9999532106498346e-01  9.9999476030720447e-01  9.9999380663274240e-01  9.9998996808641871e-01  9.9997594925508593e-01  4.1195263074656800e-05  9.9971151539867475e-01  9.9999292744079571e-01  9.9999640728004258e-01  9.9999736328243660e-01  9.9999775170026994e-01  9.9999794343382653e-01  9.9999805194199620e-01  9.9999812156641643e-01  9.9999817199202079e-01  9.9999821232451058e-01  9.9999824663733528e-01  9.9999827647545325e-01  9.9999830209043317e-01  9.9999832307589531e-01  9.9999833868259791e-01  9.9999834794760201e-01  9.9999834972123636e-01  9.9999834263565435e-01  9.9999832502939823e-01  9.9999829483064939e-01  9.9999824939213011e-01  9.9999818525743123e-01  9.9999809782837612e-01  9.9999798089777669e-01  9.9999782601056553e-01  9.9999762163350137e-01  9.9999735221285158e-01  9.9999699754309079e-01  9.9999653388741483e-01  9.9999594054934970e-01  9.9999521841167616e-01  9.9999442028266528e-01  9.9999364540025537e-01  9.9999289459980101e-01  9.9999181309637508e-01  9.9998963204917690e-01  9.9998467544998693e-01  9.9995270564180505e-01  2.3200028288207533e-01  5.1032491150117981e-05  3.8945490898534652e-05  2.9837285938154667e-05  7.3648584848167908e-01  9.9998153954351787e-01  9.9999217980976296e-01  9.9999506278722783e-01  9.9999621845810260e-01  9.9999682108648502e-01  9.9999718747326150e-01  9.9999743528006901e-01  9.9999761648594132e-01  9.9999775660046875e-01  9.9999786901865928e-01  9.9999796104706384e-01  9.9999803675512478e-01  9.9999809838484921e-01  9.9999814702885015e-01  9.9999818297762244e-01  9.9999820589257005e-01  9.9999821484526552e-01  9.9999820825474772e-01  9.9999818373615090e-01  9.9999813783299840e-01  9.9999806557129467e-01  9.9999795973292693e-01  9.9999780966482976e-01  9.9999759928201415e-01  9.9999730362608985e-01  9.9999688279265453e-01  9.9999627117879408e-01  9.9999535908087644e-01  9.9999396722047207e-01  9.9999183722795504e-01  9.9998870184151778e-01  9.9998446718271383e-01  9.9997826445706539e-01  9.9995656774770159e-01  7.9615039846771885e-01  6.7301682496316670e-02  2.2458634047322381e-05  3.7046190123562832e-05  3.5413714135088915e-05  1.8642692160651028e-05  5.0336429299440222e-05  4.3115914752823775e-01  9.9991482751254834e-01  9.9998066027648203e-01  9.9998995249032596e-01  9.9999329966931683e-01  9.9999487095596784e-01  9.9999577384856597e-01  9.9999635915937746e-01  9.9999677046425772e-01  9.9999707626891499e-01  9.9999731244350221e-01  9.9999749932293880e-01  9.9999764910426792e-01  9.9999776919248828e-01  9.9999786403483726e-01  9.9999793615706511e-01  9.9999798664102091e-01  9.9999801530545906e-01  9.9999802071339394e-01  9.9999799997734984e-01  9.9999794828306388e-01  9.9999785799250840e-01  9.9999771702096929e-01  9.9999750582015523e-01  9.9999719146534982e-01  9.9999671520284117e-01  9.9999596364921239e-01  9.9999469313285194e-01  9.9999229462310679e-01  9.9998683526117371e-01  9.9997257692872055e-01  9.9992132269538525e-01  8.6472708467819259e-01  3.8610950041641107e-01  1.2663062057616877e-04  2.2555681433143247e-05  1.8166296525537403e-05  3.5101139787000715e-05  3.5052649676172508e-05  1.7643856860052774e-05  1.8160472905498089e-05  2.8644482986082795e-05  9.7700244680090295e-02  5.7191680310887882e-01  9.9987277739831681e-01  9.9997158666103936e-01  9.9998515014901856e-01  9.9999033376390123e-01  9.9999288379538098e-01  9.9999434121982234e-01  9.9999528054479048e-01  9.9999593291889965e-01  9.9999640997771755e-01  9.9999677165880874e-01  9.9999705183601617e-01  9.9999727073591316e-01  9.9999744100864674e-01  9.9999757042513293e-01  9.9999766328645934e-01  9.9999772126084407e-01  9.9999774366090710e-01  9.9999772718380686e-01  9.9999766507703547e-01  9.9999754540291341e-01  9.9999734756040559e-01  9.9999703504607984e-01  9.9999653914366504e-01  9.9999571748846383e-01  9.9999422848835451e-01  9.9999102876321944e-01  9.9998091050243465e-01  9.9988630402026424e-01  5.3695331835324078e-01  1.1193268547772182e-01  3.9610153722193722e-05  2.1585839857515308e-05  1.8191571896695510e-05  1.7534466269272716e-05  3.5034702317534496e-05  3.5002461982236579e-05  1.7534675682032581e-05  1.7657601415001984e-05  1.7942098025594103e-05  2.0487521668678255e-05  3.9910998079498622e-05  8.3062599438428975e-02  4.2506807830771243e-01  8.6684311611693299e-01  9.9993321710665539e-01  9.9997336256539093e-01  9.9998412820710203e-01  9.9998923010199703e-01  9.9999199767231872e-01  9.9999364967880089e-01  9.9999473962524510e-01  9.9999550355615108e-01  9.9999606013034370e-01  9.9999647583852613e-01  9.9999678926680791e-01  9.9999702312549121e-01  9.9999719097685313e-01  9.9999730026293343e-01  9.9999735340336571e-01  9.9999734786421857e-01  9.9999727507872260e-01  9.9999711752279186e-01  9.9999684219098495e-01  9.9999638573807759e-01  9.9999561715087515e-01  9.9999422736790566e-01  9.9999130471576669e-01  9.9998265869468916e-01  9.9990235814206585e-01  5.2286969152882179e-01  5.4147158935401229e-02  2.4921212034147802e-05  1.8360999394729171e-05  1.7726617128681361e-05  1.7598678618280053e-05  3.5068034494873236e-05  3.5032869202134245e-05  1.7544672420493669e-05  1.7617716652857854e-05  1.7719496949600144e-05  1.7842975313943807e-05  1.8207040239775264e-05  2.0469989094623814e-05  3.0312503114082991e-05  1.5264383593921791e-04  1.8132554037678961e-01  4.8540539425804974e-01  8.5594883662846155e-01  9.9991280545664785e-01  9.9996803179504135e-01  9.9998116210118881e-01  9.9998739128826630e-01  9.9999088282201953e-01  9.9999290880960257e-01  9.9999421412606049e-01  9.9999510695837579e-01  9.9999573720659052e-01  9.9999618706147009e-01  9.9999650368751436e-01  9.9999671373629750e-01  9.9999683078053647e-01  9.9999685821740125e-01  9.9999678910626388e-01  9.9999660278224400e-01  9.9999625582088658e-01  9.9999566024210351e-01  9.9999462658678540e-01  9.9999268646592177e-01  9.9998833875240101e-01  9.9997280320962501e-01  9.9869824090220749e-01  4.1136143690463378e-01  5.5858547503588669e-05  1.8978043031801555e-05  1.7856944528386937e-05  1.7698191756269885e-05  3.5143598983293587e-05  3.5063751009740954e-05  1.7574030007972965e-05  1.7621317136961413e-05  1.7680275202527007e-05  1.7745197052562886e-05  1.7804036663547782e-05  1.7871776805698954e-05  1.8073608826863830e-05  1.906920227