<?xml version="1.0"?>
<VTKFile type="UnstructuredGrid"  version="0.1"  >
<UnstructuredGrid>
<Piece  NumberOfPoints="1681" NumberOfCells="3200">
<Points>
<DataArray  type="Float64"  NumberOfComponents="3"  format="ascii">0 0 0  0.025 0 0  0.05 0 0  0.075 0 0  0.1 0 0  0.125 0 0  0.15 0 0  0.175 0 0  0.2 0 0  0.225 0 0  0.25 0 0  0.275 0 0  0.3 0 0  0.325 0 0  0.35 0 0  0.375 0 0  0.4 0 0  0.425 0 0  0.45 0 0  0.475 0 0  0.5 0 0  0.525 0 0  0.55 0 0  0.575 0 0  0.6 0 0  0.625 0 0  0.65 0 0  0.675 0 0  0.7 0 0  0.725 0 0  0.75 0 0  0.775 0 0  0.8 0 0  0.825 0 0  0.85 0 0  0.875 0 0  0.9 0 0  0.925 0 0  0.95 0 0  0.975 0 0  1 0 0  0 0.025 0  0.025 0.025 0  0.05 0.025 0  0.075 0.025 0  0.1 0.025 0  0.125 0.025 0  0.15 0.025 0  0.175 0.025 0  0.2 0.025 0  0.225 0.025 0  0.25 0.025 0  0.275 0.025 0  0.3 0.025 0  0.325 0.025 0  0.35 0.025 0  0.375 0.025 0  0.4 0.025 0  0.425 0.025 0  0.45 0.025 0  0.475 0.025 0  0.5 0.025 0  0.525 0.025 0  0.55 0.025 0  0.575 0.025 0  0.6 0.025 0  0.625 0.025 0  0.65 0.025 0  0.675 0.025 0  0.7 0.025 0  0.725 0.025 0  0.75 0.025 0  0.775 0.025 0  0.8 0.025 0  0.825 0.025 0  0.85 0.025 0  0.875 0.025 0  0.9 0.025 0  0.925 0.025 0  0.95 0.025 0  0.975 0.025 0  1 0.025 0  0 0.05 0  0.025 0.05 0  0.05 0.05 0  0.075 0.05 0  0.1 0.05 0  0.125 0.05 0  0.15 0.05 0  0.175 0.05 0  0.2 0.05 0  0.225 0.05 0  0.25 0.05 0  0.275 0.05 0  0.3 0.05 0  0.325 0.05 0  0.35 0.05 0  0.375 0.05 0  0.4 0.05 0  0.425 0.05 0  0.45 0.05 0  0.475 0.05 0  0.5 0.05 0  0.525 0.05 0  0.55 0.05 0  0.575 0.05 0  0.6 0.05 0  0.625 0.05 0  0.65 0.05 0  0.675 0.05 0  0.7 0.05 0  0.725 0.05 0  0.75 0.05 0  0.775 0.05 0  0.8 0.05 0  0.825 0.05 0  0.85 0.05 0  0.875 0.05 0  0.9 0.05 0  0.925 0.05 0  0.95 0.05 0  0.975 0.05 0  1 0.05 0  0 0.075 0  0.025 0.075 0  0.05 0.075 0  0.075 0.075 0  0.1 0.075 0  0.125 0.075 0  0.15 0.075 0  0.175 0.075 0  0.2 0.075 0  0.225 0.075 0  0.25 0.075 0  0.275 0.075 0  0.3 0.075 0  0.325 0.075 0  0.35 0.075 0  0.375 0.075 0  0.4 0.075 0  0.425 0.075 0  0.45 0.075 0  0.475 0.075 0  0.5 0.075 0  0.525 0.075 0  0.55 0.075 0  0.575 0.075 0  0.6 0.075 0  0.625 0.075 0  0.65 0.075 0  0.675 0.075 0  0.7 0.075 0  0.725 0.075 0  0.75 0.075 0  0.775 0.075 0  0.8 0.075 0  0.825 0.075 0  0.85 0.075 0  0.875 0.075 0  0.9 0.075 0  0.925 0.075 0  0.95 0.075 0  0.975 0.075 0  1 0.075 0  0 0.1 0  0.025 0.1 0  0.05 0.1 0  0.075 0.1 0  0.1 0.1 0  0.125 0.1 0  0.15 0.1 0  0.175 0.1 0  0.2 0.1 0  0.225 0.1 0  0.25 0.1 0  0.275 0.1 0  0.3 0.1 0  0.325 0.1 0  0.35 0.1 0  0.375 0.1 0  0.4 0.1 0  0.425 0.1 0  0.45 0.1 0  0.475 0.1 0  0.5 0.1 0  0.525 0.1 0  0.55 0.1 0  0.575 0.1 0  0.6 0.1 0  0.625 0.1 0  0.65 0.1 0  0.675 0.1 0  0.7 0.1 0  0.725 0.1 0  0.75 0.1 0  0.775 0.1 0  0.8 0.1 0  0.825 0.1 0  0.85 0.1 0  0.875 0.1 0  0.9 0.1 0  0.925 0.1 0  0.95 0.1 0  0.975 0.1 0  1 0.1 0  0 0.125 0  0.025 0.125 0  0.05 0.125 0  0.075 0.125 0  0.1 0.125 0  0.125 0.125 0  0.15 0.125 0  0.175 0.125 0  0.2 0.125 0  0.225 0.125 0  0.25 0.125 0  0.275 0.125 0  0.3 0.125 0  0.325 0.125 0  0.35 0.125 0  0.375 0.125 0  0.4 0.125 0  0.425 0.125 0  0.45 0.125 0  0.475 0.125 0  0.5 0.125 0  0.525 0.125 0  0.55 0.125 0  0.575 0.125 0  0.6 0.125 0  0.625 0.125 0  0.65 0.125 0  0.675 0.125 0  0.7 0.125 0  0.725 0.125 0  0.75 0.125 0  0.775 0.125 0  0.8 0.125 0  0.825 0.125 0  0.85 0.125 0  0.875 0.125 0  0.9 0.125 0  0.925 0.125 0  0.95 0.125 0  0.975 0.125 0  1 0.125 0  0 0.15 0  0.025 0.15 0  0.05 0.15 0  0.075 0.15 0  0.1 0.15 0  0.125 0.15 0  0.15 0.15 0  0.175 0.15 0  0.2 0.15 0  0.225 0.15 0  0.25 0.15 0  0.275 0.15 0  0.3 0.15 0  0.325 0.15 0  0.35 0.15 0  0.375 0.15 0  0.4 0.15 0  0.425 0.15 0  0.45 0.15 0  0.475 0.15 0  0.5 0.15 0  0.525 0.15 0  0.55 0.15 0  0.575 0.15 0  0.6 0.15 0  0.625 0.15 0  0.65 0.15 0  0.675 0.15 0  0.7 0.15 0  0.725 0.15 0  0.75 0.15 0  0.775 0.15 0  0.8 0.15 0  0.825 0.15 0  0.85 0.15 0  0.875 0.15 0  0.9 0.15 0  0.925 0.15 0  0.95 0.15 0  0.975 0.15 0  1 0.15 0  0 0.175 0  0.025 0.175 0  0.05 0.175 0  0.075 0.175 0  0.1 0.175 0  0.125 0.175 0  0.15 0.175 0  0.175 0.175 0  0.2 0.175 0  0.225 0.175 0  0.25 0.175 0  0.275 0.175 0  0.3 0.175 0  0.325 0.175 0  0.35 0.175 0  0.375 0.175 0  0.4 0.175 0  0.425 0.175 0  0.45 0.175 0  0.475 0.175 0  0.5 0.175 0  0.525 0.175 0  0.55 0.175 0  0.575 0.175 0  0.6 0.175 0  0.625 0.175 0  0.65 0.175 0  0.675 0.175 0  0.7 0.175 0  0.725 0.175 0  0.75 0.175 0  0.775 0.175 0  0.8 0.175 0  0.825 0.175 0  0.85 0.175 0  0.875 0.175 0  0.9 0.175 0  0.925 0.175 0  0.95 0.175 0  0.975 0.175 0  1 0.175 0  0 0.2 0  0.025 0.2 0  0.05 0.2 0  0.075 0.2 0  0.1 0.2 0  0.125 0.2 0  0.15 0.2 0  0.175 0.2 0  0.2 0.2 0  0.225 0.2 0  0.25 0.2 0  0.275 0.2 0  0.3 0.2 0  0.325 0.2 0  0.35 0.2 0  0.375 0.2 0  0.4 0.2 0  0.425 0.2 0  0.45 0.2 0  0.475 0.2 0  0.5 0.2 0  0.525 0.2 0  0.55 0.2 0  0.575 0.2 0  0.6 0.2 0  0.625 0.2 0  0.65 0.2 0  0.675 0.2 0  0.7 0.2 0  0.725 0.2 0  0.75 0.2 0  0.775 0.2 0  0.8 0.2 0  0.825 0.2 0  0.85 0.2 0  0.875 0.2 0  0.9 0.2 0  0.925 0.2 0  0.95 0.2 0  0.975 0.2 0  1 0.2 0  0 0.225 0  0.025 0.225 0  0.05 0.225 0  0.075 0.225 0  0.1 0.225 0  0.125 0.225 0  0.15 0.225 0  0.175 0.225 0  0.2 0.225 0  0.225 0.225 0  0.25 0.225 0  0.275 0.225 0  0.3 0.225 0  0.325 0.225 0  0.35 0.225 0  0.375 0.225 0  0.4 0.225 0  0.425 0.225 0  0.45 0.225 0  0.475 0.225 0  0.5 0.225 0  0.525 0.225 0  0.55 0.225 0  0.575 0.225 0  0.6 0.225 0  0.625 0.225 0  0.65 0.225 0  0.675 0.225 0  0.7 0.225 0  0.725 0.225 0  0.75 0.225 0  0.775 0.225 0  0.8 0.225 0  0.825 0.225 0  0.85 0.225 0  0.875 0.225 0  0.9 0.225 0  0.925 0.225 0  0.95 0.225 0  0.975 0.225 0  1 0.225 0  0 0.25 0  0.025 0.25 0  0.05 0.25 0  0.075 0.25 0  0.1 0.25 0  0.125 0.25 0  0.15 0.25 0  0.175 0.25 0  0.2 0.25 0  0.225 0.25 0  0.25 0.25 0  0.275 0.25 0  0.3 0.25 0  0.325 0.25 0  0.35 0.25 0  0.375 0.25 0  0.4 0.25 0  0.425 0.25 0  0.45 0.25 0  0.475 0.25 0  0.5 0.25 0  0.525 0.25 0  0.55 0.25 0  0.575 0.25 0  0.6 0.25 0  0.625 0.25 0  0.65 0.25 0  0.675 0.25 0  0.7 0.25 0  0.725 0.25 0  0.75 0.25 0  0.775 0.25 0  0.8 0.25 0  0.825 0.25 0  0.85 0.25 0  0.875 0.25 0  0.9 0.25 0  0.925 0.25 0  0.95 0.25 0  0.975 0.25 0  1 0.25 0  0 0.275 0  0.025 0.275 0  0.05 0.275 0  0.075 0.275 0  0.1 0.275 0  0.125 0.275 0  0.15 0.275 0  0.175 0.275 0  0.2 0.275 0  0.225 0.275 0  0.25 0.275 0  0.275 0.275 0  0.3 0.275 0  0.325 0.275 0  0.35 0.275 0  0.375 0.275 0  0.4 0.275 0  0.425 0.275 0  0.45 0.275 0  0.475 0.275 0  0.5 0.275 0  0.525 0.275 0  0.55 0.275 0  0.575 0.275 0  0.6 0.275 0  0.625 0.275 0  0.65 0.275 0  0.675 0.275 0  0.7 0.275 0  0.725 0.275 0  0.75 0.275 0  0.775 0.275 0  0.8 0.275 0  0.825 0.275 0  0.85 0.275 0  0.875 0.275 0  0.9 0.275 0  0.925 0.275 0  0.95 0.275 0  0.975 0.275 0  1 0.275 0  0 0.3 0  0.025 0.3 0  0.05 0.3 0  0.075 0.3 0  0.1 0.3 0  0.125 0.3 0  0.15 0.3 0  0.175 0.3 0  0.2 0.3 0  0.225 0.3 0  0.25 0.3 0  0.275 0.3 0  0.3 0.3 0  0.325 0.3 0  0.35 0.3 0  0.375 0.3 0  0.4 0.3 0  0.425 0.3 0  0.45 0.3 0  0.475 0.3 0  0.5 0.3 0  0.525 0.3 0  0.55 0.3 0  0.575 0.3 0  0.6 0.3 0  0.625 0.3 0  0.65 0.3 0  0.675 0.3 0  0.7 0.3 0  0.725 0.3 0  0.75 0.3 0  0.775 0.3 0  0.8 0.3 0  0.825 0.3 0  0.85 0.3 0  0.875 0.3 0  0.9 0.3 0  0.925 0.3 0  0.95 0.3 0  0.975 0.3 0  1 0.3 0  0 0.325 0  0.025 0.325 0  0.05 0.325 0  0.075 0.325 0  0.1 0.325 0  0.125 0.325 0  0.15 0.325 0  0.175 0.325 0  0.2 0.325 0  0.225 0.325 0  0.25 0.325 0  0.275 0.325 0  0.3 0.325 0  0.325 0.325 0  0.35 0.325 0  0.375 0.325 0  0.4 0.325 0  0.425 0.325 0  0.45 0.325 0  0.475 0.325 0  0.5 0.325 0  0.525 0.325 0  0.55 0.325 0  0.575 0.325 0  0.6 0.325 0  0.625 0.325 0  0.65 0.325 0  0.675 0.325 0  0.7 0.325 0  0.725 0.325 0  0.75 0.325 0  0.775 0.325 0  0.8 0.325 0  0.825 0.325 0  0.85 0.325 0  0.875 0.325 0  0.9 0.325 0  0.925 0.325 0  0.95 0.325 0  0.975 0.325 0  1 0.325 0  0 0.35 0  0.025 0.35 0  0.05 0.35 0  0.075 0.35 0  0.1 0.35 0  0.125 0.35 0  0.15 0.35 0  0.175 0.35 0  0.2 0.35 0  0.225 0.35 0  0.25 0.35 0  0.275 0.35 0  0.3 0.35 0  0.325 0.35 0  0.35 0.35 0  0.375 0.35 0  0.4 0.35 0  0.425 0.35 0  0.45 0.35 0  0.475 0.35 0  0.5 0.35 0  0.525 0.35 0  0.55 0.35 0  0.575 0.35 0  0.6 0.35 0  0.625 0.35 0  0.65 0.35 0  0.675 0.35 0  0.7 0.35 0  0.725 0.35 0  0.75 0.35 0  0.775 0.35 0  0.8 0.35 0  0.825 0.35 0  0.85 0.35 0  0.875 0.35 0  0.9 0.35 0  0.925 0.35 0  0.95 0.35 0  0.975 0.35 0  1 0.35 0  0 0.375 0  0.025 0.375 0  0.05 0.375 0  0.075 0.375 0  0.1 0.375 0  0.125 0.375 0  0.15 0.375 0  0.175 0.375 0  0.2 0.375 0  0.225 0.375 0  0.25 0.375 0  0.275 0.375 0  0.3 0.375 0  0.325 0.375 0  0.35 0.375 0  0.375 0.375 0  0.4 0.375 0  0.425 0.375 0  0.45 0.375 0  0.475 0.375 0  0.5 0.375 0  0.525 0.375 0  0.55 0.375 0  0.575 0.375 0  0.6 0.375 0  0.625 0.375 0  0.65 0.375 0  0.675 0.375 0  0.7 0.375 0  0.725 0.375 0  0.75 0.375 0  0.775 0.375 0  0.8 0.375 0  0.825 0.375 0  0.85 0.375 0  0.875 0.375 0  0.9 0.375 0  0.925 0.375 0  0.95 0.375 0  0.975 0.375 0  1 0.375 0  0 0.4 0  0.025 0.4 0  0.05 0.4 0  0.075 0.4 0  0.1 0.4 0  0.125 0.4 0  0.15 0.4 0  0.175 0.4 0  0.2 0.4 0  0.225 0.4 0  0.25 0.4 0  0.275 0.4 0  0.3 0.4 0  0.325 0.4 0  0.35 0.4 0  0.375 0.4 0  0.4 0.4 0  0.425 0.4 0  0.45 0.4 0  0.475 0.4 0  0.5 0.4 0  0.525 0.4 0  0.55 0.4 0  0.575 0.4 0  0.6 0.4 0  0.625 0.4 0  0.65 0.4 0  0.675 0.4 0  0.7 0.4 0  0.725 0.4 0  0.75 0.4 0  0.775 0.4 0  0.8 0.4 0  0.825 0.4 0  0.85 0.4 0  0.875 0.4 0  0.9 0.4 0  0.925 0.4 0  0.95 0.4 0  0.975 0.4 0  1 0.4 0  0 0.425 0  0.025 0.425 0  0.05 0.425 0  0.075 0.425 0  0.1 0.425 0  0.125 0.425 0  0.15 0.425 0  0.175 0.425 0  0.2 0.425 0  0.225 0.425 0  0.25 0.425 0  0.275 0.425 0  0.3 0.425 0  0.325 0.425 0  0.35 0.425 0  0.375 0.425 0  0.4 0.425 0  0.425 0.425 0  0.45 0.425 0  0.475 0.425 0  0.5 0.425 0  0.525 0.425 0  0.55 0.425 0  0.575 0.425 0  0.6 0.425 0  0.625 0.425 0  0.65 0.425 0  0.675 0.425 0  0.7 0.425 0  0.725 0.425 0  0.75 0.425 0  0.775 0.425 0  0.8 0.425 0  0.825 0.425 0  0.85 0.425 0  0.875 0.425 0  0.9 0.425 0  0.925 0.425 0  0.95 0.425 0  0.975 0.425 0  1 0.425 0  0 0.45 0  0.02
[...]
<PointData  Scalars="ControlVisualisation"> 
<DataArray  type="Float64"  Name="ControlVisualisation"  format="ascii">8.8181441314824117e-03  5.8978816499567184e-03  5.8998130764233376e-03  5.8995476478808156e-03  5.8975171894297016e-03  5.8964448727425664e-03  5.8984422189609998e-03  5.9032155991069089e-03  5.9089196108256248e-03  5.9139664580510534e-03  5.9177273849724838e-03  5.9204289335973281e-03  5.9228397771871359e-03  5.9257231987573794e-03  5.9291085750664465e-03  5.9320653711334610e-03  5.9336667406721709e-03  5.9341882194708416e-03  5.9347022103410042e-03  5.9357203290129152e-03  5.9369364065562456e-03  5.9379374467972944e-03  5.9387054203875961e-03  5.9394820411070633e-03  5.9403993520481405e-03  5.9413110106956582e-03  5.9418712669375992e-03  5.9416953565920375e-03  5.9404672681704906e-03  5.9379892154348647e-03  5.9342020581435902e-03  5.9291824411163239e-03  5.9231332815712955e-03  5.9164152764278836e-03  5.9096407687800178e-03  5.9036962561695135e-03  5.8994310835338761e-03  5.8971450911262250e-03  5.8963450457335609e-03  5.8961989516626810e-03  1.7475513413011678e-02  5.8988094526226820e-03  2.9599006279818442e-03  2.9617964387025891e-03  2.9618567503613929e-03  2.9599889415867068e-03  2.9589565945323500e-03  2.9613621025343195e-03  2.9670455993224482e-03  2.9738522400996857e-03  2.9797543656404513e-03  2.9838740991601628e-03  2.9864608582908952e-03  2.9885027976979967e-03  2.9911252962354618e-03  2.9948975323644614e-03  2.9987648868201305e-03  3.0007262141003130e-03  3.0010019945930565e-03  3.0013011213245455e-03  3.0024941494543340e-03  3.0040861329073769e-03  3.0053331054196181e-03  3.0061711521546593e-03  3.0070112475492679e-03  3.0081192446585114e-03  3.0093494875873257e-03  3.0102780865582188e-03  3.0104335997753130e-03  3.0094237792460204e-03  3.0069886799404589e-03  3.0030292289190018e-03  2.9976115315738087e-03  2.9909372326777000e-03  2.9833463787191281e-03  2.9754197429211413e-03  2.9680565577722539e-03  2.9622912965672054e-03  2.9588100770203520e-03  2.9573418882748365e-03  2.9569720987953768e-03  5.8961919364919476e-03  5.9123263914256582e-03  2.9701124769658249e-03  2.9694915460877912e-03  2.9682973093775118e-03  2.9793066484755035e-03  3.0227736729168731e-03  3.0922784162360330e-03  3.1554729757410269e-03  3.1865545371940951e-03  3.1803807473829680e-03  3.1453193436907696e-03  3.0988315490943692e-03  3.0576592335107016e-03  3.0311755964079323e-03  3.0207145509562250e-03  3.0184035422377497e-03  3.0145846304811519e-03  3.0097816248394944e-03  3.0076814329096551e-03  3.0094878766996286e-03  3.0123187561259734e-03  3.0136275462950097e-03  3.0138349244662774e-03  3.0144033732467865e-03  3.0159170813342409e-03  3.0179443203985118e-03  3.0196776828441724e-03  3.0204305876232354e-03  3.0197504772865391e-03  3.0173597145914471e-03  3.0131764365090986e-03  3.0073529906097158e-03  3.0001711558385992e-03  2.9919209295095751e-03  2.9829571879935331e-03  2.9739572958904065e-03  2.9661475106619716e-03  2.9607612228919043e-03  2.9579835691088594e-03  2.9569892950519669e-03  5.8961508059555499e-03  5.9727713140300519e-03  3.0079802675094100e-03  3.0260473785656003e-03  3.2041911394299263e-03  3.5213550986568001e-03  4.3319131642497125e-03  6.2224560509951919e-03  9.8529210764760327e-03  1.3729708488221404e-02  1.3533244592929270e-02  1.0247022393430808e-02  7.2861752540245000e-03  5.4598467431426984e-03  4.4344875722040211e-03  3.8625333755550992e-03  3.4930433554360824e-03  3.2290783751852382e-03  3.0915758797918171e-03  3.0402433861703537e-03  3.0272341504691850e-03  3.0242980044656166e-03  3.0199505400940827e-03  3.0156630968604485e-03  3.0144686886684710e-03  3.0163653278137037e-03  3.0197320895150115e-03  3.0227411552561320e-03  3.0244179530104394e-03  3.0246135488024937e-03  3.0230469049315747e-03  3.0196181217541657e-03  3.0146891084971020e-03  3.0088527548978511e-03  3.0023050315398105e-03  2.9946206774380526e-03  2.9856300113505992e-03  2.9759780229258190e-03  2.9669582163115620e-03  2.9610499981785865e-03  2.9575807831815062e-03  5.8961092362639633e-03  6.1895771429697618e-03  3.1366003366015043e-03  3.5111166806807768e-03  9.5114484667765137e-03  2.4968879595887408e-01  5.3901273983099929e-01  7.5344961845525249e-01  8.7597631970252487e-01  9.1397533702856570e-01  8.9748559500363290e-01  8.3202841784976000e-01  7.2205022867570556e-01  5.7224124430961076e-01  3.9933371676180140e-01  2.3938012495719591e-01  1.0508853181098401e-01  1.7086057305308329e-02  6.5829122361014394e-03  4.5325124523571455e-03  3.8198899395491203e-03  3.4234396241029485e-03  3.1883911952185120e-03  3.0865787611146179e-03  3.0489996543341777e-03  3.0368564968903922e-03  3.0352169760327931e-03  3.0361456391298676e-03  3.0373912213960573e-03  3.0395492462644228e-03  3.0417566114537779e-03  3.0449415967156949e-03  3.0524958523104368e-03  3.0692034540329700e-03  3.0954949996519197e-03  3.1202002909536657e-03  3.1198221668297249e-03  3.0721007322062626e-03  3.0058095982015837e-03  2.9735295077271749e-03  2.9705198743571765e-03  5.8987894068359137e-03  6.3391603679814230e-03  4.1169451813601911e-03  2.9943445219578463e-01  9.8469729146068230e-01  9.9635994435383213e-01  9.9764657038321480e-01  9.9798815156548770e-01  9.9808324800639359e-01  9.9804952268069225e-01  9.9790666564231445e-01  9.9763837795690280e-01  9.9720014601017537e-01  9.9647421625011723e-01  9.9513440312631507e-01  9.9201048689152682e-01  9.8000075207318704e-01  8.6972776231022308e-01  6.4050279196467053e-01  4.0244308145469160e-01  2.1281902248957346e-01  7.2291026950498410e-02  1.1743177053491994e-02  5.8875563920027050e-03  4.4596087356215163e-03  3.8853577595611777e-03  3.5980333655839265e-03  3.4449926252071422e-03  3.3780843015296315e-03  3.3888217726996289e-03  3.4573024748186672e-03  3.5899326122901050e-03  3.8234103503256940e-03  4.2259271424803747e-03  4.8915959527732625e-03  5.8164694455736044e-03  6.4994921857879171e-03  5.8775323060705018e-03  4.5279629807462229e-03  3.5279736949974140e-03  3.1142914872032269e-03  6.0977328056535090e-03  2.1065405567780335e-02  9.8558566883331444e-01  9.9842645779763317e-01  9.9907144011256122e-01  9.9922952150020705e-01  9.9930371595628886e-01  9.9932080170397941e-01  9.9930805703604297e-01  9.9927428738740587e-01  9.9922084786197574e-01  9.9914567434756907e-01  9.9904406017467873e-01  9.9890752362578017e-01  9.9872063939032896e-01  9.9845388619990261e-01  9.9804904048208354e-01  9.9742176887445044e-01  9.9644653196383892e-01  9.9465134647676579e-01  9.8980796448881958e-01  9.6215632357547132e-01  7.8970465166507153e-01  5.7802053103475592e-01  3.7847501731063099e-01  2.3971956067374608e-01  1.3071610941939837e-01  7.2314985494078388e-02  3.9553575740065322e-02  3.5014138881624232e-02  5.2261122955374356e-02  9.9279651401182514e-02  1.9738447791733824e-01  3.0999842995182891e-01  4.4812164957672956e-01  5.7709908867326298e-01  6.6790271830423986e-01  6.8730762976546467e-01  5.9896721252549012e-01  3.2560495986848498e-01  6.9273921934878075e-03  6.3812205905520855e-03  9.9928986941632725e-01  9.9961402015047063e-01  9.9968512694735490e-01  9.9970450803823618e-01  9.9969801966347427e-01  9.9967949496546993e-01  9.9965443117585373e-01  9.9962541901023183e-01  9.9959320295941057e-01  9.9955741168708812e-01  9.9951705686762327e-01  9.9947074801111857e-01  9.9941655599062607e-01  9.9935158661736700e-01  9.9927136779365400e-01  9.9916922981866074e-01  9.9903577097260832e-01  9.9885771044756411e-01  9.9861401212653056e-01  9.9826630897509661e-01  9.9774299581597525e-01  9.9698041943810889e-01  9.9587251307220204e-01  9.9398424742557956e-01  9.9015628596000349e-01  9.8055564494177805e-01  9.5387596881244086e-01  9.1465701172882397e-01  9.0060869797373644e-01  9.2739264046405556e-01  9.6899562976358955e-01  9.8671710461308959e-01  9.9268801133194884e-01  9.9519678273294621e-01  9.9647442250914076e-01  9.9720363275250401e-01  9.9764496097662447e-01  9.9789541671660853e-01  9.9793747959619572e-01  9.9743387062073985e-01  9.4261317070404105e-01  9.9984244727300664e-01  9.9990014744855171e-01  9.9988454614976852e-01  9.9986193922386024e-01  9.9983548405322842e-01  9.9980693055087766e-01  9.9977771508965840e-01  9.9974876581704131e-01  9.9972037922853185e-01  9.9969234164615661e-01  9.9966409165153669e-01  9.9963486278946889e-01  9.9960370917260133e-01  9.9956944206358211e-01  9.9953055785210088e-01  9.9948523649609422e-01  9.9943140021775456e-01  9.9936664991097712e-01  9.9928785071686244e-01  9.9919045460081035e-01  9.9906807591176627e-01  9.9891283778885120e-01  9.9871647457799451e-01  9.9847172608379309e-01  9.9817544899120347e-01  9.9783690672301084e-01  9.9749700046299672e-01  9.9723964906432316e-01  9.9713874757981213e-01  9.9721342559438586e-01  9.9744944268702973e-01  9.9779623236520987e-01  9.9816766991927852e-01  9.9850018446968725e-01  9.9877662589407523e-01  9.9900248567104100e-01  9.9918929615211938e-01  9.9934604070135125e-01  9.9947424274355046e-01  9.9956718899986774e-01  9.9898657546490843e-01  9.9991157140501119e-01  9.9994714673806029e-01  9.9993228325224104e-01  9.9991096376649891e-01  9.9988555515652477e-01  9.9985816432051955e-01  9.9983061537900675e-01  9.9980409327327835e-01  9.9977915449774069e-01  9.9975583195044293e-01  9.9973379790292416e-01  9.9971251657552562e-01  9.9969133052267700e-01  9.9966949508732739e-01  9.9964619567636659e-01  9.9962057537672966e-01  9.9959176141799777e-01  9.9955884265308126e-01  9.9952077525491390e-01  9.9947629264983429e-01  9.9942396090292451e-01  9.9936243137219605e-01  9.9929076892590996e-01  9.9920877768327654e-01  9.9911753731707187e-01  9.9902045836036346e-01  9.9892492863752036e-01  9.9884345765621385e-01  9.9879230590062162e-01  9.9878606609721987e-01  9.9883019874074375e-01  9.9891764980885245e-01  9.9903294810376120e-01  9.9916004740575859e-01  9.9928776257535779e-01  9.9941047803245042e-01  9.9952571527753087e-01  9.9963052832466914e-01  9.9971875038878311e-01  9.9978046568775891e-01  9.9957665256679007e-01  9.9992188616274935e-01  9.9995630755048970e-01  9.9994340442498941e-01  9.9992427559461527e-01  9.9990095157794567e-01  9.9987568620186229e-01  9.9985043411478680e-01  9.9982651698503200e-01  9.9980461195838255e-01  9.9978485034703324e-01  9.9976699581681405e-01  9.9975060186447151e-01  9.9973511941353221e-01  9.9971995904384470e-01  9.9970452541271659e-01  9.9968823848562915e-01  9.9967054089881613e-01  9.9965088311575723e-01  9.9962869105603580e-01  9.9960334610352619e-01  9.9957421159813165e-01  9.9954070564667752e-01  9.9950238845347206e-01  9.9945906378275762e-01  9.9941097258876554e-01  9.9935919213864277e-01  9.9930625681147223e-01  9.9925678530133666e-01  9.9921762438605533e-01  9.9919682140842836e-01  9.9920111707956638e-01  9.9923295383003485e-01  9.9928918795672561e-01  9.9936277854832589e-01  9.9944609538401485e-01  9.9953319299326349e-01  9.9961977259530643e-01  9.9970113492929191e-01  9.9977046856658880e-01  9.9981935939391109e-01  9.9967526676450924e-01  9.9989990906584503e-01  9.9994869073959547e-01  9.9993569643931757e-01  9.9991686044000183e-01  9.9989464581910514e-01  9.9987125134275623e-01  9.9984843569858051e-01  9.9982736691271168e-01  9.9980861182465308e-01  9.9979224744805717e-01  9.9977802760013312e-01  9.9976552470367430e-01  9.9975423286364407e-01  9.9974363017458956e-01  9.9973321182282837e-01  9.9972250426756981e-01  9.9971106487639083e-01  9.9969846913328009e-01  9.9968429147884241e-01  9.9966809113197475e-01  9.9964941176502964e-01  9.9962779340652841e-01  9.9960279067145341e-01  9.9957400729317070e-01  9.9954118613938991e-01  9.9950441089509923e-01  9.9946446278020373e-01  9.9942332546970547e-01  9.9938470651883848e-01  9.9935420363531735e-01  9.9933850071304742e-01  9.9934321986176622e-01  9.9937025118190803e-01  9.9941664495583038e-01  9.9947628726428150e-01  9.9954293321020793e-01  9.9961188380822574e-01  9.9967906379613503e-01  9.9973945652822216e-01  9.9978477069170624e-01  9.9963207557126554e-01  9.9977853040174358e-01  9.9990824125382227e-01  9.9989752738511928e-01  9.9988137330842020e-01  9.9986251961375561e-01  9.9984308854083770e-01  9.9982458762512516e-01  9.9980795004417333e-01  9.9979358247710570e-01  9.9978149095340529e-01  9.9977141764414001e-01  9.9976295989458031e-01  9.9975565800367083e-01  9.9974904858711033e-01  9.9974269205947408e-01  9.9973618177616685e-01  9.9972914031393323e-01  9.9972120699228206e-01  9.9971202111082225e-01  9.9970120553342123e-01  9.9968835302136094e-01  9.9967301437417555e-01  9.9965468782994149e-01  9.9963281695982942e-01  9.9960681749623670e-01  9.9957616785944148e-01  9.9954061321304555e-01  9.9950054660829324e-01  9.9945761571968783e-01  9.9941546970279915e-01  9.9938017961202630e-01  9.9935933468445881e-01  9.9935902289660206e-01  9.9938002224783784e-01  9.9941678003105427e-01  9.9946083644282191e-01  9.9950497367403757e-01  9.9954460328678130e-01  9.9957630783649642e-01  9.9959160565474159e-01  9.9932586203656559e-01  9.9810742028119881e-01  9.9965130571406768e-01  9.9974644788709754e-01  9.9977361963209732e-01  9.9977840235907101e-01  9.9977482612088719e-01  9.9976830336140821e-01  9.9976133235944720e-01  9.9975506316073215e-01  9.9974992148747333e-01  9.9974592483564151e-01  9.9974287368035930e-01  9.9974046770263958e-01  9.9973837292177592e-01  9.9973625664553434e-01  9.9973380094012942e-01  9.9973070190637936e-01  9.9972665998430599e-01  9.9972136516964016e-01  9.9971447943952174e-01  9.9970561681550529e-01  9.9969431989194413e-01  9.9968003170546482e-01  9.9966206460380014e-01  9.9963957333332110e-01  9.9961154894628990e-01  9.9957686858224670e-01  9.9953447452898692e-01  9.9948382070899688e-01  9.9942578255756187e-01  9.9936409773207213e-01  9.9930660888044875e-01  9.9926393205941189e-01  9.9924297142877616e-01  9.9923863252177580e-01  9.9923311522021607e-01  9.9920088180777922e-01  9.9910398416448554e-01  9.9893830494618696e-01  9.9827431100355546e-01  9.9587120354490177e-01  6.9300396387869468e-03  9.6575457069167159e-01  9.9879466724005306e-01  9.9938465636079887e-01  9.9954811880442007e-01  9.9961462540560730e-01  9.9964750648067302e-01  9.9966614808480003e-01  9.9967812828919422e-01  9.9968681049706154e-01  9.9969374763177232e-01  9.9969963192551659e-01  9.9970472452165693e-01  9.9970906672985027e-01  9.9971258844048549e-01  9.9971516202996569e-01  9.9971662441928355e-01  9.9971678124409769e-01  9.9971540075972798e-01  9.9971220023507534e-01  9.9970682526331356e-01  9.9969882067999161e-01  9.9968758994620643e-01  9.9967233850666948e-01  9.9965199567761065e-01  9.9962510927193626e-01  9.9958971097115823e-01  9.9954317051273611e-01  9.9948212188678476e-01  9.9940272805361552e-01  9.9930193251140309e-01  9.9918072652138301e-01  9.9904894538779176e-01  9.9892282640549845e-01  9.9879941446845388e-01  9.9861682121992201e-01  9.9824698336910411e-01  9.9739873472936735e-01  9.9206076671931065e-01  2.3013553718621479e-01  8.4885261346529239e-03  6.4719353927564279e-03  4.9233732153780383e-03  7.2777217247569725e-01  9.9688771378231689e-01  9.9867375391440083e-01  9.9916009095844460e-01  9.9935607858984798e-01  9.9945842063008372e-01  9.9952068907939828e-01  9.9956282404573671e-01  9.9959363382388211e-01  9.9961744156880150e-01  9.9963651974700174e-01  9.9965210814293615e-01  9.9966489591899088e-01  9.9967526209371971e-01  9.9968339215316004e-01  9.9968933670838445e-01  9.9969303927581887e-01  9.9969434156355230e-01  9.9969297189855144e-01  9.9968851856204421e-01  9.9968038333115128e-01  9.9966770492904955e-01  9.9964923479736456e-01  9.9962313358553345e-01  9.9958663035620154e-01  9.9953543834897873e-01  9.9946273521212725e-01  9.9935739510304256e-01  9.9920109122341461e-01  9.9896477889760049e-01  9.9860936988426019e-01  9.9810074448683783e-01  9.9742355885714318e-01  9.9640181848328002e-01  9.9285859378813790e-01  7.8658934346416709e-01  7.9580935993748589e-02  3.7808430661068490e-03  6.2079469602558694e-03  5.9622935073521321e-03  3.1398271451098746e-03  7.9870870709162333e-03  4.2593858527809936e-01  9.8686433975227594e-01  9.9679062728224077e-01  9.9831547482078964e-01  9.9887033618867660e-01  9.9913341648143295e-01  9.9928507819955303e-01  9.9938354127312790e-01  9.9945276919987658e-01  9.9950424471794841e-01  9.9954398737741257e-01  9.9957540447168780e-01  9.9960053830782214e-01  9.9962063235365795e-01  9.9963643653830814e-01  9.9964837613084467e-01  9.9965662999886329e-01  9.9966116063161570e-01  9.9966171395942094e-01  9.9965778457187837e-01  9.9964853331944858e-01  9.9963263239603173e-01  9.9960798399762996e-01  9.9957119638171532e-01  9.9951655719925070e-01  9.9943387429724051e-01  9.9930349667577478e-01  9.9908331310158316e-01  9.9866899976961543e-01  9.9774157547930376e-01  9.9543130054148554e-01  9.8832066034301103e-01  8.6147908320274880e-01  3.7593687807496112e-01  1.5912819788700371e-02  3.8065414684115865e-03  3.0662164971987094e-03  5.9137738825316205e-03  5.9056438974227710e-03  2.9816649824684631e-03  3.0716905573858525e-03  4.8294116029818030e-03  1.1481286314100976e-01  5.7410477817796901e-01  9.8258708203672129e-01  9.9540256465289267e-01  9.9755181312146046e-01  9.9839422881975304e-01  9.9881127122187119e-01  9.9905166679324586e-01  9.9920727736623371e-01  9.9931565104889319e-01  9.9939501006679476e-01  9.9945518576382175e-01  9.9950176684527448e-01  9.9953810720828562e-01  9.9956630216350606e-01  9.9958763222639657e-01  9.9960279920863571e-01  9.9961206063544161e-01  9.9961527106560644e-01  9.9961183572098111e-01  9.9960056483869730e-01  9.9957936865683450e-01  9.9954464496453632e-01  9.9949000320819437e-01  9.9940338299136722e-01  9.9925970432182343e-01  9.9899846660000458e-01  9.9843356737499467e-01  9.9664141698630471e-01  9.8066153509959975e-01  5.5237577308907893e-01  1.6078171794857246e-01  6.6618871179362918e-03  3.6338752981832142e-03  3.0696135611527555e-03  2.9642230617527915e-03  5.9030443035529238e-03  5.8980531885646486e-03  2.9644191645026986e-03  2.9857979153656228e-03  3.0367663688184734e-03  3.4847969437708406e-03  6.7580787857554900e-03  9.5682229101166971e-02  4.2875473913836448e-01  8.5528780924936820e-01  9.9015999647231079e-01  9.9574834067599238e-01  9.9742305544577814e-01  9.9823443827479896e-01  9.9867673105287713e-01  9.9894445906398133e-01  9.9912226693277184e-01  9.9924736985300511e-01  9.9933874013323687e-01  9.9940705359615356e-01  9.9945852196754759e-01  9.9949681944700619e-01  9.9952412966855508e-01  9.9954162048300965e-01  9.9954962275051440e-01  9.9954763233219523e-01  9.9953410767976059e-01  9.9950594155639561e-01  9.9945729286561191e-01  9.9937692295958280e-01  9.9924145726288183e-01  9.9899523304113336e-01  9.9847146208131177e-01  9.9688611402910554e-01  9.8183871836972370e-01  5.0766604500922030e-01  5.6592035886604622e-02  4.0863402132055877e-03  3.0990053073479047e-03  2.9946075858971449e-03  2.9744030238947872e-03  5.9083479110236623e-03  5.9033883809161570e-03  2.9665179503980395e-03  2.9792195656872882e-03  2.9968080350592815e-03  3.0187676788635490e-03  3.0869494467192908e-03  3.4944283777264711e-03  5.2315819677137285e-03  2.0586720754825184e-02  1.9127953717308777e-01  4.9461868510071555e-01  8.5066496098279043e-01  9.8819101165643441e-01  9.9503362106705795e-01  9.9699965025566406e-01  9.9796339270339562e-01  9.9850590083517610e-01  9.9882842096507440e-01  9.9903849257733379e-01  9.9918302359772326e-01  9.9928538339273087e-01  9.9935849100246577e-01  9.9940976227339051e-01  9.9944338239259045e-01  9.9946144195556930e-01  9.9946435134550438e-01  9.9945075355653556e-01  9.9941688134594275e-01  9.9935490789786297e-01  9.9924896801986340e-01  9.9906466137920191e-01  9.9871581191959258e-01  9.9791993247898392e-01  9.9504540718765921e-01  9.3485562154476043e-01  3.7848871589423771e-01  7.4653211476243785e-03  3.1851502732009578e-03  3.0176142323358689e-03  2.9910305034715240e-03  5.9204459079421953e-03  5.9085881093419949e-03  2.9716319219770361e-03  2.9799340958726870e-03  2.9900935815641268e-03  3.0012389918369427e-03  3.0114880424187301e-03  3.0242215788147827e-03  3.0636664643340730e-03  3.250928767