<?xml version="1.0"?>
<VTKFile type="UnstructuredGrid"  version="0.1"  >
<UnstructuredGrid>
<Piece  NumberOfPoints="1681" NumberOfCells="3200">
<Points>
<DataArray  type="Float64"  NumberOfComponents="3"  format="ascii">0 0 0  0.025 0 0  0.05 0 0  0.075 0 0  0.1 0 0  0.125 0 0  0.15 0 0  0.175 0 0  0.2 0 0  0.225 0 0  0.25 0 0  0.275 0 0  0.3 0 0  0.325 0 0  0.35 0 0  0.375 0 0  0.4 0 0  0.425 0 0  0.45 0 0  0.475 0 0  0.5 0 0  0.525 0 0  0.55 0 0  0.575 0 0  0.6 0 0  0.625 0 0  0.65 0 0  0.675 0 0  0.7 0 0  0.725 0 0  0.75 0 0  0.775 0 0  0.8 0 0  0.825 0 0  0.85 0 0  0.875 0 0  0.9 0 0  0.925 0 0  0.95 0 0  0.975 0 0  1 0 0  0 0.025 0  0.025 0.025 0  0.05 0.025 0  0.075 0.025 0  0.1 0.025 0  0.125 0.025 0  0.15 0.025 0  0.175 0.025 0  0.2 0.025 0  0.225 0.025 0  0.25 0.025 0  0.275 0.025 0  0.3 0.025 0  0.325 0.025 0  0.35 0.025 0  0.375 0.025 0  0.4 0.025 0  0.425 0.025 0  0.45 0.025 0  0.475 0.025 0  0.5 0.025 0  0.525 0.025 0  0.55 0.025 0  0.575 0.025 0  0.6 0.025 0  0.625 0.025 0  0.65 0.025 0  0.675 0.025 0  0.7 0.025 0  0.725 0.025 0  0.75 0.025 0  0.775 0.025 0  0.8 0.025 0  0.825 0.025 0  0.85 0.025 0  0.875 0.025 0  0.9 0.025 0  0.925 0.025 0  0.95 0.025 0  0.975 0.025 0  1 0.025 0  0 0.05 0  0.025 0.05 0  0.05 0.05 0  0.075 0.05 0  0.1 0.05 0  0.125 0.05 0  0.15 0.05 0  0.175 0.05 0  0.2 0.05 0  0.225 0.05 0  0.25 0.05 0  0.275 0.05 0  0.3 0.05 0  0.325 0.05 0  0.35 0.05 0  0.375 0.05 0  0.4 0.05 0  0.425 0.05 0  0.45 0.05 0  0.475 0.05 0  0.5 0.05 0  0.525 0.05 0  0.55 0.05 0  0.575 0.05 0  0.6 0.05 0  0.625 0.05 0  0.65 0.05 0  0.675 0.05 0  0.7 0.05 0  0.725 0.05 0  0.75 0.05 0  0.775 0.05 0  0.8 0.05 0  0.825 0.05 0  0.85 0.05 0  0.875 0.05 0  0.9 0.05 0  0.925 0.05 0  0.95 0.05 0  0.975 0.05 0  1 0.05 0  0 0.075 0  0.025 0.075 0  0.05 0.075 0  0.075 0.075 0  0.1 0.075 0  0.125 0.075 0  0.15 0.075 0  0.175 0.075 0  0.2 0.075 0  0.225 0.075 0  0.25 0.075 0  0.275 0.075 0  0.3 0.075 0  0.325 0.075 0  0.35 0.075 0  0.375 0.075 0  0.4 0.075 0  0.425 0.075 0  0.45 0.075 0  0.475 0.075 0  0.5 0.075 0  0.525 0.075 0  0.55 0.075 0  0.575 0.075 0  0.6 0.075 0  0.625 0.075 0  0.65 0.075 0  0.675 0.075 0  0.7 0.075 0  0.725 0.075 0  0.75 0.075 0  0.775 0.075 0  0.8 0.075 0  0.825 0.075 0  0.85 0.075 0  0.875 0.075 0  0.9 0.075 0  0.925 0.075 0  0.95 0.075 0  0.975 0.075 0  1 0.075 0  0 0.1 0  0.025 0.1 0  0.05 0.1 0  0.075 0.1 0  0.1 0.1 0  0.125 0.1 0  0.15 0.1 0  0.175 0.1 0  0.2 0.1 0  0.225 0.1 0  0.25 0.1 0  0.275 0.1 0  0.3 0.1 0  0.325 0.1 0  0.35 0.1 0  0.375 0.1 0  0.4 0.1 0  0.425 0.1 0  0.45 0.1 0  0.475 0.1 0  0.5 0.1 0  0.525 0.1 0  0.55 0.1 0  0.575 0.1 0  0.6 0.1 0  0.625 0.1 0  0.65 0.1 0  0.675 0.1 0  0.7 0.1 0  0.725 0.1 0  0.75 0.1 0  0.775 0.1 0  0.8 0.1 0  0.825 0.1 0  0.85 0.1 0  0.875 0.1 0  0.9 0.1 0  0.925 0.1 0  0.95 0.1 0  0.975 0.1 0  1 0.1 0  0 0.125 0  0.025 0.125 0  0.05 0.125 0  0.075 0.125 0  0.1 0.125 0  0.125 0.125 0  0.15 0.125 0  0.175 0.125 0  0.2 0.125 0  0.225 0.125 0  0.25 0.125 0  0.275 0.125 0  0.3 0.125 0  0.325 0.125 0  0.35 0.125 0  0.375 0.125 0  0.4 0.125 0  0.425 0.125 0  0.45 0.125 0  0.475 0.125 0  0.5 0.125 0  0.525 0.125 0  0.55 0.125 0  0.575 0.125 0  0.6 0.125 0  0.625 0.125 0  0.65 0.125 0  0.675 0.125 0  0.7 0.125 0  0.725 0.125 0  0.75 0.125 0  0.775 0.125 0  0.8 0.125 0  0.825 0.125 0  0.85 0.125 0  0.875 0.125 0  0.9 0.125 0  0.925 0.125 0  0.95 0.125 0  0.975 0.125 0  1 0.125 0  0 0.15 0  0.025 0.15 0  0.05 0.15 0  0.075 0.15 0  0.1 0.15 0  0.125 0.15 0  0.15 0.15 0  0.175 0.15 0  0.2 0.15 0  0.225 0.15 0  0.25 0.15 0  0.275 0.15 0  0.3 0.15 0  0.325 0.15 0  0.35 0.15 0  0.375 0.15 0  0.4 0.15 0  0.425 0.15 0  0.45 0.15 0  0.475 0.15 0  0.5 0.15 0  0.525 0.15 0  0.55 0.15 0  0.575 0.15 0  0.6 0.15 0  0.625 0.15 0  0.65 0.15 0  0.675 0.15 0  0.7 0.15 0  0.725 0.15 0  0.75 0.15 0  0.775 0.15 0  0.8 0.15 0  0.825 0.15 0  0.85 0.15 0  0.875 0.15 0  0.9 0.15 0  0.925 0.15 0  0.95 0.15 0  0.975 0.15 0  1 0.15 0  0 0.175 0  0.025 0.175 0  0.05 0.175 0  0.075 0.175 0  0.1 0.175 0  0.125 0.175 0  0.15 0.175 0  0.175 0.175 0  0.2 0.175 0  0.225 0.175 0  0.25 0.175 0  0.275 0.175 0  0.3 0.175 0  0.325 0.175 0  0.35 0.175 0  0.375 0.175 0  0.4 0.175 0  0.425 0.175 0  0.45 0.175 0  0.475 0.175 0  0.5 0.175 0  0.525 0.175 0  0.55 0.175 0  0.575 0.175 0  0.6 0.175 0  0.625 0.175 0  0.65 0.175 0  0.675 0.175 0  0.7 0.175 0  0.725 0.175 0  0.75 0.175 0  0.775 0.175 0  0.8 0.175 0  0.825 0.175 0  0.85 0.175 0  0.875 0.175 0  0.9 0.175 0  0.925 0.175 0  0.95 0.175 0  0.975 0.175 0  1 0.175 0  0 0.2 0  0.025 0.2 0  0.05 0.2 0  0.075 0.2 0  0.1 0.2 0  0.125 0.2 0  0.15 0.2 0  0.175 0.2 0  0.2 0.2 0  0.225 0.2 0  0.25 0.2 0  0.275 0.2 0  0.3 0.2 0  0.325 0.2 0  0.35 0.2 0  0.375 0.2 0  0.4 0.2 0  0.425 0.2 0  0.45 0.2 0  0.475 0.2 0  0.5 0.2 0  0.525 0.2 0  0.55 0.2 0  0.575 0.2 0  0.6 0.2 0  0.625 0.2 0  0.65 0.2 0  0.675 0.2 0  0.7 0.2 0  0.725 0.2 0  0.75 0.2 0  0.775 0.2 0  0.8 0.2 0  0.825 0.2 0  0.85 0.2 0  0.875 0.2 0  0.9 0.2 0  0.925 0.2 0  0.95 0.2 0  0.975 0.2 0  1 0.2 0  0 0.225 0  0.025 0.225 0  0.05 0.225 0  0.075 0.225 0  0.1 0.225 0  0.125 0.225 0  0.15 0.225 0  0.175 0.225 0  0.2 0.225 0  0.225 0.225 0  0.25 0.225 0  0.275 0.225 0  0.3 0.225 0  0.325 0.225 0  0.35 0.225 0  0.375 0.225 0  0.4 0.225 0  0.425 0.225 0  0.45 0.225 0  0.475 0.225 0  0.5 0.225 0  0.525 0.225 0  0.55 0.225 0  0.575 0.225 0  0.6 0.225 0  0.625 0.225 0  0.65 0.225 0  0.675 0.225 0  0.7 0.225 0  0.725 0.225 0  0.75 0.225 0  0.775 0.225 0  0.8 0.225 0  0.825 0.225 0  0.85 0.225 0  0.875 0.225 0  0.9 0.225 0  0.925 0.225 0  0.95 0.225 0  0.975 0.225 0  1 0.225 0  0 0.25 0  0.025 0.25 0  0.05 0.25 0  0.075 0.25 0  0.1 0.25 0  0.125 0.25 0  0.15 0.25 0  0.175 0.25 0  0.2 0.25 0  0.225 0.25 0  0.25 0.25 0  0.275 0.25 0  0.3 0.25 0  0.325 0.25 0  0.35 0.25 0  0.375 0.25 0  0.4 0.25 0  0.425 0.25 0  0.45 0.25 0  0.475 0.25 0  0.5 0.25 0  0.525 0.25 0  0.55 0.25 0  0.575 0.25 0  0.6 0.25 0  0.625 0.25 0  0.65 0.25 0  0.675 0.25 0  0.7 0.25 0  0.725 0.25 0  0.75 0.25 0  0.775 0.25 0  0.8 0.25 0  0.825 0.25 0  0.85 0.25 0  0.875 0.25 0  0.9 0.25 0  0.925 0.25 0  0.95 0.25 0  0.975 0.25 0  1 0.25 0  0 0.275 0  0.025 0.275 0  0.05 0.275 0  0.075 0.275 0  0.1 0.275 0  0.125 0.275 0  0.15 0.275 0  0.175 0.275 0  0.2 0.275 0  0.225 0.275 0  0.25 0.275 0  0.275 0.275 0  0.3 0.275 0  0.325 0.275 0  0.35 0.275 0  0.375 0.275 0  0.4 0.275 0  0.425 0.275 0  0.45 0.275 0  0.475 0.275 0  0.5 0.275 0  0.525 0.275 0  0.55 0.275 0  0.575 0.275 0  0.6 0.275 0  0.625 0.275 0  0.65 0.275 0  0.675 0.275 0  0.7 0.275 0  0.725 0.275 0  0.75 0.275 0  0.775 0.275 0  0.8 0.275 0  0.825 0.275 0  0.85 0.275 0  0.875 0.275 0  0.9 0.275 0  0.925 0.275 0  0.95 0.275 0  0.975 0.275 0  1 0.275 0  0 0.3 0  0.025 0.3 0  0.05 0.3 0  0.075 0.3 0  0.1 0.3 0  0.125 0.3 0  0.15 0.3 0  0.175 0.3 0  0.2 0.3 0  0.225 0.3 0  0.25 0.3 0  0.275 0.3 0  0.3 0.3 0  0.325 0.3 0  0.35 0.3 0  0.375 0.3 0  0.4 0.3 0  0.425 0.3 0  0.45 0.3 0  0.475 0.3 0  0.5 0.3 0  0.525 0.3 0  0.55 0.3 0  0.575 0.3 0  0.6 0.3 0  0.625 0.3 0  0.65 0.3 0  0.675 0.3 0  0.7 0.3 0  0.725 0.3 0  0.75 0.3 0  0.775 0.3 0  0.8 0.3 0  0.825 0.3 0  0.85 0.3 0  0.875 0.3 0  0.9 0.3 0  0.925 0.3 0  0.95 0.3 0  0.975 0.3 0  1 0.3 0  0 0.325 0  0.025 0.325 0  0.05 0.325 0  0.075 0.325 0  0.1 0.325 0  0.125 0.325 0  0.15 0.325 0  0.175 0.325 0  0.2 0.325 0  0.225 0.325 0  0.25 0.325 0  0.275 0.325 0  0.3 0.325 0  0.325 0.325 0  0.35 0.325 0  0.375 0.325 0  0.4 0.325 0  0.425 0.325 0  0.45 0.325 0  0.475 0.325 0  0.5 0.325 0  0.525 0.325 0  0.55 0.325 0  0.575 0.325 0  0.6 0.325 0  0.625 0.325 0  0.65 0.325 0  0.675 0.325 0  0.7 0.325 0  0.725 0.325 0  0.75 0.325 0  0.775 0.325 0  0.8 0.325 0  0.825 0.325 0  0.85 0.325 0  0.875 0.325 0  0.9 0.325 0  0.925 0.325 0  0.95 0.325 0  0.975 0.325 0  1 0.325 0  0 0.35 0  0.025 0.35 0  0.05 0.35 0  0.075 0.35 0  0.1 0.35 0  0.125 0.35 0  0.15 0.35 0  0.175 0.35 0  0.2 0.35 0  0.225 0.35 0  0.25 0.35 0  0.275 0.35 0  0.3 0.35 0  0.325 0.35 0  0.35 0.35 0  0.375 0.35 0  0.4 0.35 0  0.425 0.35 0  0.45 0.35 0  0.475 0.35 0  0.5 0.35 0  0.525 0.35 0  0.55 0.35 0  0.575 0.35 0  0.6 0.35 0  0.625 0.35 0  0.65 0.35 0  0.675 0.35 0  0.7 0.35 0  0.725 0.35 0  0.75 0.35 0  0.775 0.35 0  0.8 0.35 0  0.825 0.35 0  0.85 0.35 0  0.875 0.35 0  0.9 0.35 0  0.925 0.35 0  0.95 0.35 0  0.975 0.35 0  1 0.35 0  0 0.375 0  0.025 0.375 0  0.05 0.375 0  0.075 0.375 0  0.1 0.375 0  0.125 0.375 0  0.15 0.375 0  0.175 0.375 0  0.2 0.375 0  0.225 0.375 0  0.25 0.375 0  0.275 0.375 0  0.3 0.375 0  0.325 0.375 0  0.35 0.375 0  0.375 0.375 0  0.4 0.375 0  0.425 0.375 0  0.45 0.375 0  0.475 0.375 0  0.5 0.375 0  0.525 0.375 0  0.55 0.375 0  0.575 0.375 0  0.6 0.375 0  0.625 0.375 0  0.65 0.375 0  0.675 0.375 0  0.7 0.375 0  0.725 0.375 0  0.75 0.375 0  0.775 0.375 0  0.8 0.375 0  0.825 0.375 0  0.85 0.375 0  0.875 0.375 0  0.9 0.375 0  0.925 0.375 0  0.95 0.375 0  0.975 0.375 0  1 0.375 0  0 0.4 0  0.025 0.4 0  0.05 0.4 0  0.075 0.4 0  0.1 0.4 0  0.125 0.4 0  0.15 0.4 0  0.175 0.4 0  0.2 0.4 0  0.225 0.4 0  0.25 0.4 0  0.275 0.4 0  0.3 0.4 0  0.325 0.4 0  0.35 0.4 0  0.375 0.4 0  0.4 0.4 0  0.425 0.4 0  0.45 0.4 0  0.475 0.4 0  0.5 0.4 0  0.525 0.4 0  0.55 0.4 0  0.575 0.4 0  0.6 0.4 0  0.625 0.4 0  0.65 0.4 0  0.675 0.4 0  0.7 0.4 0  0.725 0.4 0  0.75 0.4 0  0.775 0.4 0  0.8 0.4 0  0.825 0.4 0  0.85 0.4 0  0.875 0.4 0  0.9 0.4 0  0.925 0.4 0  0.95 0.4 0  0.975 0.4 0  1 0.4 0  0 0.425 0  0.025 0.425 0  0.05 0.425 0  0.075 0.425 0  0.1 0.425 0  0.125 0.425 0  0.15 0.425 0  0.175 0.425 0  0.2 0.425 0  0.225 0.425 0  0.25 0.425 0  0.275 0.425 0  0.3 0.425 0  0.325 0.425 0  0.35 0.425 0  0.375 0.425 0  0.4 0.425 0  0.425 0.425 0  0.45 0.425 0  0.475 0.425 0  0.5 0.425 0  0.525 0.425 0  0.55 0.425 0  0.575 0.425 0  0.6 0.425 0  0.625 0.425 0  0.65 0.425 0  0.675 0.425 0  0.7 0.425 0  0.725 0.425 0  0.75 0.425 0  0.775 0.425 0  0.8 0.425 0  0.825 0.425 0  0.85 0.425 0  0.875 0.425 0  0.9 0.425 0  0.925 0.425 0  0.95 0.425 0  0.975 0.425 0  1 0.425 0  0 0.45 0  0.02
[...]
<PointData  Scalars="ControlVisualisation"> 
<DataArray  type="Float64"  Name="ControlVisualisation"  format="ascii">8.8228415513170073e-03  5.9009699159394153e-03  5.9029152312009298e-03  5.9026578765589473e-03  5.9006176176160984e-03  5.8995304861275610e-03  5.9015352183157798e-03  5.9063395888213025e-03  5.9120769250338850e-03  5.9171429164720365e-03  5.9208950117537549e-03  5.9235559824081128e-03  5.9258855788299732e-03  5.9286496167904974e-03  5.9319431309981189e-03  5.9349288480702077e-03  5.9366436084350273e-03  5.9372239145954585e-03  5.9376948932854754e-03  5.9386543263745565e-03  5.9398645730458621e-03  5.9408933412685916e-03  5.9416635535045554e-03  5.9423912114577359e-03  5.9432331826071065e-03  5.9440851093022625e-03  5.9446253705485340e-03  5.9444653168362459e-03  5.9432727738220805e-03  5.9408387464676554e-03  5.9371017263379960e-03  5.9321355547069078e-03  5.9261346764906729e-03  5.9194516791498623e-03  5.9126975194448653e-03  5.9067633623187555e-03  5.9025041795801401e-03  5.9002225237319303e-03  5.8994250807219793e-03  5.8992798395154063e-03  1.7484504527787995e-02  5.9018999341318122e-03  2.9614255596844608e-03  2.9633284634644616e-03  2.9634046321253341e-03  2.9615348293249672e-03  2.9604921122036226e-03  2.9629070374390743e-03  2.9686251214109957e-03  2.9754747792199807e-03  2.9814049801258893e-03  2.9855128090060172e-03  2.9880480091096524e-03  2.9899953148418766e-03  2.9924932589135279e-03  2.9960555129181408e-03  2.9999263634384269e-03  3.0020721094594399e-03  3.0024457487457770e-03  3.0026805380013121e-03  3.0037690303333000e-03  3.0053428508628522e-03  3.0066433740661086e-03  3.0075039587030734e-03  3.0082862660429804e-03  3.0092896498787893e-03  3.0104319565753229e-03  3.0113273933757186e-03  3.0114995708609110e-03  3.0105321907095361e-03  3.0081488748526859e-03  3.0042511736428539e-03  2.9989050705430701e-03  2.9923014714819617e-03  2.9847673826673173e-03  2.9768788903762572e-03  2.9695393079612101e-03  2.9637893208637818e-03  2.9603183485282110e-03  2.9588560483090063e-03  2.9584885750935492e-03  5.8992728456194118e-03  5.9154617777498700e-03  2.9716574665872423e-03  2.9710075277018010e-03  2.9698751202613242e-03  2.9810989616384305e-03  3.0252318301015944e-03  3.0958870741607135e-03  3.1602041523185048e-03  3.1921881700632247e-03  3.1866023227434177e-03  3.1513006187332058e-03  3.1038872844750607e-03  3.0616388076572395e-03  3.0341424519030658e-03  3.0222040328090637e-03  3.0197407038052623e-03  3.0162868238531883e-03  3.0115525994382124e-03  3.0091557529608563e-03  3.0105741319368337e-03  3.0134166623067807e-03  3.0149552439968155e-03  3.0152467653722856e-03  3.0156852086805634e-03  3.0169830880108495e-03  3.0188575588923489e-03  3.0205620758322407e-03  3.0213705714233290e-03  3.0207583312450094e-03  3.0184210992290931e-03  3.0143004037821290e-03  3.0085676278362723e-03  3.0014858586803542e-03  2.9933138399750791e-03  2.9843981222374568e-03  2.9754264269757566e-03  2.9676360535799721e-03  2.9622641097443976e-03  2.9594961051556644e-03  2.9585058618406220e-03  5.8992318651435892e-03  5.9760760610886431e-03  3.0095907115167122e-03  3.0280654010155388e-03  3.2068963535424092e-03  3.5261994887358255e-03  4.3494362854757532e-03  6.2911550966291974e-03  1.0118312141692884e-02  1.4350588779761890e-02  1.4212877420082783e-02  1.0668861129237062e-02  7.4945281117272129e-03  5.5666503179650209e-03  4.4949378744888278e-03  3.8901480742629928e-03  3.5136110242180718e-03  3.2452125462052294e-03  3.0995824111852087e-03  3.0440772213969664e-03  3.0286133185656260e-03  3.0256663867752557e-03  3.0218170977021983e-03  3.0175740584995493e-03  3.0159620412958839e-03  3.0173619720471599e-03  3.0204312018940285e-03  3.0234658040671995e-03  3.0253395124639803e-03  3.0256472372482690e-03  3.0240995107002596e-03  3.0206668984449074e-03  3.0158520430585722e-03  3.0101766694353707e-03  3.0037316905889276e-03  2.9960850760947346e-03  2.9871056391749837e-03  2.9774652724255876e-03  2.9684620580856043e-03  2.9625705420564751e-03  2.9591070984131248e-03  5.8991950430786781e-03  6.1938677611546476e-03  3.1385139813360188e-03  3.5168110881642414e-03  9.6462535547948858e-03  2.4699926272676850e-01  5.3520425646517178e-01  7.5164912465527167e-01  8.7725002755175219e-01  9.1634742802973046e-01  9.0065242290482750e-01  8.3413275844961587e-01  7.1949230468149461e-01  5.7085321188869775e-01  4.0578989815491651e-01  2.3805698333203879e-01  1.0173303590780959e-01  1.9348576938704166e-02  6.8930349570854648e-03  4.6209667393012502e-03  3.8520286218477798e-03  3.4478363406459456e-03  3.2051471052723605e-03  3.0949076170242958e-03  3.0535139730379656e-03  3.0390776698252429e-03  3.0363262182514948e-03  3.0373165376416109e-03  3.0390194441932816e-03  3.0412405874716522e-03  3.0433391088709634e-03  3.0463637944971281e-03  3.0543980709994761e-03  3.0717011278534041e-03  3.0982847344260141e-03  3.1229292761218788e-03  3.1222224029916045e-03  3.0739960206703902e-03  3.0073624750608084e-03  2.9750467936871263e-03  2.9721027375851595e-03  5.9019056286511570e-03  6.3432278045596939e-03  4.1230593256829807e-03  3.0169499564102448e-01  9.8483202063573183e-01  9.9637814649216716e-01  9.9765585872421592e-01  9.9799668645096251e-01  9.9809261836240148e-01  9.9806140506724539e-01  9.9792231637165441e-01  9.9765928635064505e-01  9.9723011320023225e-01  9.9652363710741065e-01  9.9523231152786729e-01  9.9226627196306205e-01  9.8102589691929065e-01  8.7803922502027643e-01  6.4194053768555515e-01  4.1233849279397006e-01  2.1823108922896453e-01  7.3935112775291356e-02  1.3101012101110173e-02  6.1635116651917645e-03  4.5590260399406002e-03  3.9313377501430076e-03  3.6265376812248834e-03  3.4695758345660520e-03  3.4006312196725908e-03  3.4072198630109075e-03  3.4728111002942197e-03  3.6037349001621943e-03  3.8430817856739468e-03  4.2565363094111582e-03  4.9299634168471305e-03  5.8648706341927707e-03  6.5497675749575266e-03  5.9068651825931280e-03  4.5380324342307113e-03  3.5318293277826307e-03  3.1166321904727563e-03  6.1018956862694236e-03  2.1164994008557571e-02  9.8562243968413377e-01  9.9842873705156210e-01  9.9907271681186927e-01  9.9923080682543430e-01  9.9930510847938991e-01  9.9932243159618961e-01  9.9931006908417042e-01  9.9927682787883243e-01  9.9922408820564734e-01  9.9914986493878633e-01  9.9904960341152715e-01  9.9891509506938758e-01  9.9873142472378107e-01  9.9847018125406584e-01  9.9807556037820599e-01  9.9746529536052009e-01  9.9651871232323375e-01  9.9480122151512096e-01  9.9028829456383516e-01  9.6622892918223480e-01  7.9957668120387770e-01  5.7621522472223496e-01  3.8303180578187057e-01  2.4230670797132539e-01  1.4158841264832117e-01  7.1388004876242694e-02  4.4805598952112898e-02  4.0022768827436127e-02  5.5875653524237741e-02  1.0699401901888947e-01  1.9180286721469894e-01  3.0638342608623237e-01  4.4471017297241322e-01  5.7631635460946129e-01  6.6907677762493689e-01  6.8672516367647907e-01  5.9629771346680294e-01  3.2819965327563627e-01  6.9554218203655817e-03  6.3867893490349107e-03  9.9928994419162986e-01  9.9961414799885551e-01  9.9968528071861129e-01  9.9970472287410272e-01  9.9969829520241760e-01  9.9967985421338179e-01  9.9965490973697868e-01  9.9962605724782916e-01  9.9959404122497741e-01  9.9955849094763383e-01  9.9951842898061904e-01  9.9947249202113086e-01  9.9941880062465416e-01  9.9935454213531361e-01  9.9927537645466358e-01  9.9917482693484416e-01  9.9904372516581252e-01  9.9886909856219819e-01  9.9863061207157455e-01  9.9829163674896682e-01  9.9778574507155815e-01  9.9704766638683873e-01  9.9597514953621469e-01  9.9418568959957421e-01  9.9059843205580378e-01  9.8182455634706312e-01  9.5818524704306651e-01  9.1996761063417098e-01  9.0636874129469047e-01  9.3199987547840357e-01  9.7044886559324739e-01  9.8702372574308594e-01  9.9277873089385271e-01  9.9523464191218713e-01  9.9648946480619804e-01  9.9721024553293147e-01  9.9764824802554963e-01  9.9789733338069042e-01  9.9793886683816069e-01  9.9743506254931147e-01  9.4242805998428958e-01  9.9984244939952038e-01  9.9990015744671434e-01  9.9988457386508056e-01  9.9986199103061735e-01  9.9983556796757789e-01  9.9980705756065613e-01  9.9977790004180156e-01  9.9974902586565650e-01  9.9972073119888472e-01  9.9969280142832995e-01  9.9966467738317522e-01  9.9963560107690919e-01  9.9960464284472905e-01  9.9957063801078949e-01  9.9953211314838597e-01  9.9948727859095876e-01  9.9943408053365312e-01  9.9937014958521986e-01  9.9929243031906345e-01  9.9919654454399531e-01  9.9907634060107831e-01  9.9892413967250804e-01  9.9873177859100049e-01  9.9849207545036756e-01  9.9820188895259787e-01  9.9787056239894933e-01  9.9753828849717086e-01  9.9728286708421654e-01  9.9717630210897135e-01  9.9724384487026652e-01  9.9747195656039522e-01  9.9781052561034500e-01  9.9817576692771415e-01  9.9850455648070524e-01  9.9877890935868219e-01  9.9900366856224521e-01  9.9918990671900754e-01  9.9934634983162018e-01  9.9947438377782838e-01  9.9956722728726166e-01  9.9898653182891162e-01  9.9991157166535849e-01  9.9994714852021060e-01  9.9993228990438832e-01  9.9991097908747795e-01  9.9988558393732141e-01  9.9985821277251441e-01  9.9983069133555891e-01  9.9980420556706373e-01  9.9977931176312784e-01  9.9975604223091497e-01  9.9973406996040548e-01  9.9971286265969539e-01  9.9969176952089511e-01  9.9967005482688565e-01  9.9964691327111355e-01  9.9962149511363407e-01  9.9959293211153377e-01  9.9956031991436922e-01  9.9952263239931505e-01  9.9947863251852931e-01  9.9942691110060533e-01  9.9936611728189362e-01  9.9929528756681052e-01  9.9921419646841081e-01  9.9912391092847952e-01  9.9902782551014713e-01  9.9893319269984504e-01  9.9885218806946097e-01  9.9880067887876134e-01  9.9879312567404333e-01  9.9883534484666425e-01  9.9892089888392688e-01  9.9903475426885446e-01  9.9916094878822059e-01  9.9928817210877230e-01  9.9941065526929107e-01  9.9952579529499685e-01  9.9963056852322707e-01  9.9971877022962352e-01  9.9978047208493648e-01  9.9957664845093497e-01  9.9992188590114517e-01  9.9995630750471221e-01  9.9994340475994370e-01  9.9992427708287002e-01  9.9990095584688321e-01  9.9987569611032023e-01  9.9985045384155824e-01  9.9982655158533951e-01  9.9980466661564138e-01  9.9978493005090785e-01  9.9976710593875739e-01  9.9975074945699227e-01  9.9973531458008469e-01  9.9972021567825231e-01  9.9970486088903832e-01  9.9968867250405369e-01  9.9967109458618153e-01  9.9965157986398134e-01  9.9962955907128292e-01  9.9960441962201174e-01  9.9957552703251551e-01  9.9954229363121394e-01  9.9950426851222429e-01  9.9946124678822323e-01  9.9941346631574002e-01  9.9936199388155722e-01  9.9930931857013494e-01  9.9925996293092822e-01  9.9922065541461547e-01  9.9919938271276110e-01  9.9920295757603539e-01  9.9923401721551619e-01  9.9928962106652441e-01  9.9936282750045835e-01  9.9944598523815997e-01  9.9953306575213086e-01  9.9961968634749598e-01  9.9970109343078117e-01  9.9977045487625871e-01  9.9981935677405653e-01  9.9967526328652156e-01  9.9989990780310700e-01  9.9994868878402854e-01  9.9993569063959153e-01  9.9991684898445610e-01  9.9989462796151307e-01  9.9987122792334715e-01  9.9984840920060802e-01  9.9982734091997782e-01  9.9980859028423552e-01  9.9979223429630770e-01  9.9977802698596885e-01  9.9976554162362452e-01  9.9975427380194792e-01  9.9974370337532259e-01  9.9973332705459728e-01  9.9972267228675638e-01  9.9971129707478035e-01  9.9969877776113447e-01  9.9968469017781980e-01  9.9966859478761894e-01  9.9965003496022264e-01  9.9962854828746328e-01  9.9960368622604800e-01  9.9957505078617870e-01  9.9954238390039840e-01  9.9950576291082094e-01  9.9946594686669887e-01  9.9942487386642054e-01  9.9938618936880286e-01  9.9935544116282016e-01  9.9933931922657915e-01  9.9934353666991516e-01  9.9937013020682042e-01  9.9941626737056899e-01  9.9947585444236986e-01  9.9954258060846146e-01  9.9961165725017564e-01  9.9967894657903145e-01  9.9973940983306142e-01  9.9978475850770443e-01  9.9963206876310851e-01  9.9977852060080041e-01  9.9990823122513062e-01  9.9989750235908070e-01  9.9988133083030406e-01  9.9986245898328829e-01  9.9984301095662009e-01  9.9982449607327606e-01  9.9980784851028315e-01  9.9979347511112571e-01  9.9978138172365860e-01  9.9977131048218959e-01  9.9976285907596629e-01  9.9975556850667702e-01  9.9974897625015513e-01  9.9974264348777930e-01  9.9973616410924937e-01  9.9972916105636378e-01  9.9972127402281008e-01  9.9971214274587694e-01  9.9970139036753014e-01  9.9968860947125537e-01  9.9967335032215487e-01  9.9965511090867576e-01  9.9963333532021192e-01  9.9960743960415765e-01  9.9957689888802903e-01  9.9954144581453352e-01  9.9950144584876011e-01  9.9945850182106533e-01  9.9941620891493343e-01  9.9938060301388676e-01  9.9935930449972565e-01  9.9935852870197761e-01  9.9937922344053509e-01  9.9941592652235822e-01  9.9946012835375342e-01  9.9950448744565668e-01  9.9954431827131363e-01  9.9957616650414860e-01  9.9959154973297981e-01  9.9932582965041561e-01  9.9810693327347255e-01  9.9965117035118511e-01  9.9974629796152847e-01  9.9977345055780886e-01  9.9977821246883969e-01  9.9977461637076037e-01  9.9976807730175898e-01  9.9976109434532179e-01  9.9975481726447157e-01  9.9974967143289950e-01  9.9974567425074112e-01  9.9974262632272592e-01  9.9974022766133852e-01  9.9973814477045309e-01  9.9973604546823425e-01  9.9973361224232393e-01  9.9973054149866480e-01  9.9972653390324440e-01  9.9972127963121327e-01  9.9971444079313265e-01  9.9970563154595604e-01  9.9969439483465561e-01  9.9968017459275038e-01  9.9966228471479923e-01  9.9963988148308169e-01  9.9961195556393134e-01  9.9957737830865534e-01  9.9953507545737674e-01  9.9948446612402309e-01  9.9942636537966378e-01  9.9936442886500398e-01  9.9930644028572702e-01  9.9926308198835989e-01  9.9924151294416197e-01  9.9923692553565968e-01  9.9923156006559144e-01  9.9919966690869921e-01  9.9910305411557654e-01  9.9893768894648272e-01  9.9827395097965499e-01  9.9587056924970330e-01  6.9330927185671902e-03  9.6524224337954179e-01  9.9879265559271135e-01  9.9938365569372511e-01  9.9954738589677461e-01  9.9961399050310673e-01  9.9964692089719231e-01  9.9966559255898013e-01  9.9967759372490783e-01  9.9968629297479827e-01  9.9969324613969857e-01  9.9969914691169182e-01  9.9970425735020463e-01  9.9970861966958924e-01  9.9971216464451429e-01  9.9971476539279380e-01  9.9971625936557873e-01  9.9971645250854335e-01  9.9971511324504858e-01  9.9971195901484244e-01  9.9970663577077690e-01  9.9969868913787807e-01  9.9968752405978234e-01  9.9967234830004637e-01  9.9965209414524470e-01  9.9962531228477880e-01  9.9959003547701697e-01  9.9954362897524252e-01  9.9948270811224060e-01  9.9940338409539697e-01  9.9930247962928309e-01  9.9918076591911187e-01  9.9904784025933335e-01  9.9892008107205787e-01  9.9879533396259901e-01  9.9861231895558000e-01  9.9824260572254309e-01  9.9739424244886654e-01  9.9204220047676506e-01  2.3289049130829609e-01  8.4971639287108828e-03  6.4805761852588604e-03  4.9206159729074826e-03  7.2625552370158430e-01  9.9687422680205040e-01  9.9866881169470711e-01  9.9915743754781150e-01  9.9935419564831374e-01  9.9945690938207188e-01  9.9951939338412044e-01  9.9956167157142661e-01  9.9959258750385105e-01  9.9961647955308475e-01  9.9963562813852791e-01  9.9965127858062475e-01  9.9966412399458593e-01  9.9967454622018170e-01  9.9968273267885166e-01  9.9968873509218958e-01  9.9969249757698397e-01  9.9969386235171531e-01  9.9969255847124261e-01  9.9968817543468380e-01  9.9968011704876281e-01  9.9966752522210589e-01  9.9964915609068128e-01  9.9962317692252689e-01  9.9958682583325464e-01  9.9953582780903594e-01  9.9946337310336364e-01  9.9935833762248960e-01  9.9920233510548662e-01  9.9896602147654212e-01  9.9860923357503872e-01  9.9809552087841236e-01  9.9740878934611599e-01  9.9638067346764270e-01  9.9282711960187020e-01  7.8522416301198950e-01  8.1933668942890434e-02  3.7834715389465975e-03  6.2125408569849204e-03  5.9656611575861322e-03  3.1410385903825884e-03  7.9549378053113389e-03  4.2866716220875517e-01  9.8660243704955819e-01  9.9676454404510972e-01  9.9830447128137489e-01  9.9886426902723413e-01  9.9912925421783416e-01  9.9928190044039755e-01  9.9938096873751880e-01  9.9945060483719861e-01  9.9950237378513562e-01  9.9954234103263184e-01  9.9957393930561078e-01  9.9959922654922273e-01  9.9961945629685955e-01  9.9963538421281251e-01  9.9964743898182040e-01  9.9965580209468530e-01  9.9966043838498908e-01  9.9966109625687993e-01  9.9965727348908151e-01  9.9964813550597120e-01  9.9963236136796652e-01  9.9960786401067447e-01  9.9957126939454721e-01  9.9951689626300078e-01  9.9943461107692211e-01  9.9930488165327258e-01  9.9908585714868769e-01  9.9867379819759627e-01  9.9775036402864437e-01  9.9543256809421510e-01  9.8807438081421817e-01  8.5368634005837585e-01  3.9119922710728794e-01  1.6379326901661811e-02  3.8114353432987581e-03  3.0679876473856289e-03  5.9168518132509274e-03  5.9087559972302176e-03  2.9832514256206465e-03  3.0722015364225983e-03  4.8101110272949707e-03  1.0784533876292551e-01  5.7079810643399242e-01  9.8193959897604055e-01  9.9534407153519278e-01  9.9752725253191898e-01  9.9837923112305305e-01  9.9880199200854047e-01  9.9904515794008786e-01  9.9920235638716215e-01  9.9931174926362432e-01  9.9939181166431423e-01  9.9945250475252068e-01  9.9949948961812973e-01  9.9953615743519730e-01  9.9956462556205539e-01  9.9958619002461691e-01  9.9960156346325846e-01  9.9961101147469089e-01  9.9961439599170865e-01  9.9961113035927884e-01  9.9960003525981245e-01  9.9957903635578715e-01  9.9954455715131230e-01  9.9949025519359291e-01  9.9940417161705897e-01  9.9926147356029382e-01  9.9900239151425974e-01  9.9844373790487784e-01  9.9668232057240580e-01  9.8137100556428747e-01  5.3115775765251538e-01  1.2271630649461918e-01  6.6730910185133861e-03  3.6463065284905783e-03  3.0726708909689557e-03  2.9657926779973029e-03  5.9061277342950204e-03  5.9011374540709318e-03  2.9659358249420581e-03  2.9872964938316023e-03  3.0377258659323452e-03  3.4778013100694831e-03  6.6831811890903040e-03  9.5965470503067599e-02  4.3490234202354028e-01  8.5357339364908380e-01  9.8983568422789581e-01  9.9567548174146514e-01  9.9738718091915946e-01  9.9821172339044950e-01  9.9866282595971967e-01  9.9893493547196888e-01  9.9911528667273175e-01  9.9924203602526673e-01  9.9933454117388643e-01  9.9940367703658739e-01  9.9945577180520029e-01  9.9949456453188568e-01  9.9952227810501770e-01  9.9954010846286012e-01  9.9954840880389817e-01  9.9954669561273457e-01  9.9953345092942669e-01  9.9950560086574358e-01  9.9945736153376952e-01  9.9937761095085698e-01  9.9924325623618004e-01  9.9899946820351970e-01  9.9848280294264358e-01  9.9693295707679230e-01  9.8267608105961490e-01  5.0399562142378962e-01  5.6353193610525466e-02  4.1172470905897337e-03  3.1054459582548306e-03  2.9969698956440220e-03  2.9761674842179826e-03  5.9115671388402131e-03  5.9064743435961907e-03  2.9680294487855648e-03  2.9807303889654419e-03  2.9983481038388317e-03  3.0203030701105816e-03  3.0872388678138954e-03  3.4863698547442112e-03  5.1753739315493338e-03  1.9307582224746295e-02  1.9232625519987362e-01  4.9864126249779517e-01  8.4883777177861741e-01  9.8759045333557072e-01  9.9490650186906993e-01  9.9694155765959613e-01  9.9792979189712971e-01  9.9848643920886815e-01  9.9881581605577441e-01  9.9902971486117542e-01  9.9917663696280201e-01  9.9928059528987823e-01  9.9935482749209337e-01  9.9940692973456802e-01  9.9944119240120610e-01  9.9945977525975283e-01  9.9946314283774429e-01  9.9944998950454622e-01  9.9941661130405501e-01  9.9935528430066600e-01  9.9925035320283484e-01  9.9906793856227571e-01  9.9872348640235753e-01  9.9794171436816970e-01  9.9513746078996856e-01  9.3305513776103821e-01  3.8921061681172636e-01  7.8171831881861161e-03  3.1982087548872262e-03  3.0200919510958561e-03  2.9930086320817213e-03  5.9238671627395469e-03  5.9116830272754380e-03  2.9731463115027250e-03  2.9814498728141284e-03  2.9916319227154169e-03  3.0028231714491972e-03  3.0130865662797044e-03  3.0255358760734471e-03  3.0636540349176884e-03  3.244275568