<?xml version="1.0"?>
<VTKFile type="UnstructuredGrid"  version="0.1"  >
<UnstructuredGrid>
<Piece  NumberOfPoints="1681" NumberOfCells="3200">
<Points>
<DataArray  type="Float64"  NumberOfComponents="3"  format="ascii">0 0 0  0.025 0 0  0.05 0 0  0.075 0 0  0.1 0 0  0.125 0 0  0.15 0 0  0.175 0 0  0.2 0 0  0.225 0 0  0.25 0 0  0.275 0 0  0.3 0 0  0.325 0 0  0.35 0 0  0.375 0 0  0.4 0 0  0.425 0 0  0.45 0 0  0.475 0 0  0.5 0 0  0.525 0 0  0.55 0 0  0.575 0 0  0.6 0 0  0.625 0 0  0.65 0 0  0.675 0 0  0.7 0 0  0.725 0 0  0.75 0 0  0.775 0 0  0.8 0 0  0.825 0 0  0.85 0 0  0.875 0 0  0.9 0 0  0.925 0 0  0.95 0 0  0.975 0 0  1 0 0  0 0.025 0  0.025 0.025 0  0.05 0.025 0  0.075 0.025 0  0.1 0.025 0  0.125 0.025 0  0.15 0.025 0  0.175 0.025 0  0.2 0.025 0  0.225 0.025 0  0.25 0.025 0  0.275 0.025 0  0.3 0.025 0  0.325 0.025 0  0.35 0.025 0  0.375 0.025 0  0.4 0.025 0  0.425 0.025 0  0.45 0.025 0  0.475 0.025 0  0.5 0.025 0  0.525 0.025 0  0.55 0.025 0  0.575 0.025 0  0.6 0.025 0  0.625 0.025 0  0.65 0.025 0  0.675 0.025 0  0.7 0.025 0  0.725 0.025 0  0.75 0.025 0  0.775 0.025 0  0.8 0.025 0  0.825 0.025 0  0.85 0.025 0  0.875 0.025 0  0.9 0.025 0  0.925 0.025 0  0.95 0.025 0  0.975 0.025 0  1 0.025 0  0 0.05 0  0.025 0.05 0  0.05 0.05 0  0.075 0.05 0  0.1 0.05 0  0.125 0.05 0  0.15 0.05 0  0.175 0.05 0  0.2 0.05 0  0.225 0.05 0  0.25 0.05 0  0.275 0.05 0  0.3 0.05 0  0.325 0.05 0  0.35 0.05 0  0.375 0.05 0  0.4 0.05 0  0.425 0.05 0  0.45 0.05 0  0.475 0.05 0  0.5 0.05 0  0.525 0.05 0  0.55 0.05 0  0.575 0.05 0  0.6 0.05 0  0.625 0.05 0  0.65 0.05 0  0.675 0.05 0  0.7 0.05 0  0.725 0.05 0  0.75 0.05 0  0.775 0.05 0  0.8 0.05 0  0.825 0.05 0  0.85 0.05 0  0.875 0.05 0  0.9 0.05 0  0.925 0.05 0  0.95 0.05 0  0.975 0.05 0  1 0.05 0  0 0.075 0  0.025 0.075 0  0.05 0.075 0  0.075 0.075 0  0.1 0.075 0  0.125 0.075 0  0.15 0.075 0  0.175 0.075 0  0.2 0.075 0  0.225 0.075 0  0.25 0.075 0  0.275 0.075 0  0.3 0.075 0  0.325 0.075 0  0.35 0.075 0  0.375 0.075 0  0.4 0.075 0  0.425 0.075 0  0.45 0.075 0  0.475 0.075 0  0.5 0.075 0  0.525 0.075 0  0.55 0.075 0  0.575 0.075 0  0.6 0.075 0  0.625 0.075 0  0.65 0.075 0  0.675 0.075 0  0.7 0.075 0  0.725 0.075 0  0.75 0.075 0  0.775 0.075 0  0.8 0.075 0  0.825 0.075 0  0.85 0.075 0  0.875 0.075 0  0.9 0.075 0  0.925 0.075 0  0.95 0.075 0  0.975 0.075 0  1 0.075 0  0 0.1 0  0.025 0.1 0  0.05 0.1 0  0.075 0.1 0  0.1 0.1 0  0.125 0.1 0  0.15 0.1 0  0.175 0.1 0  0.2 0.1 0  0.225 0.1 0  0.25 0.1 0  0.275 0.1 0  0.3 0.1 0  0.325 0.1 0  0.35 0.1 0  0.375 0.1 0  0.4 0.1 0  0.425 0.1 0  0.45 0.1 0  0.475 0.1 0  0.5 0.1 0  0.525 0.1 0  0.55 0.1 0  0.575 0.1 0  0.6 0.1 0  0.625 0.1 0  0.65 0.1 0  0.675 0.1 0  0.7 0.1 0  0.725 0.1 0  0.75 0.1 0  0.775 0.1 0  0.8 0.1 0  0.825 0.1 0  0.85 0.1 0  0.875 0.1 0  0.9 0.1 0  0.925 0.1 0  0.95 0.1 0  0.975 0.1 0  1 0.1 0  0 0.125 0  0.025 0.125 0  0.05 0.125 0  0.075 0.125 0  0.1 0.125 0  0.125 0.125 0  0.15 0.125 0  0.175 0.125 0  0.2 0.125 0  0.225 0.125 0  0.25 0.125 0  0.275 0.125 0  0.3 0.125 0  0.325 0.125 0  0.35 0.125 0  0.375 0.125 0  0.4 0.125 0  0.425 0.125 0  0.45 0.125 0  0.475 0.125 0  0.5 0.125 0  0.525 0.125 0  0.55 0.125 0  0.575 0.125 0  0.6 0.125 0  0.625 0.125 0  0.65 0.125 0  0.675 0.125 0  0.7 0.125 0  0.725 0.125 0  0.75 0.125 0  0.775 0.125 0  0.8 0.125 0  0.825 0.125 0  0.85 0.125 0  0.875 0.125 0  0.9 0.125 0  0.925 0.125 0  0.95 0.125 0  0.975 0.125 0  1 0.125 0  0 0.15 0  0.025 0.15 0  0.05 0.15 0  0.075 0.15 0  0.1 0.15 0  0.125 0.15 0  0.15 0.15 0  0.175 0.15 0  0.2 0.15 0  0.225 0.15 0  0.25 0.15 0  0.275 0.15 0  0.3 0.15 0  0.325 0.15 0  0.35 0.15 0  0.375 0.15 0  0.4 0.15 0  0.425 0.15 0  0.45 0.15 0  0.475 0.15 0  0.5 0.15 0  0.525 0.15 0  0.55 0.15 0  0.575 0.15 0  0.6 0.15 0  0.625 0.15 0  0.65 0.15 0  0.675 0.15 0  0.7 0.15 0  0.725 0.15 0  0.75 0.15 0  0.775 0.15 0  0.8 0.15 0  0.825 0.15 0  0.85 0.15 0  0.875 0.15 0  0.9 0.15 0  0.925 0.15 0  0.95 0.15 0  0.975 0.15 0  1 0.15 0  0 0.175 0  0.025 0.175 0  0.05 0.175 0  0.075 0.175 0  0.1 0.175 0  0.125 0.175 0  0.15 0.175 0  0.175 0.175 0  0.2 0.175 0  0.225 0.175 0  0.25 0.175 0  0.275 0.175 0  0.3 0.175 0  0.325 0.175 0  0.35 0.175 0  0.375 0.175 0  0.4 0.175 0  0.425 0.175 0  0.45 0.175 0  0.475 0.175 0  0.5 0.175 0  0.525 0.175 0  0.55 0.175 0  0.575 0.175 0  0.6 0.175 0  0.625 0.175 0  0.65 0.175 0  0.675 0.175 0  0.7 0.175 0  0.725 0.175 0  0.75 0.175 0  0.775 0.175 0  0.8 0.175 0  0.825 0.175 0  0.85 0.175 0  0.875 0.175 0  0.9 0.175 0  0.925 0.175 0  0.95 0.175 0  0.975 0.175 0  1 0.175 0  0 0.2 0  0.025 0.2 0  0.05 0.2 0  0.075 0.2 0  0.1 0.2 0  0.125 0.2 0  0.15 0.2 0  0.175 0.2 0  0.2 0.2 0  0.225 0.2 0  0.25 0.2 0  0.275 0.2 0  0.3 0.2 0  0.325 0.2 0  0.35 0.2 0  0.375 0.2 0  0.4 0.2 0  0.425 0.2 0  0.45 0.2 0  0.475 0.2 0  0.5 0.2 0  0.525 0.2 0  0.55 0.2 0  0.575 0.2 0  0.6 0.2 0  0.625 0.2 0  0.65 0.2 0  0.675 0.2 0  0.7 0.2 0  0.725 0.2 0  0.75 0.2 0  0.775 0.2 0  0.8 0.2 0  0.825 0.2 0  0.85 0.2 0  0.875 0.2 0  0.9 0.2 0  0.925 0.2 0  0.95 0.2 0  0.975 0.2 0  1 0.2 0  0 0.225 0  0.025 0.225 0  0.05 0.225 0  0.075 0.225 0  0.1 0.225 0  0.125 0.225 0  0.15 0.225 0  0.175 0.225 0  0.2 0.225 0  0.225 0.225 0  0.25 0.225 0  0.275 0.225 0  0.3 0.225 0  0.325 0.225 0  0.35 0.225 0  0.375 0.225 0  0.4 0.225 0  0.425 0.225 0  0.45 0.225 0  0.475 0.225 0  0.5 0.225 0  0.525 0.225 0  0.55 0.225 0  0.575 0.225 0  0.6 0.225 0  0.625 0.225 0  0.65 0.225 0  0.675 0.225 0  0.7 0.225 0  0.725 0.225 0  0.75 0.225 0  0.775 0.225 0  0.8 0.225 0  0.825 0.225 0  0.85 0.225 0  0.875 0.225 0  0.9 0.225 0  0.925 0.225 0  0.95 0.225 0  0.975 0.225 0  1 0.225 0  0 0.25 0  0.025 0.25 0  0.05 0.25 0  0.075 0.25 0  0.1 0.25 0  0.125 0.25 0  0.15 0.25 0  0.175 0.25 0  0.2 0.25 0  0.225 0.25 0  0.25 0.25 0  0.275 0.25 0  0.3 0.25 0  0.325 0.25 0  0.35 0.25 0  0.375 0.25 0  0.4 0.25 0  0.425 0.25 0  0.45 0.25 0  0.475 0.25 0  0.5 0.25 0  0.525 0.25 0  0.55 0.25 0  0.575 0.25 0  0.6 0.25 0  0.625 0.25 0  0.65 0.25 0  0.675 0.25 0  0.7 0.25 0  0.725 0.25 0  0.75 0.25 0  0.775 0.25 0  0.8 0.25 0  0.825 0.25 0  0.85 0.25 0  0.875 0.25 0  0.9 0.25 0  0.925 0.25 0  0.95 0.25 0  0.975 0.25 0  1 0.25 0  0 0.275 0  0.025 0.275 0  0.05 0.275 0  0.075 0.275 0  0.1 0.275 0  0.125 0.275 0  0.15 0.275 0  0.175 0.275 0  0.2 0.275 0  0.225 0.275 0  0.25 0.275 0  0.275 0.275 0  0.3 0.275 0  0.325 0.275 0  0.35 0.275 0  0.375 0.275 0  0.4 0.275 0  0.425 0.275 0  0.45 0.275 0  0.475 0.275 0  0.5 0.275 0  0.525 0.275 0  0.55 0.275 0  0.575 0.275 0  0.6 0.275 0  0.625 0.275 0  0.65 0.275 0  0.675 0.275 0  0.7 0.275 0  0.725 0.275 0  0.75 0.275 0  0.775 0.275 0  0.8 0.275 0  0.825 0.275 0  0.85 0.275 0  0.875 0.275 0  0.9 0.275 0  0.925 0.275 0  0.95 0.275 0  0.975 0.275 0  1 0.275 0  0 0.3 0  0.025 0.3 0  0.05 0.3 0  0.075 0.3 0  0.1 0.3 0  0.125 0.3 0  0.15 0.3 0  0.175 0.3 0  0.2 0.3 0  0.225 0.3 0  0.25 0.3 0  0.275 0.3 0  0.3 0.3 0  0.325 0.3 0  0.35 0.3 0  0.375 0.3 0  0.4 0.3 0  0.425 0.3 0  0.45 0.3 0  0.475 0.3 0  0.5 0.3 0  0.525 0.3 0  0.55 0.3 0  0.575 0.3 0  0.6 0.3 0  0.625 0.3 0  0.65 0.3 0  0.675 0.3 0  0.7 0.3 0  0.725 0.3 0  0.75 0.3 0  0.775 0.3 0  0.8 0.3 0  0.825 0.3 0  0.85 0.3 0  0.875 0.3 0  0.9 0.3 0  0.925 0.3 0  0.95 0.3 0  0.975 0.3 0  1 0.3 0  0 0.325 0  0.025 0.325 0  0.05 0.325 0  0.075 0.325 0  0.1 0.325 0  0.125 0.325 0  0.15 0.325 0  0.175 0.325 0  0.2 0.325 0  0.225 0.325 0  0.25 0.325 0  0.275 0.325 0  0.3 0.325 0  0.325 0.325 0  0.35 0.325 0  0.375 0.325 0  0.4 0.325 0  0.425 0.325 0  0.45 0.325 0  0.475 0.325 0  0.5 0.325 0  0.525 0.325 0  0.55 0.325 0  0.575 0.325 0  0.6 0.325 0  0.625 0.325 0  0.65 0.325 0  0.675 0.325 0  0.7 0.325 0  0.725 0.325 0  0.75 0.325 0  0.775 0.325 0  0.8 0.325 0  0.825 0.325 0  0.85 0.325 0  0.875 0.325 0  0.9 0.325 0  0.925 0.325 0  0.95 0.325 0  0.975 0.325 0  1 0.325 0  0 0.35 0  0.025 0.35 0  0.05 0.35 0  0.075 0.35 0  0.1 0.35 0  0.125 0.35 0  0.15 0.35 0  0.175 0.35 0  0.2 0.35 0  0.225 0.35 0  0.25 0.35 0  0.275 0.35 0  0.3 0.35 0  0.325 0.35 0  0.35 0.35 0  0.375 0.35 0  0.4 0.35 0  0.425 0.35 0  0.45 0.35 0  0.475 0.35 0  0.5 0.35 0  0.525 0.35 0  0.55 0.35 0  0.575 0.35 0  0.6 0.35 0  0.625 0.35 0  0.65 0.35 0  0.675 0.35 0  0.7 0.35 0  0.725 0.35 0  0.75 0.35 0  0.775 0.35 0  0.8 0.35 0  0.825 0.35 0  0.85 0.35 0  0.875 0.35 0  0.9 0.35 0  0.925 0.35 0  0.95 0.35 0  0.975 0.35 0  1 0.35 0  0 0.375 0  0.025 0.375 0  0.05 0.375 0  0.075 0.375 0  0.1 0.375 0  0.125 0.375 0  0.15 0.375 0  0.175 0.375 0  0.2 0.375 0  0.225 0.375 0  0.25 0.375 0  0.275 0.375 0  0.3 0.375 0  0.325 0.375 0  0.35 0.375 0  0.375 0.375 0  0.4 0.375 0  0.425 0.375 0  0.45 0.375 0  0.475 0.375 0  0.5 0.375 0  0.525 0.375 0  0.55 0.375 0  0.575 0.375 0  0.6 0.375 0  0.625 0.375 0  0.65 0.375 0  0.675 0.375 0  0.7 0.375 0  0.725 0.375 0  0.75 0.375 0  0.775 0.375 0  0.8 0.375 0  0.825 0.375 0  0.85 0.375 0  0.875 0.375 0  0.9 0.375 0  0.925 0.375 0  0.95 0.375 0  0.975 0.375 0  1 0.375 0  0 0.4 0  0.025 0.4 0  0.05 0.4 0  0.075 0.4 0  0.1 0.4 0  0.125 0.4 0  0.15 0.4 0  0.175 0.4 0  0.2 0.4 0  0.225 0.4 0  0.25 0.4 0  0.275 0.4 0  0.3 0.4 0  0.325 0.4 0  0.35 0.4 0  0.375 0.4 0  0.4 0.4 0  0.425 0.4 0  0.45 0.4 0  0.475 0.4 0  0.5 0.4 0  0.525 0.4 0  0.55 0.4 0  0.575 0.4 0  0.6 0.4 0  0.625 0.4 0  0.65 0.4 0  0.675 0.4 0  0.7 0.4 0  0.725 0.4 0  0.75 0.4 0  0.775 0.4 0  0.8 0.4 0  0.825 0.4 0  0.85 0.4 0  0.875 0.4 0  0.9 0.4 0  0.925 0.4 0  0.95 0.4 0  0.975 0.4 0  1 0.4 0  0 0.425 0  0.025 0.425 0  0.05 0.425 0  0.075 0.425 0  0.1 0.425 0  0.125 0.425 0  0.15 0.425 0  0.175 0.425 0  0.2 0.425 0  0.225 0.425 0  0.25 0.425 0  0.275 0.425 0  0.3 0.425 0  0.325 0.425 0  0.35 0.425 0  0.375 0.425 0  0.4 0.425 0  0.425 0.425 0  0.45 0.425 0  0.475 0.425 0  0.5 0.425 0  0.525 0.425 0  0.55 0.425 0  0.575 0.425 0  0.6 0.425 0  0.625 0.425 0  0.65 0.425 0  0.675 0.425 0  0.7 0.425 0  0.725 0.425 0  0.75 0.425 0  0.775 0.425 0  0.8 0.425 0  0.825 0.425 0  0.85 0.425 0  0.875 0.425 0  0.9 0.425 0  0.925 0.425 0  0.95 0.425 0  0.975 0.425 0  1 0.425 0  0 0.45 0  0.02
[...]
<PointData  Scalars="ControlVisualisation"> 
<DataArray  type="Float64"  Name="ControlVisualisation"  format="ascii">1.6676203249114216e-01  1.1700307490764505e-01  1.1701601440738239e-01  1.1707371280028209e-01  1.1721113186268425e-01  1.1743053782345030e-01  1.1768602771796524e-01  1.1792376884731640e-01  1.1812544004461771e-01  1.1830280720436318e-01  1.1846642264222326e-01  1.1860705897549911e-01  1.1870260540923777e-01  1.1874336580905738e-01  1.1874681232026993e-01  1.1874417406744452e-01  1.1875819999843501e-01  1.1879457218164417e-01  1.1884712516538196e-01  1.1890661819726103e-01  1.1896652941835510e-01  1.1902481309989166e-01  1.1908268671288970e-01  1.1914138033812216e-01  1.1919766717338587e-01  1.1924021156988274e-01  1.1925091245709116e-01  1.1921420281880768e-01  1.1912805122163428e-01  1.1900347531202959e-01  1.1885012097416364e-01  1.1866408224372232e-01  1.1843453454203207e-01  1.1816165477836948e-01  1.1786393812452850e-01  1.1757212451340816e-01  1.1732012456247987e-01  1.1713751370429375e-01  1.1703749143546001e-01  1.1700561705065445e-01  2.8876412639550042e-01  1.1700157636155806e-01  6.1645226960763438e-02  6.1676311953949403e-02  6.1780639224711865e-02  6.2019753730422622e-02  6.2409096767757147e-02  6.2875018300298943e-02  6.3317034252121734e-02  6.3705447193113607e-02  6.4077732634872320e-02  6.4465781977484260e-02  6.4842623970771646e-02  6.5131748555921062e-02  6.5282686388246275e-02  6.5326674829749437e-02  6.5344560155440851e-02  6.5400017019390327e-02  6.5510165582428143e-02  6.5658071544568541e-02  6.5817273978949042e-02  6.5968915590703725e-02  6.6107927734113975e-02  6.6240776294836198e-02  6.6377004302254822e-02  6.6516038056726151e-02  6.6633572035202968e-02  6.6679393560216099e-02  6.6600090428539566e-02  6.6379026951404879e-02  6.6052120955980759e-02  6.5669003222341343e-02  6.5243533327732570e-02  6.4756088939429607e-02  6.4197583985375145e-02  6.3595972214433666e-02  6.3002790755648727e-02  6.2471998480688760e-02  6.2058892366405598e-02  6.1798633832866615e-02  6.1673392334237492e-02  1.1700537804496221e-01  1.1700095117741548e-01  6.1665426168479601e-02  6.1748310996626761e-02  6.1966653344717182e-02  6.2432319900381061e-02  6.3161570741322032e-02  6.3973343220684639e-02  6.4688789323534904e-02  6.5307230694400226e-02  6.5945945181047336e-02  6.6683837270067783e-02  6.7460244123142013e-02  6.8111229282259794e-02  6.8542527105594303e-02  6.8822225665196274e-02  6.9087227514717200e-02  6.9409222257894587e-02  6.9764323229107750e-02  7.0084551553973778e-02  7.0311255827447655e-02  7.0418898564852908e-02  7.0417161265928729e-02  7.0343596699840014e-02  7.0250985722063494e-02  7.0187351677388848e-02  7.0167591900795495e-02  7.0148929816434141e-02  7.0039847235347119e-02  6.9763739990791718e-02  6.9319037136143596e-02  6.8745854448265795e-02  6.8052161849884552e-02  6.7204867367704979e-02  6.6210685477924899e-02  6.5163469946605185e-02  6.4167777884480165e-02  6.3281997205079099e-02  6.2563965530187005e-02  6.2070835092209085e-02  6.1777585635885472e-02  1.1702876698837156e-01  1.1704886953737939e-01  6.1751163349763667e-02  6.1938724442342427e-02  6.2588470304187821e-02  6.4266772898919522e-02  6.6572345760982365e-02  6.8781965453381458e-02  7.0690470861305116e-02  7.2488098198900799e-02  7.4541378599502939e-02  7.7091282102449019e-02  7.9692920355967270e-02  8.1108013790691935e-02  8.1187765913081661e-02  8.1103190865529057e-02  8.1602564199879241e-02  8.2650894852932921e-02  8.3860282772587724e-02  8.4843886869235940e-02  8.5376099054432858e-02  8.5402069309700485e-02  8.4980071959424516e-02  8.4229276244592394e-02  8.3303432907545286e-02  8.2362235643623216e-02  8.1493480999490914e-02  8.0598293819671984e-02  7.9439001841428991e-02  7.8029759526081266e-02  7.6743046543801124e-02  7.5751707158010911e-02  7.4778086151538289e-02  7.3298559148086945e-02  7.1072427497115800e-02  6.8553122666184907e-02  6.6363221617165069e-02  6.4697730743178750e-02  6.3422645582727838e-02  6.2514448627928390e-02  6.1931784484080682e-02  1.1707708119269825e-01  1.1747281751902634e-01  6.2448333464738492e-02  6.5808676279602005e-02  7.2224950279119446e-02  8.4356984931909615e-02  1.1141021087067275e-01  1.3906939110483574e-01  1.4978717627334362e-01  1.5207991724806258e-01  1.4878272795166622e-01  1.4851217102225683e-01  1.6166930688938810e-01  1.8214154104404684e-01  1.8303398455157902e-01  1.6517014540759967e-01  1.4827300308989530e-01  1.3872946452536652e-01  1.3440501692489701e-01  1.3243489376549969e-01  1.3112626899498050e-01  1.2990009284938292e-01  1.2893628477447971e-01  1.2886381104139974e-01  1.3052906979701123e-01  1.3470810958572713e-01  1.4136659773794599e-01  1.4804634159389626e-01  1.4908078993282339e-01  1.4100147036479102e-01  1.2921160880530697e-01  1.2076160048816573e-01  1.1608409198008136e-01  1.1035384357323522e-01  1.0096739686568401e-01  9.0434570214734888e-02  8.1011634206205649e-02  7.3130107191840737e-02  6.7297750535562154e-02  6.3935631962274309e-02  6.2249044640041121e-02  1.1711411785516415e-01  1.2499770521270831e-01  6.8217271694761897e-02  1.1002266120327556e-01  4.0602399785116988e-01  5.4489195112383515e-01  6.4529692389569537e-01  9.2794343343539176e-01  8.6382135763783185e-01  6.9709712516289746e-01  5.9295701431812453e-01  5.2520549415413820e-01  4.8568288819104499e-01  4.7186409501003085e-01  4.6921132771495877e-01  4.6639567467469062e-01  4.6416114495557087e-01  4.6362950488347737e-01  4.6240434309803774e-01  4.5714988035649606e-01  4.4585299842636256e-01  4.2859630816124666e-01  4.0735444548864702e-01  3.8533802922962879e-01  3.6614372167560982e-01  3.5289935463135691e-01  3.4755360658786694e-01  3.5029775629514082e-01  3.5911828591006134e-01  3.7067629085897974e-01  3.8464038729445993e-01  4.0548929450600318e-01  4.2422554241000410e-01  3.9543931887342848e-01  3.1534950960065633e-01  2.5268203919294641e-01  2.1541903203894344e-01  1.7453092642603665e-01  1.1545575686497525e-01  7.8340228424600547e-02  6.3745262249320672e-02  1.1727360746631428e-01  1.6567765563798814e-01  5.6718932454906390e-01  8.9291902083824604e-01  9.3637691226413444e-01  9.5280785589299810e-01  9.5772066979346526e-01  9.5942689992900376e-01  9.5765028807219532e-01  9.5489155322866859e-01  9.5073038998227422e-01  9.4221428913590100e-01  9.2957856770419456e-01  9.1560773920506788e-01  9.0308297470542964e-01  8.9323153546628942e-01  8.8579276435953502e-01  8.7981104230756357e-01  8.7420217570164072e-01  8.6788471589751004e-01  8.5988635049396556e-01  8.4953571138360839e-01  8.3670147220063540e-01  8.2204851356305420e-01  8.0713739556501674e-01  7.9407726609054086e-01  7.8468371334250731e-01  7.7964095023428315e-01  7.7838887817679492e-01  7.7980127190207993e-01  7.8273257316228273e-01  7.8574337013903761e-01  7.8638253145827652e-01  7.7942900292390438e-01  7.5729829583242880e-01  7.2030297640832852e-01  6.8232527889373684e-01  6.7386327060828077e-01  5.9021191345022750e-01  3.1056255545039518e-01  1.0333650359759064e-01  1.2204089966583813e-01  9.6671024452430765e-01  9.8168672986010064e-01  9.8542225053959698e-01  9.8557650510287031e-01  9.8532159717842527e-01  9.8452335264570678e-01  9.8349436741573049e-01  9.8225861099048850e-01  9.8077223366809263e-01  9.7893543599267530e-01  9.7662624137904175e-01  9.7379525101372000e-01  9.7052797936744473e-01  9.6697279121755253e-01  9.6327821497748900e-01  9.5956428006003369e-01  9.5590402390456752e-01  9.5230294503383872e-01  9.4869211509523776e-01  9.4495961256499394e-01  9.4101845588924427e-01  9.3689548563853564e-01  9.3281846459792550e-01  9.2924952504812441e-01  9.2678152403843750e-01  9.2587263420251542e-01  9.2657293557117271e-01  9.2848375617714529e-01  9.3098207460916493e-01  9.3348254121097307e-01  9.3557524900262823e-01  9.3711801852397658e-01  9.3832852688909807e-01  9.3960375591595069e-01  9.4079464499219390e-01  9.4053606511320165e-01  9.3693209670307365e-01  9.2778463931949118e-01  9.0049715511035922e-01  8.2396303190124043e-01  5.4381876028700982e-01  9.9343291685561885e-01  9.9577991893043882e-01  9.9506363218023108e-01  9.9407087542003381e-01  9.9293800855795611e-01  9.9172202956460809e-01  9.9047800710432832e-01  9.8924721905665824e-01  9.8804589852144908e-01  9.8683565377435067e-01  9.8553684294709876e-01  9.8408267714612729e-01  9.8245489747550840e-01  9.8066847107681665e-01  9.7874801462189831e-01  9.7671986467479344e-01  9.7461182696255910e-01  9.7244836231887344e-01  9.7024321278740588e-01  9.6800051392303677e-01  9.6573353777316517e-01  9.6350125992278646e-01  9.6144987176164798e-01  9.5982791520690969e-01  9.5892989444675980e-01  9.5895598336913701e-01  9.5987160419838347e-01  9.6139935028007140e-01  9.6316110080161332e-01  9.6484445791395201e-01  9.6629090124487793e-01  9.6751232996102210e-01  9.6866071920468300e-01  9.6992323877722864e-01  9.7137200833518411e-01  9.7294539850495443e-01  9.7461296722459811e-01  9.7646838412718417e-01  9.7856684374590031e-01  9.8044392727998975e-01  9.5309858862260888e-01  9.9637662534064575e-01  9.9782893015963881e-01  9.9721527007926003e-01  9.9633972467139909e-01  9.9531350057044043e-01  9.9421262584785797e-01  9.9308833183656609e-01  9.9197279148151984e-01  9.9088836725768614e-01  9.8983900014027471e-01  9.8880268302655749e-01  9.8774320479232425e-01  9.8663215191523934e-01  9.8545566398739970e-01  9.8420794644192799e-01  9.8288623441987355e-01  9.8149083937956516e-01  9.8002478828345174e-01  9.7849114657737124e-01  9.7689256268081615e-01  9.7523985421734560e-01  9.7357363736083835e-01  9.7199542282276963e-01  9.7068909286996519e-01  9.6989368197444958e-01  9.6979830815590284e-01  9.7041017792403861e-01  9.7152211639688746e-01  9.7282643290809434e-01  9.7406733259715117e-01  9.7512248290214165e-01  9.7601542403992980e-01  9.7689595392994621e-01  9.7797344586102530e-01  9.7940292327794765e-01  9.8123910766441369e-01  9.8349134599213228e-01  9.8607933543212112e-01  9.8867577614828273e-01  9.9065207348380191e-01  9.8110749165733835e-01  9.9680816881104517e-01  9.9821691389279099e-01  9.9770013732689677e-01  9.9693871813049550e-01  9.9602330129609551e-01  9.9503598673321492e-01  9.9403012671086799e-01  9.9303173952329615e-01  9.9205812606530441e-01  9.9111757102149944e-01  9.9020679187434990e-01  9.8931543137128497e-01  9.8842832273788106e-01  9.8752778352312887e-01  9.8659546663974662e-01  9.8561318515295804e-01  9.8456363392140545e-01  9.8343030680119903e-01  9.8219642190713152e-01  9.8084505366253649e-01  9.7936459680136811e-01  9.7776481461974762e-01  9.7610795822297369e-01  9.7454933659635667e-01  9.7335093051236943e-01  9.7280066156012368e-01  9.7303034552565226e-01  9.7388979972851963e-01  9.7503895622531733e-01  9.7616389708105356e-01  9.7711144665588912e-01  9.7790112915629679e-01  9.7868545620882341e-01  9.7968106427567458e-01  9.8106491536692764e-01  9.8291827302256041e-01  9.8524094197532797e-01  9.8787406627572139e-01  9.9040812520766874e-01  9.9228116280159473e-01  9.8582056315876143e-01  9.9588903905307125e-01  9.9790940071687473e-01  9.9740260393675784e-01  9.9666888495432349e-01  9.9581131725678018e-01  9.9490696406541412e-01  9.9400228374238075e-01  9.9311418594131307e-01  9.9225114320067498e-01  9.9142057876623446e-01  9.9062227187896179e-01  9.8985346814583486e-01  9.8910849805668055e-01  9.8837222006599179e-01  9.8762047012371446e-01  9.8682416584432775e-01  9.8595126242845765e-01  9.8496680542729076e-01  9.8383248442409421e-01  9.8250595243073191e-01  9.8094149143205256e-01  9.7909803620031532e-01  9.7696764133000813e-01  9.7464243257262373e-01  9.7241274154296675e-01  9.7078699118810341e-01  9.7024296540803312e-01  9.7080760814861178e-01  9.7199387411270122e-01  9.7322686477976017e-01  9.7422274488677996e-01  9.7502318848822878e-01  9.7584595086508497e-01  9.7691958477650398e-01  9.7836450528517716e-01  9.8021439985179071e-01  9.8251847994655073e-01  9.8526098884326940e-01  9.8811682898144626e-01  9.9039685100197961e-01  9.8369384678918670e-01  9.9063265375249043e-01  9.9622375527730322e-01  9.9586537007792642e-01  9.9526989151967349e-01  9.9455942537380126e-01  9.9381149923674217e-01  9.9306757499141951e-01  9.9233831310742993e-01  9.9162598352713283e-01  9.9093811044389157e-01  9.9027806351313130e-01  9.8964512262188020e-01  9.8903521901732083e-01  9.8843285484547450e-01  9.8780954322395820e-01  9.8712826629487793e-01  9.8634518525618575e-01  9.8540860270031350e-01  9.8425727886256531e-01  9.8281621074741499e-01  9.8098776124758891e-01  9.7864100887693772e-01  9.7561354334582551e-01  9.7177124504909662e-01  9.6722540156107084e-01  9.6272827468930244e-01  9.5970943535179809e-01  9.5913677278157372e-01  9.6032279071701432e-01  9.6173039442603581e-01  9.6251919754866377e-01  9.6286453164551888e-01  9.6340251744440286e-01  9.6462374208703061e-01  9.6648341442511454e-01  9.6852948773012337e-01  9.7054364541365945e-01  9.7289156755634032e-01  9.7619538136861672e-01  9.7965131890012702e-01  9.6870680020460365e-01  9.1302568819595153e-01  9.8515800294106459e-01  9.8949745754450014e-01  9.9090372541484983e-01  9.9119964101787050e-01  9.9108789208707182e-01  9.9080497873197038e-01  9.9043490444864191e-01  9.9001513344885150e-01  9.8957482112873507e-01  9.8913269767929046e-01  9.8869564122722375e-01  9.8826000928177660e-01  9.8780789937170610e-01  9.8730769951525121e-01  9.8671810620174039e-01  9.8598805896702169e-01  9.8505315775813251e-01  9.8383062653116582e-01  9.8220905596910546e-01  9.8002591329420996e-01  9.7702462265197609e-01  9.7277973523816175e-01  9.6659985494006917e-01  9.5760220025173837e-01  9.4567579155242054e-01  9.3370351682279351e-01  9.2698080533618965e-01  9.2620597994495868e-01  9.2613452253749284e-01  9.2294535638321085e-01  9.1708731739448057e-01  9.1108559399952471e-01  9.0772265278772424e-01  9.0836165591958473e-01  9.0973330843778322e-01  9.0675527639863662e-01  9.0013801542998972e-01  8.7008218457285347e-01  7.9899992612973214e-01  7.7431927946624746e-01  1.4369827331517424e-01  9.9659925621215595e-01  9.4770259385313482e-01  9.7385643737787631e-01  9.8156928289033052e-01  9.8450985067740482e-01  9.8585804035732494e-01  9.8650601089305023e-01  9.8679140704028567e-01  9.8687938221483751e-01  9.8685673804790031e-01  9.8676335908898016e-01  9.8660829971650776e-01  9.8637861496149293e-01  9.8604697548141917e-01  9.8557611867546224e-01  9.8491668577029801e-01  9.8400122117554323e-01  9.8273662056800182e-01  9.8099050950428213e-01  9.7856045624251420e-01  9.7510308538584611e-01  9.6995852789946813e-01  9.6169669082536113e-01  9.4713527697172295e-01  9.2089064467817261e-01  8.8265821068057582e-01  8.5063919186860193e-01  8.3616986117763548e-01  8.1998313002452117e-01  7.9187908557222297e-01  7.6441604681135766e-01  7.4701353741348675e-01  7.3411581668546988e-01  7.0096320222167996e-01  6.0671645606286173e-01  4.7262682740175488e-01  3.7979178980143369e-01  2.3566934028957112e-01  9.2247414631593513e-02  1.2928834449919779e-01  1.1827186377803500e-01  9.1972496906651241e-02  1.7298751253243785e-01  8.0513821906156124e-01  9.4269408333050386e-01  9.6480348237695690e-01  9.7348970130972323e-01  9.7770362517430964e-01  9.8005693529691562e-01  9.8150319375107220e-01  9.8245338183731912e-01  9.8309375660962062e-01  9.8350132590589157e-01  9.8370078963220964e-01  9.8369349718854127e-01  9.8346701292661365e-01  9.8299326931716358e-01  9.8222295140220028e-01  9.8107991384980553e-01  9.7945265174330043e-01  9.7717128193625002e-01  9.7393950420171493e-01  9.6912420447530800e-01  9.6108757217435792e-01  9.4512833479212044e-01  9.0834324684167878e-01  8.2723251080017079e-01  6.9255068260458486e-01  5.3742685484890573e-01  3.9321886362163766e-01  2.8819080792098650e-01  2.2441267572438847e-01  1.8842190528373401e-01  1.6535389961546215e-01  1.4417644512480249e-01  1.2020958162163814e-01  9.4800700662917209e-02  7.4378382734858556e-02  6.3541298590435571e-02  6.0540432572885668e-02  1.1861667584620918e-01  1.1696508748044618e-01  6.3882378166643508e-02  1.0283090349707787e-01  5.9335681819243674e-02  3.8875253704207902e-01  8.4927982077913455e-01  9.2781317365759497e-01  9.5121634787240328e-01  9.6225211274241695e-01  9.6847972256977100e-01  9.7245671708618198e-01  9.7519667753706907e-01  9.7712588397056122e-01  9.7845210910519298e-01  9.7929672499691611e-01  9.7973464178820702e-01  9.7980616988219749e-01  9.7951928507891484e-01  9.7885011716140113e-01  9.7774489533900744e-01  9.7611294863131659e-01  9.7377220010092558e-01  9.7024287184014713e-01  9.6413767912957149e-01  9.5149722004589854e-01  9.2078420961435969e-01  8.3575708375170843e-01  6.0789742647780254e-01  3.1339711134076192e-01  1.5680435174356233e-01  1.0305467168859651e-01  8.3867820748261282e-02  7.5339737741035390e-02  7.0231316756062576e-02  6.6173358775015928e-02  6.2542578935691609e-02  5.9355326919076606e-02  5.7029723880282622e-02  5.6261763854170505e-02  5.8566446184055931e-02  1.1652231388938571e-01  1.1693946782333522e-01  6.1834342762474015e-02  6.9667344080881932e-02  1.3865926034086398e-01  5.5775640335751900e-02  1.2098593630454739e-01  4.4015468184489803e-01  7.7212200313522916e-01  8.7961561068244742e-01  9.1961513254481564e-01  9.3997788784726477e-01  9.5236537413592870e-01  9.6049957425360899e-01  9.6603654307810338e-01  9.6986165219815246e-01  9.7248244839797826e-01  9.7420747020720888e-01  9.7522508536783603e-01  9.7563648499792455e-01  9.7548373126880095e-01  9.7476739123304890e-01  9.7339263554611810e-01  9.7091611941664868e-01  9.6585727164278368e-01  9.5405953963264079e-01  9.2547254331539941e-01  8.6281143159942975e-01  7.3075531130138960e-01  4.5374370993860819e-01  1.8420537323694408e-01  8.8663578628437600e-02  6.8601172413099196e-02  6.4271537870954132e-02  6.2444698898048448e-02  6.0970501792440249e-02  5.9519906346167356e-02  5.8219275853399921e-02  5.7372277898292828e-02  5.7292402824599666e-02  5.9076503076066926e-02  1.1653205883934711e-01  1.1731029262056075e-01  6.2290678311447273e-02  6.3822445129395819e-02  7.3297493012346795e-02  1.2258346173750270e-01  8.4231720789446504e-02  7.2686452065450768e-02  1.2799244845972857e-01  3.0791052995599599e-01  5.5474478990673637e-01  7.3962138957503898e-01  8.4288953748018125e-01  8.9662269354695834e-01  9.2609503105330160e-01  9.4365141508263251e-01  9.5480215546508218e-01  9.6210425271504130e-01  9.6683626996366034e-01  9.6970660840747991e-01  9.7117367290262868e-01  9.7157539072098997e-01  9.7109871108938184e-01  9.6949458568619507e-01  9.6532225859982168e-01  9.5425074273314325e-01  9.2713192289156621e-01  8.7795890637003082e-01  8.2176663121326443e-01  7.3497644366070247e-01  4.3633936596164230e-01  1.5154465535410030e-01  7.7961432767228736e-02  6.6488905944380686e-02  6.4527704217427456e-02  6.3423922582069248e-02  6.2134874979068555e-02  6.0789335099043836e-02  5.9736365829490920e-02  5.9266205739128552e-02  6.0214974645864464e-02  1.1692348376849168e-01  1.1761285460899901e-01  6.2804557484330115e-02  6.3982926309038429e-02  6.5047702134158711e-02  6.8368527787649916e-02  7.8984074625457729e-02  1.2244741601689811e-01  1.1560568965287965e-01  1.0256422010373317e-01  1.3235441417296945e-01  2.2317177476760874e-01  3.8176982550224636e-01  5.7070782169663992e-01  7.3440906453894150e-01  8.4130088561019833e-01  8.9852802426667222e-01  9.2822194477559461e-01  9.4512260595457687e-01  9.5519353245321303e-01  9.6084962229082482e-01  9.6368624489998334e-01  9.6496394311002576e-01  9.6530242853405723e-01  9.6409150546088518e-01  9.5846207741649658e-01  9.4132714274539153e-01  9.0349062480990905e-01  8.5541708192244414e-01  8.4420790642732635e-01  8.3434748002681236e-01  4.6206315868766490e-01  1.4641855719987540e-01  8.1081372136391494e-02  7.1279163850461763e-02  6.8569324970867693e-02  6.6365449218035943e-02  6.4330125906062782e-02  6.2747084877777803e-02  6.1804013290314500e-02  6.1769455499719184e-02  1.1750620204634381e-01  1.1776905125356685e-01  6.3140489665634139e-02  6.4177672327534949e-02  6.5067316382046742e-02  6.5601703592686994e-02  6.6219437893594940e-02  6.9474489695538183e-02  7.6826827834263256e-02  8.630127304