<?xml version="1.0"?>
<VTKFile type="UnstructuredGrid"  version="0.1"  >
<UnstructuredGrid>
<Piece  NumberOfPoints="1681" NumberOfCells="3200">
<Points>
<DataArray  type="Float64"  NumberOfComponents="3"  format="ascii">0 0 0  0.025 0 0  0.05 0 0  0.075 0 0  0.1 0 0  0.125 0 0  0.15 0 0  0.175 0 0  0.2 0 0  0.225 0 0  0.25 0 0  0.275 0 0  0.3 0 0  0.325 0 0  0.35 0 0  0.375 0 0  0.4 0 0  0.425 0 0  0.45 0 0  0.475 0 0  0.5 0 0  0.525 0 0  0.55 0 0  0.575 0 0  0.6 0 0  0.625 0 0  0.65 0 0  0.675 0 0  0.7 0 0  0.725 0 0  0.75 0 0  0.775 0 0  0.8 0 0  0.825 0 0  0.85 0 0  0.875 0 0  0.9 0 0  0.925 0 0  0.95 0 0  0.975 0 0  1 0 0  0 0.025 0  0.025 0.025 0  0.05 0.025 0  0.075 0.025 0  0.1 0.025 0  0.125 0.025 0  0.15 0.025 0  0.175 0.025 0  0.2 0.025 0  0.225 0.025 0  0.25 0.025 0  0.275 0.025 0  0.3 0.025 0  0.325 0.025 0  0.35 0.025 0  0.375 0.025 0  0.4 0.025 0  0.425 0.025 0  0.45 0.025 0  0.475 0.025 0  0.5 0.025 0  0.525 0.025 0  0.55 0.025 0  0.575 0.025 0  0.6 0.025 0  0.625 0.025 0  0.65 0.025 0  0.675 0.025 0  0.7 0.025 0  0.725 0.025 0  0.75 0.025 0  0.775 0.025 0  0.8 0.025 0  0.825 0.025 0  0.85 0.025 0  0.875 0.025 0  0.9 0.025 0  0.925 0.025 0  0.95 0.025 0  0.975 0.025 0  1 0.025 0  0 0.05 0  0.025 0.05 0  0.05 0.05 0  0.075 0.05 0  0.1 0.05 0  0.125 0.05 0  0.15 0.05 0  0.175 0.05 0  0.2 0.05 0  0.225 0.05 0  0.25 0.05 0  0.275 0.05 0  0.3 0.05 0  0.325 0.05 0  0.35 0.05 0  0.375 0.05 0  0.4 0.05 0  0.425 0.05 0  0.45 0.05 0  0.475 0.05 0  0.5 0.05 0  0.525 0.05 0  0.55 0.05 0  0.575 0.05 0  0.6 0.05 0  0.625 0.05 0  0.65 0.05 0  0.675 0.05 0  0.7 0.05 0  0.725 0.05 0  0.75 0.05 0  0.775 0.05 0  0.8 0.05 0  0.825 0.05 0  0.85 0.05 0  0.875 0.05 0  0.9 0.05 0  0.925 0.05 0  0.95 0.05 0  0.975 0.05 0  1 0.05 0  0 0.075 0  0.025 0.075 0  0.05 0.075 0  0.075 0.075 0  0.1 0.075 0  0.125 0.075 0  0.15 0.075 0  0.175 0.075 0  0.2 0.075 0  0.225 0.075 0  0.25 0.075 0  0.275 0.075 0  0.3 0.075 0  0.325 0.075 0  0.35 0.075 0  0.375 0.075 0  0.4 0.075 0  0.425 0.075 0  0.45 0.075 0  0.475 0.075 0  0.5 0.075 0  0.525 0.075 0  0.55 0.075 0  0.575 0.075 0  0.6 0.075 0  0.625 0.075 0  0.65 0.075 0  0.675 0.075 0  0.7 0.075 0  0.725 0.075 0  0.75 0.075 0  0.775 0.075 0  0.8 0.075 0  0.825 0.075 0  0.85 0.075 0  0.875 0.075 0  0.9 0.075 0  0.925 0.075 0  0.95 0.075 0  0.975 0.075 0  1 0.075 0  0 0.1 0  0.025 0.1 0  0.05 0.1 0  0.075 0.1 0  0.1 0.1 0  0.125 0.1 0  0.15 0.1 0  0.175 0.1 0  0.2 0.1 0  0.225 0.1 0  0.25 0.1 0  0.275 0.1 0  0.3 0.1 0  0.325 0.1 0  0.35 0.1 0  0.375 0.1 0  0.4 0.1 0  0.425 0.1 0  0.45 0.1 0  0.475 0.1 0  0.5 0.1 0  0.525 0.1 0  0.55 0.1 0  0.575 0.1 0  0.6 0.1 0  0.625 0.1 0  0.65 0.1 0  0.675 0.1 0  0.7 0.1 0  0.725 0.1 0  0.75 0.1 0  0.775 0.1 0  0.8 0.1 0  0.825 0.1 0  0.85 0.1 0  0.875 0.1 0  0.9 0.1 0  0.925 0.1 0  0.95 0.1 0  0.975 0.1 0  1 0.1 0  0 0.125 0  0.025 0.125 0  0.05 0.125 0  0.075 0.125 0  0.1 0.125 0  0.125 0.125 0  0.15 0.125 0  0.175 0.125 0  0.2 0.125 0  0.225 0.125 0  0.25 0.125 0  0.275 0.125 0  0.3 0.125 0  0.325 0.125 0  0.35 0.125 0  0.375 0.125 0  0.4 0.125 0  0.425 0.125 0  0.45 0.125 0  0.475 0.125 0  0.5 0.125 0  0.525 0.125 0  0.55 0.125 0  0.575 0.125 0  0.6 0.125 0  0.625 0.125 0  0.65 0.125 0  0.675 0.125 0  0.7 0.125 0  0.725 0.125 0  0.75 0.125 0  0.775 0.125 0  0.8 0.125 0  0.825 0.125 0  0.85 0.125 0  0.875 0.125 0  0.9 0.125 0  0.925 0.125 0  0.95 0.125 0  0.975 0.125 0  1 0.125 0  0 0.15 0  0.025 0.15 0  0.05 0.15 0  0.075 0.15 0  0.1 0.15 0  0.125 0.15 0  0.15 0.15 0  0.175 0.15 0  0.2 0.15 0  0.225 0.15 0  0.25 0.15 0  0.275 0.15 0  0.3 0.15 0  0.325 0.15 0  0.35 0.15 0  0.375 0.15 0  0.4 0.15 0  0.425 0.15 0  0.45 0.15 0  0.475 0.15 0  0.5 0.15 0  0.525 0.15 0  0.55 0.15 0  0.575 0.15 0  0.6 0.15 0  0.625 0.15 0  0.65 0.15 0  0.675 0.15 0  0.7 0.15 0  0.725 0.15 0  0.75 0.15 0  0.775 0.15 0  0.8 0.15 0  0.825 0.15 0  0.85 0.15 0  0.875 0.15 0  0.9 0.15 0  0.925 0.15 0  0.95 0.15 0  0.975 0.15 0  1 0.15 0  0 0.175 0  0.025 0.175 0  0.05 0.175 0  0.075 0.175 0  0.1 0.175 0  0.125 0.175 0  0.15 0.175 0  0.175 0.175 0  0.2 0.175 0  0.225 0.175 0  0.25 0.175 0  0.275 0.175 0  0.3 0.175 0  0.325 0.175 0  0.35 0.175 0  0.375 0.175 0  0.4 0.175 0  0.425 0.175 0  0.45 0.175 0  0.475 0.175 0  0.5 0.175 0  0.525 0.175 0  0.55 0.175 0  0.575 0.175 0  0.6 0.175 0  0.625 0.175 0  0.65 0.175 0  0.675 0.175 0  0.7 0.175 0  0.725 0.175 0  0.75 0.175 0  0.775 0.175 0  0.8 0.175 0  0.825 0.175 0  0.85 0.175 0  0.875 0.175 0  0.9 0.175 0  0.925 0.175 0  0.95 0.175 0  0.975 0.175 0  1 0.175 0  0 0.2 0  0.025 0.2 0  0.05 0.2 0  0.075 0.2 0  0.1 0.2 0  0.125 0.2 0  0.15 0.2 0  0.175 0.2 0  0.2 0.2 0  0.225 0.2 0  0.25 0.2 0  0.275 0.2 0  0.3 0.2 0  0.325 0.2 0  0.35 0.2 0  0.375 0.2 0  0.4 0.2 0  0.425 0.2 0  0.45 0.2 0  0.475 0.2 0  0.5 0.2 0  0.525 0.2 0  0.55 0.2 0  0.575 0.2 0  0.6 0.2 0  0.625 0.2 0  0.65 0.2 0  0.675 0.2 0  0.7 0.2 0  0.725 0.2 0  0.75 0.2 0  0.775 0.2 0  0.8 0.2 0  0.825 0.2 0  0.85 0.2 0  0.875 0.2 0  0.9 0.2 0  0.925 0.2 0  0.95 0.2 0  0.975 0.2 0  1 0.2 0  0 0.225 0  0.025 0.225 0  0.05 0.225 0  0.075 0.225 0  0.1 0.225 0  0.125 0.225 0  0.15 0.225 0  0.175 0.225 0  0.2 0.225 0  0.225 0.225 0  0.25 0.225 0  0.275 0.225 0  0.3 0.225 0  0.325 0.225 0  0.35 0.225 0  0.375 0.225 0  0.4 0.225 0  0.425 0.225 0  0.45 0.225 0  0.475 0.225 0  0.5 0.225 0  0.525 0.225 0  0.55 0.225 0  0.575 0.225 0  0.6 0.225 0  0.625 0.225 0  0.65 0.225 0  0.675 0.225 0  0.7 0.225 0  0.725 0.225 0  0.75 0.225 0  0.775 0.225 0  0.8 0.225 0  0.825 0.225 0  0.85 0.225 0  0.875 0.225 0  0.9 0.225 0  0.925 0.225 0  0.95 0.225 0  0.975 0.225 0  1 0.225 0  0 0.25 0  0.025 0.25 0  0.05 0.25 0  0.075 0.25 0  0.1 0.25 0  0.125 0.25 0  0.15 0.25 0  0.175 0.25 0  0.2 0.25 0  0.225 0.25 0  0.25 0.25 0  0.275 0.25 0  0.3 0.25 0  0.325 0.25 0  0.35 0.25 0  0.375 0.25 0  0.4 0.25 0  0.425 0.25 0  0.45 0.25 0  0.475 0.25 0  0.5 0.25 0  0.525 0.25 0  0.55 0.25 0  0.575 0.25 0  0.6 0.25 0  0.625 0.25 0  0.65 0.25 0  0.675 0.25 0  0.7 0.25 0  0.725 0.25 0  0.75 0.25 0  0.775 0.25 0  0.8 0.25 0  0.825 0.25 0  0.85 0.25 0  0.875 0.25 0  0.9 0.25 0  0.925 0.25 0  0.95 0.25 0  0.975 0.25 0  1 0.25 0  0 0.275 0  0.025 0.275 0  0.05 0.275 0  0.075 0.275 0  0.1 0.275 0  0.125 0.275 0  0.15 0.275 0  0.175 0.275 0  0.2 0.275 0  0.225 0.275 0  0.25 0.275 0  0.275 0.275 0  0.3 0.275 0  0.325 0.275 0  0.35 0.275 0  0.375 0.275 0  0.4 0.275 0  0.425 0.275 0  0.45 0.275 0  0.475 0.275 0  0.5 0.275 0  0.525 0.275 0  0.55 0.275 0  0.575 0.275 0  0.6 0.275 0  0.625 0.275 0  0.65 0.275 0  0.675 0.275 0  0.7 0.275 0  0.725 0.275 0  0.75 0.275 0  0.775 0.275 0  0.8 0.275 0  0.825 0.275 0  0.85 0.275 0  0.875 0.275 0  0.9 0.275 0  0.925 0.275 0  0.95 0.275 0  0.975 0.275 0  1 0.275 0  0 0.3 0  0.025 0.3 0  0.05 0.3 0  0.075 0.3 0  0.1 0.3 0  0.125 0.3 0  0.15 0.3 0  0.175 0.3 0  0.2 0.3 0  0.225 0.3 0  0.25 0.3 0  0.275 0.3 0  0.3 0.3 0  0.325 0.3 0  0.35 0.3 0  0.375 0.3 0  0.4 0.3 0  0.425 0.3 0  0.45 0.3 0  0.475 0.3 0  0.5 0.3 0  0.525 0.3 0  0.55 0.3 0  0.575 0.3 0  0.6 0.3 0  0.625 0.3 0  0.65 0.3 0  0.675 0.3 0  0.7 0.3 0  0.725 0.3 0  0.75 0.3 0  0.775 0.3 0  0.8 0.3 0  0.825 0.3 0  0.85 0.3 0  0.875 0.3 0  0.9 0.3 0  0.925 0.3 0  0.95 0.3 0  0.975 0.3 0  1 0.3 0  0 0.325 0  0.025 0.325 0  0.05 0.325 0  0.075 0.325 0  0.1 0.325 0  0.125 0.325 0  0.15 0.325 0  0.175 0.325 0  0.2 0.325 0  0.225 0.325 0  0.25 0.325 0  0.275 0.325 0  0.3 0.325 0  0.325 0.325 0  0.35 0.325 0  0.375 0.325 0  0.4 0.325 0  0.425 0.325 0  0.45 0.325 0  0.475 0.325 0  0.5 0.325 0  0.525 0.325 0  0.55 0.325 0  0.575 0.325 0  0.6 0.325 0  0.625 0.325 0  0.65 0.325 0  0.675 0.325 0  0.7 0.325 0  0.725 0.325 0  0.75 0.325 0  0.775 0.325 0  0.8 0.325 0  0.825 0.325 0  0.85 0.325 0  0.875 0.325 0  0.9 0.325 0  0.925 0.325 0  0.95 0.325 0  0.975 0.325 0  1 0.325 0  0 0.35 0  0.025 0.35 0  0.05 0.35 0  0.075 0.35 0  0.1 0.35 0  0.125 0.35 0  0.15 0.35 0  0.175 0.35 0  0.2 0.35 0  0.225 0.35 0  0.25 0.35 0  0.275 0.35 0  0.3 0.35 0  0.325 0.35 0  0.35 0.35 0  0.375 0.35 0  0.4 0.35 0  0.425 0.35 0  0.45 0.35 0  0.475 0.35 0  0.5 0.35 0  0.525 0.35 0  0.55 0.35 0  0.575 0.35 0  0.6 0.35 0  0.625 0.35 0  0.65 0.35 0  0.675 0.35 0  0.7 0.35 0  0.725 0.35 0  0.75 0.35 0  0.775 0.35 0  0.8 0.35 0  0.825 0.35 0  0.85 0.35 0  0.875 0.35 0  0.9 0.35 0  0.925 0.35 0  0.95 0.35 0  0.975 0.35 0  1 0.35 0  0 0.375 0  0.025 0.375 0  0.05 0.375 0  0.075 0.375 0  0.1 0.375 0  0.125 0.375 0  0.15 0.375 0  0.175 0.375 0  0.2 0.375 0  0.225 0.375 0  0.25 0.375 0  0.275 0.375 0  0.3 0.375 0  0.325 0.375 0  0.35 0.375 0  0.375 0.375 0  0.4 0.375 0  0.425 0.375 0  0.45 0.375 0  0.475 0.375 0  0.5 0.375 0  0.525 0.375 0  0.55 0.375 0  0.575 0.375 0  0.6 0.375 0  0.625 0.375 0  0.65 0.375 0  0.675 0.375 0  0.7 0.375 0  0.725 0.375 0  0.75 0.375 0  0.775 0.375 0  0.8 0.375 0  0.825 0.375 0  0.85 0.375 0  0.875 0.375 0  0.9 0.375 0  0.925 0.375 0  0.95 0.375 0  0.975 0.375 0  1 0.375 0  0 0.4 0  0.025 0.4 0  0.05 0.4 0  0.075 0.4 0  0.1 0.4 0  0.125 0.4 0  0.15 0.4 0  0.175 0.4 0  0.2 0.4 0  0.225 0.4 0  0.25 0.4 0  0.275 0.4 0  0.3 0.4 0  0.325 0.4 0  0.35 0.4 0  0.375 0.4 0  0.4 0.4 0  0.425 0.4 0  0.45 0.4 0  0.475 0.4 0  0.5 0.4 0  0.525 0.4 0  0.55 0.4 0  0.575 0.4 0  0.6 0.4 0  0.625 0.4 0  0.65 0.4 0  0.675 0.4 0  0.7 0.4 0  0.725 0.4 0  0.75 0.4 0  0.775 0.4 0  0.8 0.4 0  0.825 0.4 0  0.85 0.4 0  0.875 0.4 0  0.9 0.4 0  0.925 0.4 0  0.95 0.4 0  0.975 0.4 0  1 0.4 0  0 0.425 0  0.025 0.425 0  0.05 0.425 0  0.075 0.425 0  0.1 0.425 0  0.125 0.425 0  0.15 0.425 0  0.175 0.425 0  0.2 0.425 0  0.225 0.425 0  0.25 0.425 0  0.275 0.425 0  0.3 0.425 0  0.325 0.425 0  0.35 0.425 0  0.375 0.425 0  0.4 0.425 0  0.425 0.425 0  0.45 0.425 0  0.475 0.425 0  0.5 0.425 0  0.525 0.425 0  0.55 0.425 0  0.575 0.425 0  0.6 0.425 0  0.625 0.425 0  0.65 0.425 0  0.675 0.425 0  0.7 0.425 0  0.725 0.425 0  0.75 0.425 0  0.775 0.425 0  0.8 0.425 0  0.825 0.425 0  0.85 0.425 0  0.875 0.425 0  0.9 0.425 0  0.925 0.425 0  0.95 0.425 0  0.975 0.425 0  1 0.425 0  0 0.45 0  0.02
[...]
<PointData  Scalars="ControlVisualisation"> 
<DataArray  type="Float64"  Name="ControlVisualisation"  format="ascii">1.8592602365232322e-01  1.2946470566128809e-01  1.2962587614008003e-01  1.2996059811715530e-01  1.3045474862654816e-01  1.3106471759146410e-01  1.3173412819975497e-01  1.3241534209978095e-01  1.3307915804183132e-01  1.3371241711386384e-01  1.3431082566600608e-01  1.3487273274893175e-01  1.3539598403107955e-01  1.3587754000782531e-01  1.3631473163620111e-01  1.3670693688301916e-01  1.3705653818792787e-01  1.3736831148822545e-01  1.3764710684840054e-01  1.3789462489146834e-01  1.3810671355365028e-01  1.3827249153054025e-01  1.3837583645669388e-01  1.3839878919514870e-01  1.3832565145467310e-01  1.3814628294136549e-01  1.3785747260396930e-01  1.3746214253479239e-01  1.3696708460644344e-01  1.3638040623865944e-01  1.3570969189956142e-01  1.3496143206753539e-01  1.3414229172087574e-01  1.3326301402801372e-01  1.3234633291176226e-01  1.3143769892507912e-01  1.3061109732267301e-01  1.2995835913962409e-01  1.2955728605945835e-01  1.2942990915555649e-01  2.9915816651415827e-01  1.2946185910077779e-01  6.7785268942976901e-02  6.8212375546586768e-02  6.9038725692671388e-02  7.0285761391379958e-02  7.1883992704356289e-02  7.3719910576861572e-02  7.5680628723596988e-02  7.7679361629076640e-02  7.9659676513054348e-02  8.1586476512928233e-02  8.3434897897853980e-02  8.5183398842272245e-02  8.6812394155211151e-02  8.8307089979331774e-02  8.9661924473434379e-02  9.0883309531720358e-02  9.1987520521575300e-02  9.2992474745865708e-02  9.3905439823259718e-02  9.4711557971597041e-02  9.5368661508165586e-02  9.5811772403778986e-02  9.5966798538134820e-02  9.5768883149307329e-02  9.5178568982690268e-02  9.4189828900982375e-02  9.2827853417655315e-02  9.1139039377296810e-02  8.9178193244222673e-02  8.6997518656874023e-02  8.4640133346419136e-02  8.2140009415648876e-02  7.9530670477892487e-02  7.6865973817256433e-02  7.4247286674542404e-02  7.1842270295158966e-02  6.9869512623425001e-02  6.8520604984268277e-02  6.7789929331430979e-02  1.2942955480030383e-01  1.2958712317597168e-01  6.8172947194504396e-02  6.9047599552532271e-02  7.0484201514184205e-02  7.2669215601824419e-02  7.5521316309665479e-02  7.8876743536367602e-02  8.2560358150646343e-02  8.6425598898431905e-02  9.0365689387072276e-02  9.4305587778311023e-02  9.8187509786904340e-02  1.0195945089979477e-01  1.0557114837888884e-01  1.0897770622847226e-01  1.1214779783642000e-01  1.1507031396346779e-01  1.1775195663821160e-01  1.2020156018567338e-01  1.2240509779379487e-01  1.2430335198969081e-01  1.2578551736081944e-01  1.2670465819253815e-01  1.2690973815932044e-01  1.2628152198995329e-01  1.2476004437979392e-01  1.2235724330734615e-01  1.1915447951683611e-01  1.1528739018519303e-01  1.1092073922080552e-01  1.0621735141937055e-01  1.0130950488808425e-01  9.6284202091015889e-02  9.1195468251476092e-02  8.6111771588237573e-02  8.1180499770771422e-02  7.6679386885598791e-02  7.2978614593836366e-02  7.0367426837160893e-02  6.8525574044312171e-02  1.2955066095224962e-01  1.2978429440682246e-01  6.8861630725199741e-02  7.0440281940590516e-02  7.2612054844935756e-02  7.5727253713798001e-02  7.9666296938871284e-02  8.4209809574965405e-02  8.9148075291333034e-02  9.4317108673608138e-02  9.9603834955421508e-02  1.0493151498593539e-01  1.1023899631546430e-01  1.1546461631604614e-01  1.2053792588633122e-01  1.2537783339908373e-01  1.2989768581782496e-01  1.3401703056831907e-01  1.3767216013091854e-01  1.4081519514741053e-01  1.4340300762454167e-01  1.4538853432902155e-01  1.4672082799012887e-01  1.4734654828407370e-01  1.4720669079990081e-01  1.4623402478049111e-01  1.4435755836659314e-01  1.4151349840914185e-01  1.3766623200718084e-01  1.3284648022768328e-01  1.2719142878801717e-01  1.2094463441058938e-01  1.1439283261982790e-01  1.0777050103753881e-01  1.0119921343992033e-01  9.4708331226456888e-02  8.8351081553029481e-02  8.2368837831341093e-02  7.7212890342464327e-02  7.3352850829356955e-02  6.9963065503185526e-02  1.2993314373826328e-01  1.2989683220259951e-01  6.9740557390538582e-02  7.3347626490681606e-02  7.7536437242945747e-02  8.2737953617421242e-02  8.8692648373186425e-02  9.5138437433204423e-02  1.0186801233539566e-01  1.0872252554458627e-01  1.1558145453988543e-01  1.2236340289184530e-01  1.2902321269643963e-01  1.3551855195226931e-01  1.4173910435072018e-01  1.4745441635552414e-01  1.5235639054878150e-01  1.5619091728368217e-01  1.5887707244702481e-01  1.6052420946320273e-01  1.6136033093148647e-01  1.6164766607214501e-01  1.6162357140066597e-01  1.6145081955269339e-01  1.6117423217498456e-01  1.6071524472909621e-01  1.5991303410251986e-01  1.5856776484389809e-01  1.5644157677648199e-01  1.5323974554719030e-01  1.4865924955654911e-01  1.4255511656841421e-01  1.3511301686078295e-01  1.2682210337248959e-01  1.1823215259404572e-01  1.0969037507039846e-01  1.0130797029228832e-01  9.3162162301514334e-02  8.5594985049042310e-02  7.9282051085516975e-02  7.2573098944719194e-02  1.3060305889380505e-01  1.3052231645003592e-01  7.3198235719700341e-02  8.4176284519339784e-02  9.5884392744706795e-02  1.0791784307431934e-01  1.1947169850008389e-01  1.3009576292920841e-01  1.3953500433159968e-01  1.4772452006854986e-01  1.5490496957843514e-01  1.6163329989022124e-01  1.6843163944969297e-01  1.7524889046852721e-01  1.8137683277176389e-01  1.8596462522462504e-01  1.8856674202699281e-01  1.8936220798052375e-01  1.8907603588065042e-01  1.8864288667193665e-01  1.8876690499876031e-01  1.8968692366600193e-01  1.9126455495853306e-01  1.9320238399576856e-01  1.9518201090020598e-01  1.9691518608402336e-01  1.9819214971722762e-01  1.9892994363796179e-01  1.9914492116532773e-01  1.9879076284134270e-01  1.9750401687539140e-01  1.9446197650743893e-01  1.8863677051627445e-01  1.7940123371594846e-01  1.6693777562503609e-01  1.5205122521363248e-01  1.3601657596853531e-01  1.2024073828784194e-01  1.0551671685755216e-01  9.2148642915831525e-02  7.6905108320879670e-02  1.3121253923000892e-01  1.4424904906311031e-01  1.0105473625132244e-01  1.7605088587635184e-01  2.2504492152715283e-01  2.5841227180429316e-01  2.7695468047608401e-01  2.7110430705587368e-01  2.4887703013688045e-01  2.2241351785340302e-01  2.0046261840197124e-01  1.8509408672568217e-01  1.7568673491712464e-01  1.7189824954619690e-01  1.7266329140662545e-01  1.7492889528280858e-01  1.7490858486706543e-01  1.7068807408830103e-01  1.6360413026934467e-01  1.5725765914581261e-01  1.5509365962086660e-01  1.5848498971996985e-01  1.6640715373394874e-01  1.7633320894225338e-01  1.8543761599430830e-01  1.9158398145609137e-01  1.9397409095937448e-01  1.9336279660849809e-01  1.9172775822404156e-01  1.9149165665583778e-01  1.9469835099840835e-01  2.0263518854822996e-01  2.1604568276064146e-01  2.3514435953216711e-01  2.5750540068109123e-01  2.7335924898257707e-01  2.6650848980276765e-01  2.3351005847065337e-01  1.8995430325431234e-01  1.4531497250526215e-01  9.7419281735400889e-02  1.3497817835756237e-01  6.2595647949338029e-01  7.0788639284654054e-01  8.2263103118569048e-01  8.1378873664530904e-01  7.7375632320618837e-01  7.1127017467037468e-01  6.3737556168168852e-01  5.7547067383246031e-01  5.3497160171275737e-01  5.0523138016079794e-01  4.7513367623528863e-01  4.4206035640829944e-01  4.1217573519684059e-01  3.9392192406746696e-01  3.9008281276152001e-01  3.9609834803155336e-01  4.0474129878238174e-01  4.1230569202351880e-01  4.2050011896255224e-01  4.3298187197497828e-01  4.5116725101057020e-01  4.7287611412075764e-01  4.9360498687159121e-01  5.0883102724702678e-01  5.1596446555182751e-01  5.1512742079537943e-01  5.0861970907737963e-01  4.9952213809352092e-01  4.9030135388009832e-01  4.8227587145188894e-01  4.7594797116012311e-01  4.7106893957446466e-01  4.6530342181516438e-01  4.5273410453383900e-01  4.2630664258881323e-01  3.8527428308633704e-01  3.3951376871401784e-01  2.9952993582772725e-01  2.7565156423858916e-01  2.7270026184905072e-01  2.4090130239575891e-01  9.5044668627006001e-01  9.6368987017595376e-01  9.5483590407836560e-01  9.4333914738403679e-01  9.3109364140913264e-01  9.1793267644820165e-01  8.9980421014595324e-01  8.7190199618633180e-01  8.3360086137401568e-01  7.8988243851052686e-01  7.4703587654796688e-01  7.0954827554354949e-01  6.8041777175968587e-01  6.6185170534268523e-01  6.5455933507455866e-01  6.5591889690541816e-01  6.6078347121668357e-01  6.6607397604112661e-01  6.7240437672168096e-01  6.8069282547055832e-01  6.9017431387615291e-01  6.9938852529220386e-01  7.0709138543224148e-01  7.1242992222062740e-01  7.1496480476982360e-01  7.1461421932712677e-01  7.1160651031262279e-01  7.0656922330032268e-01  7.0062791025000637e-01  6.9525185877479712e-01  6.9177191437696894e-01  6.9086762953935277e-01  6.9278519623987056e-01  6.9813147433659195e-01  7.0703167260197586e-01  7.2144137324964752e-01  7.4089815965815187e-01  7.6338103884552455e-01  7.8968941354137201e-01  8.3807252917374608e-01  7.1348986415913385e-01  9.7212010308281949e-01  9.8233284236859442e-01  9.7620110216381273e-01  9.6755050982119517e-01  9.5704205369461992e-01  9.4703460355887581e-01  9.3906990691816727e-01  9.3026755394567295e-01  9.1758389777652549e-01  9.0045688638489640e-01  8.8033500920756880e-01  8.5941982127173311e-01  8.3970916251034522e-01  8.2303838405340457e-01  8.1076019552833711e-01  8.0276376073080546e-01  7.9784993124421344e-01  7.9558895771726212e-01  7.9600863787916531e-01  7.9800191970470924e-01  8.0025136993778512e-01  8.0212386549384551e-01  8.0295658284229321e-01  8.0208358414344016e-01  7.9913899587730608e-01  7.9412165843277449e-01  7.8765727509134542e-01  7.8113814940689341e-01  7.7631285079204104e-01  7.7471140351498424e-01  7.7730624491564426e-01  7.8420988116951507e-01  7.9468575453666035e-01  8.0809113350572059e-01  8.2506348911009197e-01  8.4638788996519165e-01  8.6827045472624187e-01  8.8649321072922105e-01  9.0285711741857677e-01  9.2182990608049276e-01  8.8211454110731335e-01  9.7552377610402541e-01  9.8586524594804192e-01  9.8137496873114294e-01  9.7452648912809037e-01  9.6547780248793691e-01  9.5572527639665472e-01  9.4842824536890213e-01  9.4390090371092006e-01  9.3849010323021809e-01  9.3005888032542672e-01  9.1866604079221714e-01  9.0537784290351708e-01  8.9164448269941687e-01  8.7891767003180543e-01  8.6835239525990093e-01  8.6040464531977878e-01  8.5454165943190108e-01  8.4944521529377492e-01  8.4358297826116513e-01  8.3660076130424954e-01  8.3031010016287532e-01  8.2636906789613984e-01  8.2387666174295593e-01  8.2076305810446715e-01  8.1579555153176098e-01  8.0878407634528293e-01  8.0039917927074999e-01  7.9205966513107662e-01  7.8550697527275570e-01  7.8243267887959733e-01  7.8431472626479892e-01  7.9172954317502053e-01  8.0336692685516276e-01  8.1749661109009764e-01  8.3619692272845814e-01  8.6109078769731229e-01  8.8545169616957675e-01  9.0352281978848137e-01  9.1810093384957425e-01  9.3463471925233033e-01  9.0584988584906223e-01  9.6872958407405541e-01  9.8333383829402998e-01  9.7918677871905213e-01  9.7298398637643801e-01  9.6486403482661143e-01  9.5596258956823521e-01  9.4900657860564819e-01  9.4556178332683505e-01  9.4292328356672206e-01  9.3809014210747743e-01  9.3025524014400751e-01  9.1989476856215802e-01  9.0811800494644690e-01  8.9622309132579880e-01  8.8524572611997843e-01  8.7582679590858170e-01  8.6812232698114356e-01  8.6098252921658103e-01  8.5202307317183790e-01  8.4063272577545756e-01  8.2960438306494932e-01  8.2141404164526899e-01  8.1485486483233704e-01  8.0726161575990074e-01  7.9737230062677100e-01  7.8515102160673877e-01  7.7101954743974133e-01  7.5575218930430554e-01  7.4055193478468595e-01  7.2724350805635740e-01  7.1834496988716923e-01  7.1668262613018408e-01  7.2459514389404378e-01  7.4173949887740942e-01  7.6563904790580828e-01  7.9901685057103722e-01  8.3824477251561635e-01  8.7123917319175237e-01  8.9584111065193195e-01  9.1800248110031235e-01  8.9190270079483958e-01  9.3675107792677270e-01  9.6954979423909693e-01  9.6633625233333453e-01  9.6161855133176588e-01  9.5498822263549610e-01  9.4781109716978340e-01  9.4240857378707388e-01  9.3985590511465400e-01  9.3814233219763798e-01  9.3457907352642233e-01  9.2793346862980652e-01  9.1816695853650943e-01  9.0605486468851626e-01  8.9285852387750464e-01  8.7976114211702017e-01  8.6746602108453685e-01  8.5572829698945874e-01  8.4251885763151069e-01  8.2560428109478168e-01  8.0556454945236400e-01  7.8586462004520652e-01  7.6794239341586168e-01  7.4956491163863626e-01  7.2953050736846670e-01  7.0759347608647150e-01  6.8257952457809778e-01  6.5468521439099914e-01  6.2667833819557439e-01  6.0180531530416814e-01  5.8201789303630902e-01  5.6783968791007122e-01  5.5898850872109462e-01  5.5462117933168720e-01  5.5153761395828582e-01  5.4425189446611644e-01  5.4118140161078199e-01  5.7565122354716958e-01  6.4729635050128509e-01  7.3887001125411189e-01  8.0549647249705525e-01  7.7760709586458876e-01  4.2846811713760946e-01  8.8171772728138464e-01  9.1685641725287959e-01  9.2618383903929602e-01  9.2748686508062628e-01  9.2591682264232722e-01  9.2434285289341400e-01  9.2350772282583093e-01  9.2213257648695135e-01  9.1835596162602684e-01  9.1094263139058307e-01  8.9948497595545673e-01  8.8442655638240697e-01  8.6699185823019542e-01  8.4865405089880785e-01  8.2994408770651384e-01  8.0930670733848420e-01  7.8489525044382347e-01  7.5437759162902263e-01  7.1618916051759007e-01  6.7984747844293592e-01  6.5535259467122464e-01  6.4336727017169759e-01  6.2757394286110935e-01  5.8894717666392515e-01  5.2840028692532259e-01  4.6311464458432455e-01  4.0996896012863726e-01  3.7580711670387845e-01  3.5816345142095168e-01  3.5076746347880111e-01  3.4774805960492400e-01  3.4492449264972752e-01  3.3983639625284567e-01  3.3085952927289403e-01  3.1375057807676676e-01  2.8623977118955873e-01  2.5820705343761130e-01  2.2933002278220860e-01  2.0132819833080867e-01  3.1381562308018962e-01  1.4205854074958071e-01  1.6672226928529971e-01  3.9600591149784659e-01  7.4176248003704714e-01  8.2778593311824222e-01  8.5962532440006834e-01  8.7379327487077674e-01  8.8010034370223456e-01  8.8095782268428180e-01  8.7639056666105430e-01  8.6584120239384721e-01  8.4892936638468364e-01  8.2600080785044316e-01  7.9872344007942475e-01  7.7051050455239145e-01  7.4620107301131822e-01  7.2667964388243311e-01  6.9553122396341283e-01  6.3642995233095789e-01  5.6808407677270367e-01  5.1683691280432043e-01  4.8700822223938417e-01  4.6339647505670339e-01  4.2949948863615678e-01  3.8431730141696735e-01  3.4196586784482685e-01  3.1343628573628962e-01  2.9468541107006091e-01  2.7753149847969427e-01  2.5895424715068394e-01  2.3925957321663291e-01  2.1941777864307765e-01  2.0015119127169181e-01  1.8181781775737907e-01  1.6462084745482217e-01  1.4873555328995761e-01  1.3388473687576577e-01  1.1905008255281228e-01  1.0320295788976329e-01  8.5041643900570049e-02  1.3909425601596712e-01  1.3376321183126794e-01  9.2392921510576501e-02  1.7995567781891136e-01  1.9640866328213552e-01  3.7271619963582120e-01  5.5595068150755633e-01  6.6790987257338019e-01  7.2655507493616700e-01  7.5125939672960196e-01  7.5409532198393603e-01  7.4027892486680036e-01  7.1213024737775921e-01  6.7263739949885426e-01  6.2960403120665553e-01  5.9517382057110269e-01  5.7071832174487047e-01  5.3830456126729698e-01  4.8454004389816790e-01  4.2214421648075034e-01  3.7879635504606141e-01  3.7214861613928957e-01  3.9596388534229521e-01  4.2197549215104080e-01  4.2046659916529355e-01  3.8562724412845573e-01  3.3577410501113331e-01  2.8834700971310823e-01  2.4869363289653396e-01  2.1648914755443227e-01  1.9042083535081464e-01  1.6928318015411947e-01  1.5196735847833281e-01  1.3744582604268765e-01  1.2491058896334184e-01  1.1384252322752836e-01  1.0390064716722967e-01  9.4755823716055523e-02  8.6205450094311048e-02  7.8696286617357461e-02  7.2092099601435755e-02  1.3022021117016824e-01  1.3401409521279389e-01  8.4703261548389294e-02  1.1661843818714529e-01  1.6723246087914381e-01  1.7486243091144163e-01  1.5594257953957202e-01  2.7991186652231503e-01  3.7582798375957260e-01  4.0804451094260091e-01  4.1603778978168560e-01  4.0245839556767604e-01  3.6793060354454316e-01  3.2359766184277805e-01  2.8541621677008405e-01  2.6607575488343443e-01  2.6694012268213529e-01  2.7472920263058603e-01  2.7930791711111697e-01  2.9131141601813398e-01  3.3102697541906090e-01  4.0250061310776697e-01  4.8042185416065325e-01  5.2050057922311710e-01  4.9170030237385492e-01  4.0895314336166122e-01  3.1875730695108900e-01  2.5050778030390669e-01  2.0593320392307438e-01  1.7702373119043838e-01  1.5699120249208237e-01  1.4183504882176445e-01  1.2940751582890339e-01  1.1863276155791144e-01  1.0899175274164219e-01  1.0021810855739975e-01  9.2159236666495517e-02  8.4784546947254374e-02  7.8355454717638690e-02  7.3519871863823541e-02  6.9870093319739757e-02  1.2942336548676023e-01  1.3410306591430982e-01  8.2796984101752208e-02  1.0190290478871462e-01  1.2389706229168465e-01  1.5437367548435887e-01  1.7451099755155211e-01  1.0679861080319358e-01  5.7141123957449011e-02  8.7159461824613566e-02  9.3625021076053777e-02  6.7136730111604273e-02  2.9340205155735644e-02  5.3930568813444569e-03  1.3418265134672917e-02  5.5890072327342999e-02  1.1541761194025768e-01  1.7298476333316815e-01  2.2744246124909573e-01  2.9413815169342783e-01  3.8498570303179314e-01  4.8831102099180179e-01  5.6521333364566850e-01  5.6931036535270174e-01  4.8828208563086850e-01  3.6702853392610274e-01  2.6531125994326271e-01  2.0529713803605645e-01  1.7512379083211388e-01  1.5790744266833659e-01  1.4470168520092846e-01  1.3276939674213462e-01  1.2183708035688566e-01  1.1201496885422345e-01  1.0320297299086835e-01  9.5215194878712689e-02  8.7955504432037909e-02  8.1511858965079315e-02  7.6196744475487313e-02  7.2417128926807309e-02  6.9517241642406510e-02  1.2924883017546174e-01  1.3417632964804790e-01  8.2330207694707072e-02  9.7381106602077203e-02  1.1008967734406516e-01  1.2604591251460273e-01  1.4506571128607290e-01  1.6381238072247259e-01  1.6987301849026540e-01  1.4225952583265616e-01  9.1154332485786319e-02  5.2275741105364683e-02  3.7457367974662654e-02  4.7153526095938994e-02  7.6534933689921675e-02  1.1509377006426404e-01  1.5455098683267018e-01  1.9529452133237718e-01  2.4736729352810294e-01  3.2226767763487041e-01  4.1761744671784135e-01  5.0781271570110009e-01  5.5113760896315511e-01  5.1753244395656250e-01  4.2051631137557627e-01  3.1021400589196468e-01  2.2814208727123880e-01  1.8270073082937585e-01  1.6217352344264904e-01  1.5214392231822632e-01  1.4289542337934608e-01  1.3193883373390289e-01  1.2092384873142613e-01  1.1112230935729189e-01  1.0256496288725403e-01  9.4912703530513925e-02  8.7999053398190447e-02  8.1933366762883791e-02  7.7011663637809702e-02  7.3499126663807854e-02  7.0329620459904305e-02  1.2953860843050152e-01  1.3411875168184414e-01  8.1810551328599254e-02  9.4757046755382768e-02  1.0345925154078468e-01  1.1339587291299889e-01  1.2510025749301487e-01  1.3848884296921304e-01  1.5277690421269144e-01  1.6650228661049635e-01  1.7813856152006605e-01  1.8720112726579893e-01  1.9424643509255499e-01  1.9985811266161019e-01  2.0397749844091539e-01  2.0638509212889911e-01  2.0914579605197275e-01  2.1954020775968885e-01  2.4861575109649012e-01  3.0281799223205602e-01  3.7350355773170962e-01  4.3379849284290140e-01  4.5153064197942294e-01  4.1520750618410646e-01  3.4615353393466386e-01  2.7724908009653798e-01  2.2390394729133031e-01  1.8355353849690573e-01  1.5601122425921848e-01  1.4488657111788919e-01  1.4118832031960746e-01  1.3390438759532070e-01  1.2379064669468745e-01  1.1415721216746087e-01  1.0573081578238104e-01  9.8148196162355789e-02  9.1191502016224502e-02  8.5014700204041865e-02  7.9966791284197467e-02  7.6263918987912155e-02  7.2086315277391677e-02  1.3016619339177946e-01  1.3395909519910520e-01  8.1157733828224152e-02  9.2682884780850933e-02  9.9178394609481926e-02  1.0597277881557542e-01  1.1373689391057794e-01  1.2280700271027005e-01  1.3313322593753543e-01  1.443879037