<?xml version="1.0"?>
<VTKFile type="UnstructuredGrid"  version="0.1"  >
<UnstructuredGrid>
<Piece  NumberOfPoints="1681" NumberOfCells="3200">
<Points>
<DataArray  type="Float64"  NumberOfComponents="3"  format="ascii">0 0 0  0.025 0 0  0.05 0 0  0.075 0 0  0.1 0 0  0.125 0 0  0.15 0 0  0.175 0 0  0.2 0 0  0.225 0 0  0.25 0 0  0.275 0 0  0.3 0 0  0.325 0 0  0.35 0 0  0.375 0 0  0.4 0 0  0.425 0 0  0.45 0 0  0.475 0 0  0.5 0 0  0.525 0 0  0.55 0 0  0.575 0 0  0.6 0 0  0.625 0 0  0.65 0 0  0.675 0 0  0.7 0 0  0.725 0 0  0.75 0 0  0.775 0 0  0.8 0 0  0.825 0 0  0.85 0 0  0.875 0 0  0.9 0 0  0.925 0 0  0.95 0 0  0.975 0 0  1 0 0  0 0.025 0  0.025 0.025 0  0.05 0.025 0  0.075 0.025 0  0.1 0.025 0  0.125 0.025 0  0.15 0.025 0  0.175 0.025 0  0.2 0.025 0  0.225 0.025 0  0.25 0.025 0  0.275 0.025 0  0.3 0.025 0  0.325 0.025 0  0.35 0.025 0  0.375 0.025 0  0.4 0.025 0  0.425 0.025 0  0.45 0.025 0  0.475 0.025 0  0.5 0.025 0  0.525 0.025 0  0.55 0.025 0  0.575 0.025 0  0.6 0.025 0  0.625 0.025 0  0.65 0.025 0  0.675 0.025 0  0.7 0.025 0  0.725 0.025 0  0.75 0.025 0  0.775 0.025 0  0.8 0.025 0  0.825 0.025 0  0.85 0.025 0  0.875 0.025 0  0.9 0.025 0  0.925 0.025 0  0.95 0.025 0  0.975 0.025 0  1 0.025 0  0 0.05 0  0.025 0.05 0  0.05 0.05 0  0.075 0.05 0  0.1 0.05 0  0.125 0.05 0  0.15 0.05 0  0.175 0.05 0  0.2 0.05 0  0.225 0.05 0  0.25 0.05 0  0.275 0.05 0  0.3 0.05 0  0.325 0.05 0  0.35 0.05 0  0.375 0.05 0  0.4 0.05 0  0.425 0.05 0  0.45 0.05 0  0.475 0.05 0  0.5 0.05 0  0.525 0.05 0  0.55 0.05 0  0.575 0.05 0  0.6 0.05 0  0.625 0.05 0  0.65 0.05 0  0.675 0.05 0  0.7 0.05 0  0.725 0.05 0  0.75 0.05 0  0.775 0.05 0  0.8 0.05 0  0.825 0.05 0  0.85 0.05 0  0.875 0.05 0  0.9 0.05 0  0.925 0.05 0  0.95 0.05 0  0.975 0.05 0  1 0.05 0  0 0.075 0  0.025 0.075 0  0.05 0.075 0  0.075 0.075 0  0.1 0.075 0  0.125 0.075 0  0.15 0.075 0  0.175 0.075 0  0.2 0.075 0  0.225 0.075 0  0.25 0.075 0  0.275 0.075 0  0.3 0.075 0  0.325 0.075 0  0.35 0.075 0  0.375 0.075 0  0.4 0.075 0  0.425 0.075 0  0.45 0.075 0  0.475 0.075 0  0.5 0.075 0  0.525 0.075 0  0.55 0.075 0  0.575 0.075 0  0.6 0.075 0  0.625 0.075 0  0.65 0.075 0  0.675 0.075 0  0.7 0.075 0  0.725 0.075 0  0.75 0.075 0  0.775 0.075 0  0.8 0.075 0  0.825 0.075 0  0.85 0.075 0  0.875 0.075 0  0.9 0.075 0  0.925 0.075 0  0.95 0.075 0  0.975 0.075 0  1 0.075 0  0 0.1 0  0.025 0.1 0  0.05 0.1 0  0.075 0.1 0  0.1 0.1 0  0.125 0.1 0  0.15 0.1 0  0.175 0.1 0  0.2 0.1 0  0.225 0.1 0  0.25 0.1 0  0.275 0.1 0  0.3 0.1 0  0.325 0.1 0  0.35 0.1 0  0.375 0.1 0  0.4 0.1 0  0.425 0.1 0  0.45 0.1 0  0.475 0.1 0  0.5 0.1 0  0.525 0.1 0  0.55 0.1 0  0.575 0.1 0  0.6 0.1 0  0.625 0.1 0  0.65 0.1 0  0.675 0.1 0  0.7 0.1 0  0.725 0.1 0  0.75 0.1 0  0.775 0.1 0  0.8 0.1 0  0.825 0.1 0  0.85 0.1 0  0.875 0.1 0  0.9 0.1 0  0.925 0.1 0  0.95 0.1 0  0.975 0.1 0  1 0.1 0  0 0.125 0  0.025 0.125 0  0.05 0.125 0  0.075 0.125 0  0.1 0.125 0  0.125 0.125 0  0.15 0.125 0  0.175 0.125 0  0.2 0.125 0  0.225 0.125 0  0.25 0.125 0  0.275 0.125 0  0.3 0.125 0  0.325 0.125 0  0.35 0.125 0  0.375 0.125 0  0.4 0.125 0  0.425 0.125 0  0.45 0.125 0  0.475 0.125 0  0.5 0.125 0  0.525 0.125 0  0.55 0.125 0  0.575 0.125 0  0.6 0.125 0  0.625 0.125 0  0.65 0.125 0  0.675 0.125 0  0.7 0.125 0  0.725 0.125 0  0.75 0.125 0  0.775 0.125 0  0.8 0.125 0  0.825 0.125 0  0.85 0.125 0  0.875 0.125 0  0.9 0.125 0  0.925 0.125 0  0.95 0.125 0  0.975 0.125 0  1 0.125 0  0 0.15 0  0.025 0.15 0  0.05 0.15 0  0.075 0.15 0  0.1 0.15 0  0.125 0.15 0  0.15 0.15 0  0.175 0.15 0  0.2 0.15 0  0.225 0.15 0  0.25 0.15 0  0.275 0.15 0  0.3 0.15 0  0.325 0.15 0  0.35 0.15 0  0.375 0.15 0  0.4 0.15 0  0.425 0.15 0  0.45 0.15 0  0.475 0.15 0  0.5 0.15 0  0.525 0.15 0  0.55 0.15 0  0.575 0.15 0  0.6 0.15 0  0.625 0.15 0  0.65 0.15 0  0.675 0.15 0  0.7 0.15 0  0.725 0.15 0  0.75 0.15 0  0.775 0.15 0  0.8 0.15 0  0.825 0.15 0  0.85 0.15 0  0.875 0.15 0  0.9 0.15 0  0.925 0.15 0  0.95 0.15 0  0.975 0.15 0  1 0.15 0  0 0.175 0  0.025 0.175 0  0.05 0.175 0  0.075 0.175 0  0.1 0.175 0  0.125 0.175 0  0.15 0.175 0  0.175 0.175 0  0.2 0.175 0  0.225 0.175 0  0.25 0.175 0  0.275 0.175 0  0.3 0.175 0  0.325 0.175 0  0.35 0.175 0  0.375 0.175 0  0.4 0.175 0  0.425 0.175 0  0.45 0.175 0  0.475 0.175 0  0.5 0.175 0  0.525 0.175 0  0.55 0.175 0  0.575 0.175 0  0.6 0.175 0  0.625 0.175 0  0.65 0.175 0  0.675 0.175 0  0.7 0.175 0  0.725 0.175 0  0.75 0.175 0  0.775 0.175 0  0.8 0.175 0  0.825 0.175 0  0.85 0.175 0  0.875 0.175 0  0.9 0.175 0  0.925 0.175 0  0.95 0.175 0  0.975 0.175 0  1 0.175 0  0 0.2 0  0.025 0.2 0  0.05 0.2 0  0.075 0.2 0  0.1 0.2 0  0.125 0.2 0  0.15 0.2 0  0.175 0.2 0  0.2 0.2 0  0.225 0.2 0  0.25 0.2 0  0.275 0.2 0  0.3 0.2 0  0.325 0.2 0  0.35 0.2 0  0.375 0.2 0  0.4 0.2 0  0.425 0.2 0  0.45 0.2 0  0.475 0.2 0  0.5 0.2 0  0.525 0.2 0  0.55 0.2 0  0.575 0.2 0  0.6 0.2 0  0.625 0.2 0  0.65 0.2 0  0.675 0.2 0  0.7 0.2 0  0.725 0.2 0  0.75 0.2 0  0.775 0.2 0  0.8 0.2 0  0.825 0.2 0  0.85 0.2 0  0.875 0.2 0  0.9 0.2 0  0.925 0.2 0  0.95 0.2 0  0.975 0.2 0  1 0.2 0  0 0.225 0  0.025 0.225 0  0.05 0.225 0  0.075 0.225 0  0.1 0.225 0  0.125 0.225 0  0.15 0.225 0  0.175 0.225 0  0.2 0.225 0  0.225 0.225 0  0.25 0.225 0  0.275 0.225 0  0.3 0.225 0  0.325 0.225 0  0.35 0.225 0  0.375 0.225 0  0.4 0.225 0  0.425 0.225 0  0.45 0.225 0  0.475 0.225 0  0.5 0.225 0  0.525 0.225 0  0.55 0.225 0  0.575 0.225 0  0.6 0.225 0  0.625 0.225 0  0.65 0.225 0  0.675 0.225 0  0.7 0.225 0  0.725 0.225 0  0.75 0.225 0  0.775 0.225 0  0.8 0.225 0  0.825 0.225 0  0.85 0.225 0  0.875 0.225 0  0.9 0.225 0  0.925 0.225 0  0.95 0.225 0  0.975 0.225 0  1 0.225 0  0 0.25 0  0.025 0.25 0  0.05 0.25 0  0.075 0.25 0  0.1 0.25 0  0.125 0.25 0  0.15 0.25 0  0.175 0.25 0  0.2 0.25 0  0.225 0.25 0  0.25 0.25 0  0.275 0.25 0  0.3 0.25 0  0.325 0.25 0  0.35 0.25 0  0.375 0.25 0  0.4 0.25 0  0.425 0.25 0  0.45 0.25 0  0.475 0.25 0  0.5 0.25 0  0.525 0.25 0  0.55 0.25 0  0.575 0.25 0  0.6 0.25 0  0.625 0.25 0  0.65 0.25 0  0.675 0.25 0  0.7 0.25 0  0.725 0.25 0  0.75 0.25 0  0.775 0.25 0  0.8 0.25 0  0.825 0.25 0  0.85 0.25 0  0.875 0.25 0  0.9 0.25 0  0.925 0.25 0  0.95 0.25 0  0.975 0.25 0  1 0.25 0  0 0.275 0  0.025 0.275 0  0.05 0.275 0  0.075 0.275 0  0.1 0.275 0  0.125 0.275 0  0.15 0.275 0  0.175 0.275 0  0.2 0.275 0  0.225 0.275 0  0.25 0.275 0  0.275 0.275 0  0.3 0.275 0  0.325 0.275 0  0.35 0.275 0  0.375 0.275 0  0.4 0.275 0  0.425 0.275 0  0.45 0.275 0  0.475 0.275 0  0.5 0.275 0  0.525 0.275 0  0.55 0.275 0  0.575 0.275 0  0.6 0.275 0  0.625 0.275 0  0.65 0.275 0  0.675 0.275 0  0.7 0.275 0  0.725 0.275 0  0.75 0.275 0  0.775 0.275 0  0.8 0.275 0  0.825 0.275 0  0.85 0.275 0  0.875 0.275 0  0.9 0.275 0  0.925 0.275 0  0.95 0.275 0  0.975 0.275 0  1 0.275 0  0 0.3 0  0.025 0.3 0  0.05 0.3 0  0.075 0.3 0  0.1 0.3 0  0.125 0.3 0  0.15 0.3 0  0.175 0.3 0  0.2 0.3 0  0.225 0.3 0  0.25 0.3 0  0.275 0.3 0  0.3 0.3 0  0.325 0.3 0  0.35 0.3 0  0.375 0.3 0  0.4 0.3 0  0.425 0.3 0  0.45 0.3 0  0.475 0.3 0  0.5 0.3 0  0.525 0.3 0  0.55 0.3 0  0.575 0.3 0  0.6 0.3 0  0.625 0.3 0  0.65 0.3 0  0.675 0.3 0  0.7 0.3 0  0.725 0.3 0  0.75 0.3 0  0.775 0.3 0  0.8 0.3 0  0.825 0.3 0  0.85 0.3 0  0.875 0.3 0  0.9 0.3 0  0.925 0.3 0  0.95 0.3 0  0.975 0.3 0  1 0.3 0  0 0.325 0  0.025 0.325 0  0.05 0.325 0  0.075 0.325 0  0.1 0.325 0  0.125 0.325 0  0.15 0.325 0  0.175 0.325 0  0.2 0.325 0  0.225 0.325 0  0.25 0.325 0  0.275 0.325 0  0.3 0.325 0  0.325 0.325 0  0.35 0.325 0  0.375 0.325 0  0.4 0.325 0  0.425 0.325 0  0.45 0.325 0  0.475 0.325 0  0.5 0.325 0  0.525 0.325 0  0.55 0.325 0  0.575 0.325 0  0.6 0.325 0  0.625 0.325 0  0.65 0.325 0  0.675 0.325 0  0.7 0.325 0  0.725 0.325 0  0.75 0.325 0  0.775 0.325 0  0.8 0.325 0  0.825 0.325 0  0.85 0.325 0  0.875 0.325 0  0.9 0.325 0  0.925 0.325 0  0.95 0.325 0  0.975 0.325 0  1 0.325 0  0 0.35 0  0.025 0.35 0  0.05 0.35 0  0.075 0.35 0  0.1 0.35 0  0.125 0.35 0  0.15 0.35 0  0.175 0.35 0  0.2 0.35 0  0.225 0.35 0  0.25 0.35 0  0.275 0.35 0  0.3 0.35 0  0.325 0.35 0  0.35 0.35 0  0.375 0.35 0  0.4 0.35 0  0.425 0.35 0  0.45 0.35 0  0.475 0.35 0  0.5 0.35 0  0.525 0.35 0  0.55 0.35 0  0.575 0.35 0  0.6 0.35 0  0.625 0.35 0  0.65 0.35 0  0.675 0.35 0  0.7 0.35 0  0.725 0.35 0  0.75 0.35 0  0.775 0.35 0  0.8 0.35 0  0.825 0.35 0  0.85 0.35 0  0.875 0.35 0  0.9 0.35 0  0.925 0.35 0  0.95 0.35 0  0.975 0.35 0  1 0.35 0  0 0.375 0  0.025 0.375 0  0.05 0.375 0  0.075 0.375 0  0.1 0.375 0  0.125 0.375 0  0.15 0.375 0  0.175 0.375 0  0.2 0.375 0  0.225 0.375 0  0.25 0.375 0  0.275 0.375 0  0.3 0.375 0  0.325 0.375 0  0.35 0.375 0  0.375 0.375 0  0.4 0.375 0  0.425 0.375 0  0.45 0.375 0  0.475 0.375 0  0.5 0.375 0  0.525 0.375 0  0.55 0.375 0  0.575 0.375 0  0.6 0.375 0  0.625 0.375 0  0.65 0.375 0  0.675 0.375 0  0.7 0.375 0  0.725 0.375 0  0.75 0.375 0  0.775 0.375 0  0.8 0.375 0  0.825 0.375 0  0.85 0.375 0  0.875 0.375 0  0.9 0.375 0  0.925 0.375 0  0.95 0.375 0  0.975 0.375 0  1 0.375 0  0 0.4 0  0.025 0.4 0  0.05 0.4 0  0.075 0.4 0  0.1 0.4 0  0.125 0.4 0  0.15 0.4 0  0.175 0.4 0  0.2 0.4 0  0.225 0.4 0  0.25 0.4 0  0.275 0.4 0  0.3 0.4 0  0.325 0.4 0  0.35 0.4 0  0.375 0.4 0  0.4 0.4 0  0.425 0.4 0  0.45 0.4 0  0.475 0.4 0  0.5 0.4 0  0.525 0.4 0  0.55 0.4 0  0.575 0.4 0  0.6 0.4 0  0.625 0.4 0  0.65 0.4 0  0.675 0.4 0  0.7 0.4 0  0.725 0.4 0  0.75 0.4 0  0.775 0.4 0  0.8 0.4 0  0.825 0.4 0  0.85 0.4 0  0.875 0.4 0  0.9 0.4 0  0.925 0.4 0  0.95 0.4 0  0.975 0.4 0  1 0.4 0  0 0.425 0  0.025 0.425 0  0.05 0.425 0  0.075 0.425 0  0.1 0.425 0  0.125 0.425 0  0.15 0.425 0  0.175 0.425 0  0.2 0.425 0  0.225 0.425 0  0.25 0.425 0  0.275 0.425 0  0.3 0.425 0  0.325 0.425 0  0.35 0.425 0  0.375 0.425 0  0.4 0.425 0  0.425 0.425 0  0.45 0.425 0  0.475 0.425 0  0.5 0.425 0  0.525 0.425 0  0.55 0.425 0  0.575 0.425 0  0.6 0.425 0  0.625 0.425 0  0.65 0.425 0  0.675 0.425 0  0.7 0.425 0  0.725 0.425 0  0.75 0.425 0  0.775 0.425 0  0.8 0.425 0  0.825 0.425 0  0.85 0.425 0  0.875 0.425 0  0.9 0.425 0  0.925 0.425 0  0.95 0.425 0  0.975 0.425 0  1 0.425 0  0 0.45 0  0.02
[...]
<PointData  Scalars="ControlVisualisation"> 
<DataArray  type="Float64"  Name="ControlVisualisation"  format="ascii">1.8592602364921157e-01  1.2946470565725979e-01  1.2962587613232784e-01  1.2996059810555716e-01  1.3045474861183823e-01  1.3106471757328012e-01  1.3173412817842006e-01  1.3241534207501146e-01  1.3307915801339104e-01  1.3371241708239961e-01  1.3431082563184707e-01  1.3487273271352235e-01  1.3539598399746963e-01  1.3587753997215452e-01  1.3631473159621771e-01  1.3670693684273907e-01  1.3705653814609281e-01  1.3736831144546535e-01  1.3764710680601552e-01  1.3789462484799042e-01  1.3810671350806281e-01  1.3827249148412843e-01  1.3837583641106962e-01  1.3839878914692882e-01  1.3832565140459879e-01  1.3814628289145917e-01  1.3785747255527978e-01  1.3746214248488908e-01  1.3696708455611667e-01  1.3638040618923070e-01  1.3570969185346685e-01  1.3496143202336494e-01  1.3414229167792766e-01  1.3326301398914284e-01  1.3234633287855666e-01  1.3143769889568588e-01  1.3061109729737677e-01  1.2995835912091647e-01  1.2955728604707456e-01  1.2942990915045707e-01  2.9915816651254290e-01  1.2946185909950314e-01  6.7785268941672777e-02  6.8212375546342699e-02  6.9038725693023995e-02  7.0285761391796306e-02  7.1883992704864050e-02  7.3719910576902678e-02  7.5680628721143325e-02  7.7679361625122956e-02  7.9659676509218930e-02  8.1586476505781796e-02  8.3434897889035631e-02  8.5183398839959332e-02  8.6812394151962208e-02  8.8307089974915917e-02  8.9661924467955303e-02  9.0883309527871770e-02  9.1987520517260363e-02  9.2992474744903839e-02  9.3905439820979514e-02  9.4711557967378193e-02  9.5368661500277480e-02  9.5811772397571382e-02  9.5966798527154396e-02  9.5768883136304231e-02  9.5178568973078206e-02  9.4189828891943356e-02  9.2827853409021485e-02  9.1139039363150265e-02  8.9178193228223943e-02  8.6997518645059724e-02  8.4640133337006207e-02  8.2140009404906775e-02  7.9530670468093548e-02  7.6865973810765501e-02  7.4247286668826185e-02  7.1842270288434040e-02  6.9869512618331478e-02  6.8520604981059594e-02  6.7789929329302542e-02  1.2942955479533644e-01  1.2958712317819482e-01  6.8172947192074618e-02  6.9047599550813896e-02  7.0484201514946415e-02  7.2669215604197590e-02  7.5521316314843198e-02  7.8876743542513200e-02  8.2560358153302593e-02  8.6425598901998565e-02  9.0365689392006968e-02  9.4305587779388161e-02  9.8187509784110227e-02  1.0195945090754453e-01  1.0557114838180937e-01  1.0897770622817864e-01  1.1214779783589260e-01  1.1507031396458528e-01  1.1775195664103366e-01  1.2020156019580595e-01  1.2240509780704789e-01  1.2430335200256952e-01  1.2578551737057378e-01  1.2670465820020285e-01  1.2690973815766277e-01  1.2628152198685327e-01  1.2476004438179555e-01  1.2235724330770036e-01  1.1915447951729091e-01  1.1528739018483075e-01  1.1092073921302441e-01  1.0621735141555189e-01  1.0130950488902245e-01  9.6284202086636780e-02  9.1195468248410891e-02  8.6111771588975428e-02  8.1180499769542711e-02  7.6679386883156106e-02  7.2978614591952748e-02  7.0367426835983821e-02  6.8525574041650134e-02  1.2955066094032441e-01  1.2978429441181957e-01  6.8861630721516312e-02  7.0440281935152185e-02  7.2612054842450882e-02  7.5727253713424716e-02  7.9666296938817910e-02  8.4209809574810321e-02  8.9148075291090992e-02  9.4317108673680192e-02  9.9603834956354664e-02  1.0493151498036458e-01  1.1023899630995222e-01  1.1546461631934883e-01  1.2053792588553590e-01  1.2537783340125369e-01  1.2989768581240690e-01  1.3401703056017827e-01  1.3767216014040540e-01  1.4081519514726784e-01  1.4340300763020569e-01  1.4538853432164398e-01  1.4672082799597938e-01  1.4734654829176844e-01  1.4720669080163584e-01  1.4623402477202901e-01  1.4435755835479497e-01  1.4151349839390290e-01  1.3766623199494243e-01  1.3284648021945608e-01  1.2719142876907741e-01  1.2094463439517825e-01  1.1439283261309886e-01  1.0777050103105504e-01  1.0119921342953292e-01  9.4708331218718675e-02  8.8351081544263618e-02  8.2368837822669377e-02  7.7212890336876797e-02  7.3352850825942964e-02  6.9963065498235777e-02  1.2993314371908424e-01  1.2989683220887641e-01  6.9740557387549570e-02  7.3347626483686743e-02  7.7536437235551522e-02  8.2737953614206425e-02  8.8692648370583160e-02  9.5138437422671640e-02  1.0186801232599819e-01  1.0872252553467286e-01  1.1558145452835797e-01  1.2236340287395099e-01  1.2902321268592593e-01  1.3551855194803925e-01  1.4173910433265821e-01  1.4745441634971571e-01  1.5235639055279779e-01  1.5619091727844378e-01  1.5887707246155630e-01  1.6052420948842633e-01  1.6136033094320346e-01  1.6164766607341668e-01  1.6162357141766825e-01  1.6145081957416230e-01  1.6117423218398777e-01  1.6071524473544968e-01  1.5991303410750707e-01  1.5856776485022081e-01  1.5644157676077947e-01  1.5323974553540770e-01  1.4865924954952420e-01  1.4255511656267575e-01  1.3511301686328919e-01  1.2682210337218897e-01  1.1823215258652475e-01  1.0969037505368068e-01  1.0130797027553257e-01  9.3162162288376288e-02  8.5594985043051602e-02  7.9282051079984817e-02  7.2573098937612684e-02  1.3060305886592299e-01  1.3052231645548049e-01  7.3198235715781046e-02  8.4176284510697127e-02  9.5884392737360033e-02  1.0791784307518826e-01  1.1947169850726497e-01  1.3009576291649441e-01  1.3953500430849003e-01  1.4772452004406683e-01  1.5490496954090499e-01  1.6163329984042793e-01  1.6843163942223197e-01  1.7524889045838474e-01  1.8137683273538391e-01  1.8596462520868307e-01  1.8856674201561976e-01  1.8936220797536160e-01  1.8907603588615235e-01  1.8864288670121432e-01  1.8876690504996532e-01  1.8968692369447904e-01  1.9126455497973002e-01  1.9320238400934586e-01  1.9518201089833315e-01  1.9691518607884642e-01  1.9819214973552129e-01  1.9892994364875874e-01  1.9914492114756152e-01  1.9879076283238259e-01  1.9750401688416264e-01  1.9446197652960515e-01  1.8863677052061417e-01  1.7940123371476041e-01  1.6693777563513337e-01  1.5205122521496664e-01  1.3601657595499606e-01  1.2024073827690544e-01  1.0551671685416837e-01  9.2148642910102441e-02  7.6905108309604800e-02  1.3121253919490017e-01  1.4424904907004144e-01  1.0105473624533137e-01  1.7605088589822193e-01  2.2504492156600892e-01  2.5841227188117372e-01  2.7695468054796646e-01  2.7110430708294991e-01  2.4887703012911500e-01  2.2241351785330549e-01  2.0046261834064080e-01  1.8509408661220420e-01  1.7568673485988592e-01  1.7189824957644656e-01  1.7266329138203970e-01  1.7492889526603042e-01  1.7490858486360131e-01  1.7068807411303979e-01  1.6360413035344104e-01  1.5725765921809415e-01  1.5509365971534367e-01  1.5848498981081366e-01  1.6640715380888740e-01  1.7633320899470095e-01  1.8543761605568482e-01  1.9158398151884984e-01  1.9397409100492444e-01  1.9336279665727885e-01  1.9172775820821275e-01  1.9149165666758247e-01  1.9469835104286723e-01  2.0263518859610272e-01  2.1604568279476724e-01  2.3514435955381621e-01  2.5750540072907857e-01  2.7335924902390940e-01  2.6650848980178782e-01  2.3351005845337419e-01  1.8995430324418033e-01  1.4531497248586553e-01  9.7419281702737906e-02  1.3497817830641637e-01  6.2595647952595335e-01  7.0788639296547284e-01  8.2263103122126147e-01  8.1378873670938534e-01  7.7375632334007605e-01  7.1127017485613098e-01  6.3737556182638666e-01  5.7547067389514173e-01  5.3497160170687019e-01  5.0523138012904234e-01  4.7513367616472302e-01  4.4206035635662971e-01  4.1217573524031959e-01  3.9392192408700366e-01  3.9008281268605993e-01  3.9609834796196192e-01  4.0474129880796966e-01  4.1230569215128654e-01  4.2050011909271667e-01  4.3298187208540123e-01  4.5116725112018691e-01  4.7287611413140229e-01  4.9360498689755133e-01  5.0883102733387364e-01  5.1596446567333676e-01  5.1512742086671948e-01  5.0861970907398146e-01  4.9952213804640055e-01  4.9030135384270807e-01  4.8227587145520839e-01  4.7594797116667670e-01  4.7106893958824464e-01  4.6530342185529827e-01  4.5273410469514480e-01  4.2630664270535895e-01  3.8527428315758411e-01  3.3951376877167155e-01  2.9952993585958693e-01  2.7565156421531511e-01  2.7270026177818019e-01  2.4090130227595610e-01  9.5044668626966899e-01  9.6368987017968222e-01  9.5483590408312402e-01  9.4333914739317282e-01  9.3109364143861473e-01  9.1793267649069743e-01  8.9980421019201084e-01  8.7190199624102938e-01  8.3360086141211098e-01  7.8988243856892737e-01  7.4703587659420445e-01  7.0954827559443923e-01  6.8041777183918695e-01  6.6185170541792238e-01  6.5455933514545817e-01  6.5591889690725269e-01  6.6078347123957148e-01  6.6607397615874742e-01  6.7240437680789333e-01  6.8069282557562860e-01  6.9017431398485529e-01  6.9938852527331608e-01  7.0709138545020001e-01  7.1242992237592040e-01  7.1496480491797787e-01  7.1461421941973369e-01  7.1160651035822031e-01  7.0656922331020477e-01  7.0062791022317095e-01  6.9525185882087648e-01  6.9177191440068764e-01  6.9086762957638737e-01  6.9278519628865665e-01  6.9813147445959611e-01  7.0703167268734557e-01  7.2144137326568381e-01  7.4089815962731287e-01  7.6338103879534691e-01  7.8968941345848653e-01  8.3807252913534280e-01  7.1348986406814996e-01  9.7212010308057284e-01  9.8233284236909546e-01  9.7620110216516376e-01  9.6755050982304969e-01  9.5704205370259421e-01  9.4703460357231106e-01  9.3906990692816716e-01  9.3026755395030292e-01  9.1758389778748783e-01  9.0045688637759680e-01  8.8033500919830288e-01  8.5941982129817740e-01  8.3970916256975603e-01  8.2303838412466046e-01  8.1076019568142321e-01  8.0276376080965983e-01  7.9784993122952252e-01  7.9558895772586236e-01  7.9600863786325426e-01  7.9800191976816470e-01  8.0025137003691860e-01  8.0212386554767245e-01  8.0295658287159277e-01  8.0208358421010006e-01  7.9913899592998983e-01  7.9412165841417248e-01  7.8765727497370652e-01  7.8113814931946912e-01  7.7631285073059697e-01  7.7471140351264622e-01  7.7730624488801081e-01  7.8420988114920676e-01  7.9468575454278656e-01  8.0809113355052975e-01  8.2506348912630989e-01  8.4638788993679526e-01  8.6827045468738406e-01  8.8649321069592779e-01  9.0285711739081564e-01  9.2182990606889603e-01  8.8211454109180965e-01  9.7552377610420749e-01  9.8586524594874270e-01  9.8137496873217833e-01  9.7452648913005935e-01  9.6547780249134174e-01  9.5572527640206251e-01  9.4842824537462433e-01  9.4390090370785495e-01  9.3849010322959447e-01  9.3005888031078099e-01  9.1866604077103187e-01  9.0537784292010115e-01  8.9164448273817254e-01  8.7891767009442445e-01  8.6835239535764819e-01  8.6040464538700046e-01  8.5454165940850213e-01  8.4944521522713223e-01  8.4358297819792261e-01  8.3660076130546590e-01  8.3031010025827745e-01  8.2636906801051779e-01  8.2387666178497243e-01  8.2076305815837280e-01  8.1579555146478644e-01  8.0878407625520643e-01  8.0039917909762548e-01  7.9205966503324288e-01  7.8550697521349055e-01  7.8243267884162138e-01  7.8431472622842391e-01  7.9172954313240496e-01  8.0336692683112043e-01  8.1749661109284233e-01  8.3619692271753709e-01  8.6109078765875158e-01  8.8545169614261221e-01  9.0352281977551241e-01  9.1810093383053548e-01  9.3463471924894392e-01  9.0584988584120330e-01  9.6872958407347010e-01  9.8333383829416154e-01  9.7918677871847648e-01  9.7298398637502470e-01  9.6486403482615812e-01  9.5596258956996250e-01  9.4900657860880810e-01  9.4556178332634466e-01  9.4292328356379107e-01  9.3809014210427422e-01  9.3025524013962124e-01  9.1989476857620800e-01  9.0811800498365869e-01  8.9622309136252098e-01  8.8524572616390329e-01  8.7582679594552371e-01  8.6812232696453828e-01  8.6098252914721141e-01  8.5202307309581871e-01  8.4063272577469650e-01  8.2960438314490781e-01  8.2141404176976995e-01  8.1485486489346037e-01  8.0726161572022470e-01  7.9737230058376374e-01  7.8515102149708127e-01  7.7101954732471745e-01  7.5575218923767873e-01  7.4055193477504178e-01  7.2724350807604510e-01  7.1834496979483609e-01  7.1668262604722299e-01  7.2459514383563206e-01  7.4173949885673918e-01  7.6563904784969272e-01  7.9901685052350002e-01  8.3824477250024543e-01  8.7123917320309252e-01  8.9584111064985417e-01  9.1800248110189320e-01  8.9190270079229383e-01  9.3675107791691969e-01  9.6954979423777410e-01  9.6633625233211473e-01  9.6161855132914853e-01  9.5498822263210303e-01  9.4781109716723122e-01  9.4240857378905141e-01  9.3985590511282568e-01  9.3814233219342791e-01  9.3457907353227165e-01  9.2793346865152015e-01  9.1816695855596031e-01  9.0605486471931884e-01  8.9285852387658304e-01  8.7976114211342649e-01  8.6746602109874860e-01  8.5572829694931218e-01  8.4251885758484923e-01  8.2560428103018524e-01  8.0556454941261657e-01  7.8586462014599512e-01  7.6794239351420301e-01  7.4956491168190520e-01  7.2953050735701763e-01  7.0759347609230805e-01  6.8257952458749660e-01  6.5468521434832583e-01  6.2667833815664664e-01  6.0180531534091064e-01  5.8201789308001495e-01  5.6783968784480754e-01  5.5898850865894845e-01  5.5462117932088195e-01  5.5153761394060075e-01  5.4425189445964506e-01  5.4118140157654349e-01  5.7565122358149334e-01  6.4729635058213053e-01  7.3887001134830599e-01  8.0549647255533163e-01  7.7760709584161203e-01  4.2846811696241349e-01  8.8171772725580488e-01  9.1685641725379796e-01  9.2618383904357848e-01  9.2748686507681610e-01  9.2591682263304442e-01  9.2434285288457330e-01  9.2350772282339288e-01  9.2213257649005986e-01  9.1835596163909383e-01  9.1094263143625631e-01  8.9948497601573751e-01  8.8442655643155643e-01  8.6699185825120140e-01  8.4865405088408497e-01  8.2994408766542216e-01  8.0930670724789755e-01  7.8489525037320595e-01  7.5437759157267337e-01  7.1618916041363834e-01  6.7984747841126447e-01  6.5535259471736063e-01  6.4336727022623796e-01  6.2757394286433432e-01  5.8894717670151742e-01  5.2840028702397801e-01  4.6311464462489971e-01  4.0996896013465284e-01  3.7580711667333833e-01  3.5816345141322220e-01  3.5076746343146981e-01  3.4774805954577886e-01  3.4492449261749297e-01  3.3983639618102779e-01  3.3085952924314282e-01  3.1375057806055967e-01  2.8623977121620986e-01  2.5820705346554479e-01  2.2933002287483306e-01  2.0132819847998673e-01  3.1381562313229194e-01  1.4205854071486801e-01  1.6672226924704014e-01  3.9600591145886882e-01  7.4176248002535572e-01  8.2778593313635696e-01  8.5962532440031325e-01  8.7379327483932923e-01  8.8010034369672085e-01  8.8095782269725365e-01  8.7639056671809135e-01  8.6584120247985386e-01  8.4892936648287998e-01  8.2600080794544217e-01  7.9872344010815799e-01  7.7051050460867210e-01  7.4620107297328309e-01  7.2667964378813998e-01  6.9553122385130284e-01  6.3642995222971799e-01  5.6808407665205929e-01  5.1683691279141841e-01  4.8700822225863166e-01  4.6339647515311255e-01  4.2949948869559196e-01  3.8431730156018767e-01  3.4196586798075207e-01  3.1343628583264382e-01  2.9468541111334884e-01  2.7753149846321307e-01  2.5895424713105752e-01  2.3925957320247562e-01  2.1941777862567322e-01  2.0015119124011133e-01  1.8181781772173564e-01  1.6462084743000283e-01  1.4873555329507010e-01  1.3388473688913347e-01  1.1905008255456652e-01  1.0320295788777870e-01  8.5041643896542424e-02  1.3909425602080006e-01  1.3376321179048728e-01  9.2392921504239237e-02  1.7995567781096089e-01  1.9640866323379833e-01  3.7271619968028130e-01  5.5595068155399541e-01  6.6790987254133527e-01  7.2655507492252147e-01  7.5125939677841891e-01  7.5409532209328922e-01  7.4027892503095827e-01  7.1213024752886511e-01  6.7263739966589065e-01  6.2960403129927567e-01  5.9517382065155833e-01  5.7071832179863025e-01  5.3830456124784787e-01  4.8454004386130922e-01  4.2214421634528826e-01  3.7879635496195535e-01  3.7214861621211687e-01  3.9596388542890515e-01  4.2197549221751901e-01  4.2046659920053020e-01  3.8562724427311940e-01  3.3577410515570333e-01  2.8834700977746519e-01  2.4869363291793070e-01  2.1648914753763260e-01  1.9042083537789317e-01  1.6928318016098487e-01  1.5196735845975060e-01  1.3744582601257793e-01  1.2491058892763296e-01  1.1384252321828038e-01  1.0390064716579091e-01  9.4755823718967944e-02  8.6205450094188910e-02  7.8696286609686195e-02  7.2092099593588005e-02  1.3022021114729559e-01  1.3401409516496798e-01  8.4703261534979937e-02  1.1661843817531074e-01  1.6723246084405946e-01  1.7486243087780476e-01  1.5594257945339357e-01  2.7991186641431959e-01  3.7582798367750958e-01  4.0804451090506816e-01  4.1603778972826999e-01  4.0245839551300944e-01  3.6793060352647317e-01  3.2359766182378175e-01  2.8541621681373242e-01  2.6607575488275986e-01  2.6694012272482781e-01  2.7472920252472682e-01  2.7930791700017210e-01  2.9131141588215070e-01  3.3102697526713526e-01  4.0250061303141921e-01  4.8042185416014577e-01  5.2050057925729720e-01  4.9170030239461210e-01  4.0895314341256206e-01  3.1875730695972765e-01  2.5050778028095833e-01  2.0593320391460040e-01  1.7702373116433268e-01  1.5699120249234752e-01  1.4183504880572109e-01  1.2940751580038964e-01  1.1863276153378935e-01  1.0899175271754159e-01  1.0021810854395749e-01  9.2159236659490607e-02  8.4784546950262565e-02  7.8355454714295655e-02  7.3519871857283994e-02  6.9870093308212589e-02  1.2942336544918268e-01  1.3410306586228971e-01  8.2796984087481929e-02  1.0190290477671655e-01  1.2389706227080124e-01  1.5437367546769770e-01  1.7451099754579430e-01  1.0679861078927842e-01  5.7141123964638378e-02  8.7159461817423303e-02  9.3625021055768004e-02  6.7136729995099648e-02  2.9340205103659082e-02  5.3930568758856394e-03  1.3418265129660371e-02  5.5890072311586020e-02  1.1541761194183564e-01  1.7298476323704928e-01  2.2744246114947900e-01  2.9413815162761131e-01  3.8498570293341727e-01  4.8831102089492567e-01  5.6521333362788451e-01  5.6931036536053559e-01  4.8828208563664555e-01  3.6702853395755025e-01  2.6531125995503835e-01  2.0529713801306937e-01  1.7512379083810484e-01  1.5790744265927986e-01  1.4470168517793169e-01  1.3276939672949312e-01  1.2183708033352407e-01  1.1201496884609277e-01  1.0320297298435810e-01  9.5215194873705805e-02  8.7955504429483355e-02  8.1511858970797574e-02  7.6196744476371314e-02  7.2417128917958040e-02  6.9517241627447837e-02  1.2924883012682206e-01  1.3417632959460687e-01  8.2330207676419687e-02  9.7381106577716675e-02  1.1008967731657390e-01  1.2604591249994926e-01  1.4506571128930498e-01  1.6381238071660684e-01  1.6987301848533454e-01  1.4225952581414247e-01  9.1154332452390754e-02  5.2275741079370421e-02  3.7457367949592417e-02  4.7153526065120355e-02  7.6534933622820017e-02  1.1509376996764725e-01  1.5455098676200488e-01  1.9529452124696392e-01  2.4736729346851075e-01  3.2226767753775853e-01  4.1761744658246114e-01  5.0781271559890262e-01  5.5113760890703190e-01  5.1753244392217257e-01  4.2051631135019824e-01  3.1021400590674725e-01  2.2814208728415811e-01  1.8270073078236659e-01  1.6217352342038427e-01  1.5214392229865659e-01  1.4289542334203195e-01  1.3193883370131113e-01  1.2092384870350360e-01  1.1112230934608358e-01  1.0256496286667520e-01  9.4912703519834135e-02  8.7999053406210739e-02  8.1933366770278654e-02  7.7011663636707847e-02  7.3499126651310170e-02  7.0329620439315663e-02  1.2953860837318876e-01  1.3411875163158574e-01  8.1810551317332669e-02  9.4757046739902678e-02  1.0345925152075421e-01  1.1339587290136494e-01  1.2510025749141884e-01  1.3848884296675976e-01  1.5277690420447715e-01  1.6650228660770061e-01  1.7813856150816579e-01  1.8720112724581911e-01  1.9424643508767428e-01  1.9985811265307307e-01  2.0397749840537047e-01  2.0638509208674469e-01  2.0914579604368719e-01  2.1954020770523466e-01  2.4861575101409944e-01  3.0281799208869942e-01  3.7350355758703468e-01  4.3379849271806137e-01  4.5153064187372355e-01  4.1520750612214669e-01  3.4615353393871451e-01  2.7724908019274513e-01  2.2390394735090977e-01  1.8355353850062597e-01  1.5601122427324909e-01  1.4488657110278938e-01  1.4118832028545339e-01  1.3390438757640155e-01  1.2379064667264854e-01  1.1415721216613486e-01  1.0573081577924300e-01  9.8148196159596510e-02  9.1191502005534775e-02  8.5014700203653218e-02  7.9966791275331697e-02  7.6263918974778910e-02  7.2086315255316571e-02  1.3016619332311377e-01  1.3395909514863752e-01  8.1157733820660521e-02  9.2682884776196822e-02  9.9178394590812319e-02  1.0597277880211346e-01  1.1373689389948381e-01  1.2280700269967167e-01  1.3313322592944887e-01  1.443879037