<?xml version="1.0"?>
<VTKFile type="UnstructuredGrid"  version="0.1"  >
<UnstructuredGrid>
<Piece  NumberOfPoints="1681" NumberOfCells="3200">
<Points>
<DataArray  type="Float64"  NumberOfComponents="3"  format="ascii">0 0 0  0.025 0 0  0.05 0 0  0.075 0 0  0.1 0 0  0.125 0 0  0.15 0 0  0.175 0 0  0.2 0 0  0.225 0 0  0.25 0 0  0.275 0 0  0.3 0 0  0.325 0 0  0.35 0 0  0.375 0 0  0.4 0 0  0.425 0 0  0.45 0 0  0.475 0 0  0.5 0 0  0.525 0 0  0.55 0 0  0.575 0 0  0.6 0 0  0.625 0 0  0.65 0 0  0.675 0 0  0.7 0 0  0.725 0 0  0.75 0 0  0.775 0 0  0.8 0 0  0.825 0 0  0.85 0 0  0.875 0 0  0.9 0 0  0.925 0 0  0.95 0 0  0.975 0 0  1 0 0  0 0.025 0  0.025 0.025 0  0.05 0.025 0  0.075 0.025 0  0.1 0.025 0  0.125 0.025 0  0.15 0.025 0  0.175 0.025 0  0.2 0.025 0  0.225 0.025 0  0.25 0.025 0  0.275 0.025 0  0.3 0.025 0  0.325 0.025 0  0.35 0.025 0  0.375 0.025 0  0.4 0.025 0  0.425 0.025 0  0.45 0.025 0  0.475 0.025 0  0.5 0.025 0  0.525 0.025 0  0.55 0.025 0  0.575 0.025 0  0.6 0.025 0  0.625 0.025 0  0.65 0.025 0  0.675 0.025 0  0.7 0.025 0  0.725 0.025 0  0.75 0.025 0  0.775 0.025 0  0.8 0.025 0  0.825 0.025 0  0.85 0.025 0  0.875 0.025 0  0.9 0.025 0  0.925 0.025 0  0.95 0.025 0  0.975 0.025 0  1 0.025 0  0 0.05 0  0.025 0.05 0  0.05 0.05 0  0.075 0.05 0  0.1 0.05 0  0.125 0.05 0  0.15 0.05 0  0.175 0.05 0  0.2 0.05 0  0.225 0.05 0  0.25 0.05 0  0.275 0.05 0  0.3 0.05 0  0.325 0.05 0  0.35 0.05 0  0.375 0.05 0  0.4 0.05 0  0.425 0.05 0  0.45 0.05 0  0.475 0.05 0  0.5 0.05 0  0.525 0.05 0  0.55 0.05 0  0.575 0.05 0  0.6 0.05 0  0.625 0.05 0  0.65 0.05 0  0.675 0.05 0  0.7 0.05 0  0.725 0.05 0  0.75 0.05 0  0.775 0.05 0  0.8 0.05 0  0.825 0.05 0  0.85 0.05 0  0.875 0.05 0  0.9 0.05 0  0.925 0.05 0  0.95 0.05 0  0.975 0.05 0  1 0.05 0  0 0.075 0  0.025 0.075 0  0.05 0.075 0  0.075 0.075 0  0.1 0.075 0  0.125 0.075 0  0.15 0.075 0  0.175 0.075 0  0.2 0.075 0  0.225 0.075 0  0.25 0.075 0  0.275 0.075 0  0.3 0.075 0  0.325 0.075 0  0.35 0.075 0  0.375 0.075 0  0.4 0.075 0  0.425 0.075 0  0.45 0.075 0  0.475 0.075 0  0.5 0.075 0  0.525 0.075 0  0.55 0.075 0  0.575 0.075 0  0.6 0.075 0  0.625 0.075 0  0.65 0.075 0  0.675 0.075 0  0.7 0.075 0  0.725 0.075 0  0.75 0.075 0  0.775 0.075 0  0.8 0.075 0  0.825 0.075 0  0.85 0.075 0  0.875 0.075 0  0.9 0.075 0  0.925 0.075 0  0.95 0.075 0  0.975 0.075 0  1 0.075 0  0 0.1 0  0.025 0.1 0  0.05 0.1 0  0.075 0.1 0  0.1 0.1 0  0.125 0.1 0  0.15 0.1 0  0.175 0.1 0  0.2 0.1 0  0.225 0.1 0  0.25 0.1 0  0.275 0.1 0  0.3 0.1 0  0.325 0.1 0  0.35 0.1 0  0.375 0.1 0  0.4 0.1 0  0.425 0.1 0  0.45 0.1 0  0.475 0.1 0  0.5 0.1 0  0.525 0.1 0  0.55 0.1 0  0.575 0.1 0  0.6 0.1 0  0.625 0.1 0  0.65 0.1 0  0.675 0.1 0  0.7 0.1 0  0.725 0.1 0  0.75 0.1 0  0.775 0.1 0  0.8 0.1 0  0.825 0.1 0  0.85 0.1 0  0.875 0.1 0  0.9 0.1 0  0.925 0.1 0  0.95 0.1 0  0.975 0.1 0  1 0.1 0  0 0.125 0  0.025 0.125 0  0.05 0.125 0  0.075 0.125 0  0.1 0.125 0  0.125 0.125 0  0.15 0.125 0  0.175 0.125 0  0.2 0.125 0  0.225 0.125 0  0.25 0.125 0  0.275 0.125 0  0.3 0.125 0  0.325 0.125 0  0.35 0.125 0  0.375 0.125 0  0.4 0.125 0  0.425 0.125 0  0.45 0.125 0  0.475 0.125 0  0.5 0.125 0  0.525 0.125 0  0.55 0.125 0  0.575 0.125 0  0.6 0.125 0  0.625 0.125 0  0.65 0.125 0  0.675 0.125 0  0.7 0.125 0  0.725 0.125 0  0.75 0.125 0  0.775 0.125 0  0.8 0.125 0  0.825 0.125 0  0.85 0.125 0  0.875 0.125 0  0.9 0.125 0  0.925 0.125 0  0.95 0.125 0  0.975 0.125 0  1 0.125 0  0 0.15 0  0.025 0.15 0  0.05 0.15 0  0.075 0.15 0  0.1 0.15 0  0.125 0.15 0  0.15 0.15 0  0.175 0.15 0  0.2 0.15 0  0.225 0.15 0  0.25 0.15 0  0.275 0.15 0  0.3 0.15 0  0.325 0.15 0  0.35 0.15 0  0.375 0.15 0  0.4 0.15 0  0.425 0.15 0  0.45 0.15 0  0.475 0.15 0  0.5 0.15 0  0.525 0.15 0  0.55 0.15 0  0.575 0.15 0  0.6 0.15 0  0.625 0.15 0  0.65 0.15 0  0.675 0.15 0  0.7 0.15 0  0.725 0.15 0  0.75 0.15 0  0.775 0.15 0  0.8 0.15 0  0.825 0.15 0  0.85 0.15 0  0.875 0.15 0  0.9 0.15 0  0.925 0.15 0  0.95 0.15 0  0.975 0.15 0  1 0.15 0  0 0.175 0  0.025 0.175 0  0.05 0.175 0  0.075 0.175 0  0.1 0.175 0  0.125 0.175 0  0.15 0.175 0  0.175 0.175 0  0.2 0.175 0  0.225 0.175 0  0.25 0.175 0  0.275 0.175 0  0.3 0.175 0  0.325 0.175 0  0.35 0.175 0  0.375 0.175 0  0.4 0.175 0  0.425 0.175 0  0.45 0.175 0  0.475 0.175 0  0.5 0.175 0  0.525 0.175 0  0.55 0.175 0  0.575 0.175 0  0.6 0.175 0  0.625 0.175 0  0.65 0.175 0  0.675 0.175 0  0.7 0.175 0  0.725 0.175 0  0.75 0.175 0  0.775 0.175 0  0.8 0.175 0  0.825 0.175 0  0.85 0.175 0  0.875 0.175 0  0.9 0.175 0  0.925 0.175 0  0.95 0.175 0  0.975 0.175 0  1 0.175 0  0 0.2 0  0.025 0.2 0  0.05 0.2 0  0.075 0.2 0  0.1 0.2 0  0.125 0.2 0  0.15 0.2 0  0.175 0.2 0  0.2 0.2 0  0.225 0.2 0  0.25 0.2 0  0.275 0.2 0  0.3 0.2 0  0.325 0.2 0  0.35 0.2 0  0.375 0.2 0  0.4 0.2 0  0.425 0.2 0  0.45 0.2 0  0.475 0.2 0  0.5 0.2 0  0.525 0.2 0  0.55 0.2 0  0.575 0.2 0  0.6 0.2 0  0.625 0.2 0  0.65 0.2 0  0.675 0.2 0  0.7 0.2 0  0.725 0.2 0  0.75 0.2 0  0.775 0.2 0  0.8 0.2 0  0.825 0.2 0  0.85 0.2 0  0.875 0.2 0  0.9 0.2 0  0.925 0.2 0  0.95 0.2 0  0.975 0.2 0  1 0.2 0  0 0.225 0  0.025 0.225 0  0.05 0.225 0  0.075 0.225 0  0.1 0.225 0  0.125 0.225 0  0.15 0.225 0  0.175 0.225 0  0.2 0.225 0  0.225 0.225 0  0.25 0.225 0  0.275 0.225 0  0.3 0.225 0  0.325 0.225 0  0.35 0.225 0  0.375 0.225 0  0.4 0.225 0  0.425 0.225 0  0.45 0.225 0  0.475 0.225 0  0.5 0.225 0  0.525 0.225 0  0.55 0.225 0  0.575 0.225 0  0.6 0.225 0  0.625 0.225 0  0.65 0.225 0  0.675 0.225 0  0.7 0.225 0  0.725 0.225 0  0.75 0.225 0  0.775 0.225 0  0.8 0.225 0  0.825 0.225 0  0.85 0.225 0  0.875 0.225 0  0.9 0.225 0  0.925 0.225 0  0.95 0.225 0  0.975 0.225 0  1 0.225 0  0 0.25 0  0.025 0.25 0  0.05 0.25 0  0.075 0.25 0  0.1 0.25 0  0.125 0.25 0  0.15 0.25 0  0.175 0.25 0  0.2 0.25 0  0.225 0.25 0  0.25 0.25 0  0.275 0.25 0  0.3 0.25 0  0.325 0.25 0  0.35 0.25 0  0.375 0.25 0  0.4 0.25 0  0.425 0.25 0  0.45 0.25 0  0.475 0.25 0  0.5 0.25 0  0.525 0.25 0  0.55 0.25 0  0.575 0.25 0  0.6 0.25 0  0.625 0.25 0  0.65 0.25 0  0.675 0.25 0  0.7 0.25 0  0.725 0.25 0  0.75 0.25 0  0.775 0.25 0  0.8 0.25 0  0.825 0.25 0  0.85 0.25 0  0.875 0.25 0  0.9 0.25 0  0.925 0.25 0  0.95 0.25 0  0.975 0.25 0  1 0.25 0  0 0.275 0  0.025 0.275 0  0.05 0.275 0  0.075 0.275 0  0.1 0.275 0  0.125 0.275 0  0.15 0.275 0  0.175 0.275 0  0.2 0.275 0  0.225 0.275 0  0.25 0.275 0  0.275 0.275 0  0.3 0.275 0  0.325 0.275 0  0.35 0.275 0  0.375 0.275 0  0.4 0.275 0  0.425 0.275 0  0.45 0.275 0  0.475 0.275 0  0.5 0.275 0  0.525 0.275 0  0.55 0.275 0  0.575 0.275 0  0.6 0.275 0  0.625 0.275 0  0.65 0.275 0  0.675 0.275 0  0.7 0.275 0  0.725 0.275 0  0.75 0.275 0  0.775 0.275 0  0.8 0.275 0  0.825 0.275 0  0.85 0.275 0  0.875 0.275 0  0.9 0.275 0  0.925 0.275 0  0.95 0.275 0  0.975 0.275 0  1 0.275 0  0 0.3 0  0.025 0.3 0  0.05 0.3 0  0.075 0.3 0  0.1 0.3 0  0.125 0.3 0  0.15 0.3 0  0.175 0.3 0  0.2 0.3 0  0.225 0.3 0  0.25 0.3 0  0.275 0.3 0  0.3 0.3 0  0.325 0.3 0  0.35 0.3 0  0.375 0.3 0  0.4 0.3 0  0.425 0.3 0  0.45 0.3 0  0.475 0.3 0  0.5 0.3 0  0.525 0.3 0  0.55 0.3 0  0.575 0.3 0  0.6 0.3 0  0.625 0.3 0  0.65 0.3 0  0.675 0.3 0  0.7 0.3 0  0.725 0.3 0  0.75 0.3 0  0.775 0.3 0  0.8 0.3 0  0.825 0.3 0  0.85 0.3 0  0.875 0.3 0  0.9 0.3 0  0.925 0.3 0  0.95 0.3 0  0.975 0.3 0  1 0.3 0  0 0.325 0  0.025 0.325 0  0.05 0.325 0  0.075 0.325 0  0.1 0.325 0  0.125 0.325 0  0.15 0.325 0  0.175 0.325 0  0.2 0.325 0  0.225 0.325 0  0.25 0.325 0  0.275 0.325 0  0.3 0.325 0  0.325 0.325 0  0.35 0.325 0  0.375 0.325 0  0.4 0.325 0  0.425 0.325 0  0.45 0.325 0  0.475 0.325 0  0.5 0.325 0  0.525 0.325 0  0.55 0.325 0  0.575 0.325 0  0.6 0.325 0  0.625 0.325 0  0.65 0.325 0  0.675 0.325 0  0.7 0.325 0  0.725 0.325 0  0.75 0.325 0  0.775 0.325 0  0.8 0.325 0  0.825 0.325 0  0.85 0.325 0  0.875 0.325 0  0.9 0.325 0  0.925 0.325 0  0.95 0.325 0  0.975 0.325 0  1 0.325 0  0 0.35 0  0.025 0.35 0  0.05 0.35 0  0.075 0.35 0  0.1 0.35 0  0.125 0.35 0  0.15 0.35 0  0.175 0.35 0  0.2 0.35 0  0.225 0.35 0  0.25 0.35 0  0.275 0.35 0  0.3 0.35 0  0.325 0.35 0  0.35 0.35 0  0.375 0.35 0  0.4 0.35 0  0.425 0.35 0  0.45 0.35 0  0.475 0.35 0  0.5 0.35 0  0.525 0.35 0  0.55 0.35 0  0.575 0.35 0  0.6 0.35 0  0.625 0.35 0  0.65 0.35 0  0.675 0.35 0  0.7 0.35 0  0.725 0.35 0  0.75 0.35 0  0.775 0.35 0  0.8 0.35 0  0.825 0.35 0  0.85 0.35 0  0.875 0.35 0  0.9 0.35 0  0.925 0.35 0  0.95 0.35 0  0.975 0.35 0  1 0.35 0  0 0.375 0  0.025 0.375 0  0.05 0.375 0  0.075 0.375 0  0.1 0.375 0  0.125 0.375 0  0.15 0.375 0  0.175 0.375 0  0.2 0.375 0  0.225 0.375 0  0.25 0.375 0  0.275 0.375 0  0.3 0.375 0  0.325 0.375 0  0.35 0.375 0  0.375 0.375 0  0.4 0.375 0  0.425 0.375 0  0.45 0.375 0  0.475 0.375 0  0.5 0.375 0  0.525 0.375 0  0.55 0.375 0  0.575 0.375 0  0.6 0.375 0  0.625 0.375 0  0.65 0.375 0  0.675 0.375 0  0.7 0.375 0  0.725 0.375 0  0.75 0.375 0  0.775 0.375 0  0.8 0.375 0  0.825 0.375 0  0.85 0.375 0  0.875 0.375 0  0.9 0.375 0  0.925 0.375 0  0.95 0.375 0  0.975 0.375 0  1 0.375 0  0 0.4 0  0.025 0.4 0  0.05 0.4 0  0.075 0.4 0  0.1 0.4 0  0.125 0.4 0  0.15 0.4 0  0.175 0.4 0  0.2 0.4 0  0.225 0.4 0  0.25 0.4 0  0.275 0.4 0  0.3 0.4 0  0.325 0.4 0  0.35 0.4 0  0.375 0.4 0  0.4 0.4 0  0.425 0.4 0  0.45 0.4 0  0.475 0.4 0  0.5 0.4 0  0.525 0.4 0  0.55 0.4 0  0.575 0.4 0  0.6 0.4 0  0.625 0.4 0  0.65 0.4 0  0.675 0.4 0  0.7 0.4 0  0.725 0.4 0  0.75 0.4 0  0.775 0.4 0  0.8 0.4 0  0.825 0.4 0  0.85 0.4 0  0.875 0.4 0  0.9 0.4 0  0.925 0.4 0  0.95 0.4 0  0.975 0.4 0  1 0.4 0  0 0.425 0  0.025 0.425 0  0.05 0.425 0  0.075 0.425 0  0.1 0.425 0  0.125 0.425 0  0.15 0.425 0  0.175 0.425 0  0.2 0.425 0  0.225 0.425 0  0.25 0.425 0  0.275 0.425 0  0.3 0.425 0  0.325 0.425 0  0.35 0.425 0  0.375 0.425 0  0.4 0.425 0  0.425 0.425 0  0.45 0.425 0  0.475 0.425 0  0.5 0.425 0  0.525 0.425 0  0.55 0.425 0  0.575 0.425 0  0.6 0.425 0  0.625 0.425 0  0.65 0.425 0  0.675 0.425 0  0.7 0.425 0  0.725 0.425 0  0.75 0.425 0  0.775 0.425 0  0.8 0.425 0  0.825 0.425 0  0.85 0.425 0  0.875 0.425 0  0.9 0.425 0  0.925 0.425 0  0.95 0.425 0  0.975 0.425 0  1 0.425 0  0 0.45 0  0.02
[...]
<PointData  Scalars="ControlVisualisation"> 
<DataArray  type="Float64"  Name="ControlVisualisation"  format="ascii">3.4044925139064691e-01  2.8589369038844026e-01  2.8595440543029704e-01  2.8629735781793514e-01  2.8696683339493678e-01  2.8788408869468329e-01  2.8893000404626051e-01  2.9000091004440881e-01  2.9103013731382049e-01  2.9198391112160116e-01  2.9284878274137349e-01  2.9362105154161083e-01  2.9430093075631625e-01  2.9489027771443482e-01  2.9539203569785000e-01  2.9581013286710445e-01  2.9614929340924517e-01  2.9641465732346817e-01  2.9661128093032535e-01  2.9674361194664628e-01  2.9681499761905344e-01  2.9682724535228405e-01  2.9678023224927619e-01  2.9667155579308235e-01  2.9649623027782374e-01  2.9624646124468107e-01  2.9591157403775015e-01  2.9547823667618384e-01  2.9493120207787293e-01  2.9425490719997088e-01  2.9343639171209351e-01  2.9247008249739503e-01  2.9136508423470664e-01  2.9015490213910244e-01  2.8890788484406932e-01  2.8773341618532489e-01  2.8676871737101228e-01  2.8613932651783192e-01  2.8588963889228192e-01  2.8590351068350062e-01  3.9955245123245958e-01  2.8588747608805803e-01  1.6138958556791461e-01  1.6236238704266862e-01  1.6483844988701496e-01  1.6913960047933868e-01  1.7503003852113830e-01  1.8198553224784147e-01  1.8946439832861683e-01  1.9704338038916613e-01  2.0444049199216344e-01  2.1147928417873713e-01  2.1804574475246824e-01  2.2406094595704729e-01  2.2946981576703446e-01  2.3423832332683109e-01  2.3835234080780077e-01  2.4181500480933354e-01  2.4464215636561878e-01  2.4685666253607125e-01  2.4848256435476943e-01  2.4953967899022500e-01  2.5003892267496458e-01  2.4997839360868873e-01  2.4934019583602912e-01  2.4808807748868145e-01  2.4616617788253378e-01  2.4349951619621418e-01  2.3999730336261876e-01  2.3556067491326960e-01  2.3009696766556906e-01  2.2354288138632913e-01  2.1589859908652353e-01  2.0727343297834022e-01  1.9793831318240962e-01  1.8837424141032633e-01  1.7928400800754118e-01  1.7150976891397673e-01  1.6582475835843416e-01  1.6255262111249288e-01  1.6129538938107149e-01  2.8590286282237426e-01  2.8587912217877909e-01  1.6225620628236101e-01  1.6593312415854847e-01  1.7289438621961292e-01  1.8398790147713687e-01  1.9898409141745865e-01  2.1673392001992442e-01  2.3580822310842495e-01  2.5497614430574123e-01  2.7338368959407333e-01  2.9051817848172756e-01  3.0610295016846273e-01  3.2000636428928392e-01  3.3218500334528012e-01  3.4265226881781480e-01  3.5145979453495890e-01  3.5868377239826149e-01  3.6441291296419875e-01  3.6873729910174741e-01  3.7173825953227813e-01  3.7347943372984510e-01  3.7399901847073458e-01  3.7330307309213967e-01  3.7135981705749610e-01  3.6809510134142159e-01  3.6338968414350348e-01  3.5707961372481478e-01  3.4896195312949724e-01  3.3880927079279877e-01  3.2639774276771277e-01  3.1155487207317500e-01  2.9423354334211810e-01  2.7461563534474343e-01  2.5323954849526431e-01  2.3112480274585809e-01  2.0980626275616066e-01  1.9117661365194621e-01  1.7695491470409275e-01  1.6770463019670090e-01  1.6246911154831847e-01  2.8587071423067151e-01  2.8599796079724937e-01  1.6468791658856058e-01  1.7422659011173738e-01  1.8879664487577544e-01  2.0894883023980063e-01  2.3390329138818677e-01  2.6142705713776004e-01  2.8925692340538661e-01  3.1583438320298118e-01  3.4033139957742792e-01  3.6239767703167292e-01  3.8193334994420963e-01  3.9895814578906624e-01  4.1355143461625954e-01  4.2582678059373891e-01  4.3591894927424163e-01  4.4397404050278721e-01  4.5013999060376186e-01  4.5455715746913045e-01  4.5734928360294130e-01  4.5861506724934448e-01  4.5842039466985202e-01  4.5679118931887486e-01  4.5370687414073813e-01  4.4909463999143251e-01  4.4282508392487430e-01  4.3471035582859863e-01  4.2450678105417677e-01  4.1192505651368266e-01  3.9665267482675870e-01  3.7839508805210842e-01  3.5694494484489991e-01  3.3228917466369851e-01  3.0476822011901428e-01  2.7527818771336904e-01  2.4546765796009012e-01  2.1778217241741699e-01  1.9478436441412647e-01  1.7770949113566506e-01  1.6552127743581341e-01  2.8602224876222659e-01  2.8636446765854462e-01  1.7059129448931221e-01  1.9671779229801287e-01  2.3027228564354238e-01  2.6692622977852243e-01  3.0358111110535152e-01  3.3769718784788483e-01  3.6807295523418010e-01  3.9464915014128393e-01  4.1783383016589509e-01  4.3805805668751707e-01  4.5563221467597859e-01  4.7075603413068967e-01  4.8356870922434897e-01  4.9418968064493418e-01  5.0274002281297192e-01  5.0934879429127466e-01  5.1415072672192874e-01  5.1727981297233150e-01  5.1886134546707086e-01  5.1900364393926290e-01  5.1779001023180837e-01  5.1527111304165685e-01  5.1145787471492543e-01  5.0631492967750058e-01  4.9975481881006678e-01  4.9163325943953357e-01  4.8174607397122376e-01  4.6982867015972657e-01  4.5555948329805335e-01  4.3856966910881262e-01  4.1846417306740558e-01  3.9486380041592212e-01  3.6749663922794423e-01  3.3636616527813357e-01  3.0209442010276838e-01  2.6628308907090487e-01  2.3140098625902761e-01  1.9966633248975924e-01  1.7213026422131222e-01  2.8647192313991321e-01  2.8793180970314147e-01  1.9451011209337007e-01  2.7688010811493940e-01  3.5771271033088342e-01  4.1362532111826456e-01  4.5008699061254342e-01  4.7435884169456388e-01  4.9157406916845253e-01  5.0498420129604549e-01  5.1636863884020867e-01  5.2650885178638274e-01  5.3562022758768135e-01  5.4366403048628975e-01  5.5053123246517144e-01  5.5613000832486459e-01  5.6041567554950622e-01  5.6339235541264010e-01  5.6510355958961256e-01  5.6561992957531926e-01  5.6502730426620107e-01  5.6341602396426127e-01  5.6087157131409004e-01  5.5746642330964646e-01  5.5325291813381705e-01  5.4825686759204051e-01  5.4247151281084249e-01  5.3585118009822263e-01  5.2830357613700263e-01  5.1967901400283623e-01  5.0975405112705507e-01  4.9820636561744797e-01  4.8457904237817301e-01  4.6823621844833696e-01  4.4832983207397015e-01  4.2380346478848174e-01  3.9353084390118021e-01  3.5625674006048880e-01  3.1031398997411874e-01  2.5205208806634360e-01  1.8629768439060110e-01  2.8703578223121196e-01  3.2132293368981096e-01  3.5123381876795390e-01  5.8902664306485875e-01  6.8657381162773368e-01  7.0352114640423802e-01  6.9349009025770147e-01  6.7597234711059728e-01  6.5857893819040869e-01  6.4436561764481681e-01  6.3401243244162098e-01  6.2699523017599068e-01  6.2237902052481431e-01  6.1925176247223013e-01  6.1689070343578811e-01  6.1478595401814506e-01  6.1260768778279773e-01  6.1016141433814119e-01  6.0734902517052214e-01  6.0413967672979196e-01  6.0054918698934734e-01  5.9662546319212606e-01  5.9243793807237199e-01  5.8806971585262968e-01  5.8361160981572069e-01  5.7915739375141040e-01  5.7479940859412237e-01  5.7062315306350453e-01  5.6669857122549261e-01  5.6306436968747797e-01  5.5969995852592236e-01  5.5647840908155188e-01  5.5309566394193799e-01  5.4897989047200013e-01  5.4321307644825712e-01  5.3451163486006892e-01  5.2128499217489888e-01  5.0105650012834069e-01  4.6760409114237983e-01  3.9709051333313550e-01  2.5317482520605833e-01  2.9209931043846743e-01  8.1319903850252884e-01  9.6528850915450337e-01  9.9757759827574188e-01  9.8336546880136066e-01  9.5269784316589101e-01  9.1306392742921993e-01  8.6870493457295506e-01  8.2483071611784264e-01  7.8602996617373655e-01  7.5432567168080700e-01  7.2937086538110252e-01  7.0976158306311909e-01  6.9401907224476611e-01  6.8096906089806808e-01  6.6978212845364471e-01  6.5990275820550692e-01  6.5096867264524116e-01  6.4275003629393679e-01  6.3511017218328825e-01  6.2798183813252018e-01  6.2135306764853149e-01  6.1525854382426659e-01  6.0977429924004123e-01  6.0501463374968267e-01  6.0113053124358551e-01  5.9830866487438672e-01  5.9676933902536566e-01  5.9676030946847947e-01  5.9854115999628354e-01  6.0234983111678519e-01  6.0834042518528419e-01  6.1648435956821857e-01  6.2645101915470636e-01  6.3755882113050655e-01  6.4901775827467378e-01  6.6074870578581579e-01  6.7401349398163835e-01  6.8897633457223362e-01  6.8638238719688593e-01  6.1234065473179466e-01  4.0773795898704346e-01  9.8083474888998912e-01  9.8768036318355046e-01  9.8520517557899445e-01  9.8403803089732889e-01  9.8238635198130042e-01  9.7593713284891759e-01  9.5925303901633618e-01  9.2985317708240389e-01  8.9244214902022312e-01  8.5407355784702754e-01  8.1898668059601043e-01  7.8834468570884131e-01  7.6185366037642832e-01  7.3886471655472041e-01  7.1877503046242119e-01  7.0110535454582612e-01  6.8548677088762455e-01  6.7163789728594103e-01  6.5935039641965476e-01  6.4848226849010637e-01  6.3895545756252381e-01  6.3075540339475711e-01  6.2393162603014463e-01  6.1859927130947157e-01  6.1494169905740037e-01  6.1321375271146927e-01  6.1374425861682358e-01  6.1693424670477093e-01  6.2324374458463416e-01  6.3315412753290690e-01  6.4708560199857601e-01  6.6524733794514579e-01  6.8743080598475170e-01  7.1289366500851881e-01  7.4082532184834238e-01  7.7205887110642035e-01  8.1064752009069441e-01  8.6008000881797053e-01  9.1148248056520387e-01  9.3921485762057211e-01  7.9865649344969436e-01  9.9264479166222264e-01  9.9715973348734566e-01  9.9300352409897508e-01  9.8726052575672740e-01  9.8274978951319825e-01  9.7824200447733223e-01  9.7482399153748589e-01  9.6714777938823204e-01  9.4824178580420493e-01  9.1894741378180378e-01  8.8469285181380708e-01  8.4986354892606986e-01  8.1673297071523987e-01  7.8626273985345696e-01  7.5876968577513881e-01  7.3425598514263624e-01  7.1257032189832525e-01  6.9349842635931136e-01  6.7681951159645293e-01  6.6234256615716613e-01  6.4992949052934312e-01  6.3950970194565993e-01  6.3108973946374092e-01  6.2476057743993596e-01  6.2070449244681158e-01  6.1920226996666661e-01  6.2064000176159673e-01  6.2551209767407268e-01  6.3441225887020447e-01  6.4799529497889208e-01  6.6687857862158295e-01  6.9143846321266489e-01  7.2147970918348747e-01  7.5592872018693569e-01  7.9322061325743531e-01  8.3327080661163389e-01  8.7862186909328266e-01  9.2651651579689864e-01  9.6394190958116865e-01  9.7317735019870955e-01  9.4137566628670732e-01  9.9506694346214819e-01  9.9859686482600862e-01  9.9551961887130791e-01  9.9018212364591729e-01  9.8577152297079484e-01  9.7960428769780539e-01  9.7468226819752535e-01  9.7283735905422764e-01  9.6737294110829430e-01  9.5089921052953730e-01  9.2370840261669107e-01  8.9023562332593198e-01  8.5466551137393587e-01  8.1977063023447916e-01  7.8710753227376240e-01  7.5740666733259987e-01  7.3089411710638819e-01  7.0751990773362694e-01  6.8710830313912696e-01  6.6945169448184927e-01  6.5436715030708270e-01  6.4172980468982110e-01  6.3149284790851490e-01  6.2370059844938486e-01  6.1849876397428671e-01  6.1614412749178260e-01  6.1701400143439955e-01  6.2161308366527024e-01  6.3057045987636162e-01  6.4461017711662605e-01  6.6446246102758344e-01  6.9066168298317310e-01  7.2318066284971905e-01  7.6099957112729677e-01  8.0222938597834370e-01  8.4580929254388404e-01  8.9258381763728578e-01  9.3732955257356343e-01  9.6811000858085960e-01  9.7764152226035683e-01  9.6634744471799705e-01  9.8905949432934592e-01  9.9791528048172329e-01  9.9417748579376330e-01  9.8919795128334620e-01  9.8512474339541367e-01  9.7871017407238381e-01  9.7226595951452321e-01  9.6964028690499870e-01  9.6844564336408734e-01  9.5985507533116488e-01  9.3943399518367743e-01  9.0937006473477278e-01  8.7410824233976048e-01  8.3748830457610424e-01  8.0204033512226214e-01  7.6915488058913950e-01  7.3944116232909607e-01  7.1304297808500849e-01  6.8986269756328011e-01  6.6970437051546439e-01  6.5235994318972501e-01  6.3765950380029657e-01  6.2550036043162660e-01  6.1586460104329221e-01  6.0883114010821515e-01  6.0458570918601195e-01  6.0343019779138662e-01  6.0579046032195238e-01  6.1221809908640223e-01  6.2337511663472700e-01  6.3997858006404673e-01  6.6266593997710299e-01  6.9173745036320922e-01  7.2682041531883967e-01  7.6685846234463839e-01  8.1134276863175492e-01  8.6173262944259010e-01  9.1506271642804193e-01  9.5612980556094396e-01  9.7199511409390149e-01  9.5859808670420255e-01  9.7282775945119027e-01  9.8942159145700059e-01  9.8780878373061731e-01  9.8404831780860103e-01  9.8002576025154753e-01  9.7303757440229255e-01  9.6560450523317864e-01  9.6126819028611354e-01  9.5944831846209810e-01  9.5294588527569712e-01  9.3599574239194494e-01  9.0886098976616458e-01  8.7519736692190420e-01  8.3892017825958276e-01  8.0291840009129156e-01  7.6892963951377991e-01  7.3781405153253055e-01  7.0987095329222671e-01  6.8508527745994430e-01  6.6329239181184230e-01  6.4427999382842871e-01  6.2784829313281354e-01  6.1384469025575261e-01  6.0218379701308411e-01  5.9285959347543316e-01  5.8595370525015045e-01  5.8164174492945930e-01  5.8019786295068942e-01  5.8199548965709946e-01  5.8749895845933331e-01  5.9723551976072997e-01  6.1173080389521939e-01  6.3139167197501467e-01  6.5636482630458071e-01  6.8658408807212756e-01  7.2261148298966715e-01  7.6733255343572360e-01  8.2437191810305388e-01  8.8727427297058958e-01  9.2900403984430557e-01  8.6503486097355065e-01  6.2501219309830025e-01  9.8328777911856136e-01  9.8645864772354042e-01  9.7582223431232706e-01  9.6821514284883214e-01  9.5880195783948685e-01  9.4968291333833166e-01  9.4322827875088855e-01  9.3887136492788514e-01  9.3116708065359222e-01  9.1510618408792599e-01  8.9014352913568406e-01  8.5889936148901191e-01  8.2468120867408146e-01  7.9016287279473463e-01  7.5707862768303746e-01  7.2636578438713273e-01  6.9841259823192725e-01  6.7327550185165119e-01  6.5083439856949032e-01  6.3089326462073925e-01  6.1324166715131967e-01  5.9769091646037831e-01  5.8409463605662093e-01  5.7236007300999647e-01  5.6245389102373833e-01  5.5440428844968803e-01  5.4829975049453061e-01  5.4428327819554534e-01  5.4253927682843450e-01  5.4326832551521487e-01  5.4664335947855114e-01  5.5274270118412994e-01  5.6147227083697149e-01  5.7255506475641160e-01  5.8579812543264465e-01  6.0164574277058303e-01  6.1993366289439789e-01  6.2710341383885393e-01  5.4970754607903050e-01  5.0018598816364346e-01  3.1074749887015429e-01  5.3502467782098595e-01  8.9962688099720256e-01  9.3788622094914742e-01  9.3163012690741176e-01  9.2219586214775429e-01  9.1325745784204715e-01  9.0633247337096245e-01  9.0054961369404873e-01  8.9189218742323162e-01  8.7672896795179722e-01  8.5445694403183370e-01  8.2683782126959215e-01  7.9635444949613010e-01  7.6517602627206049e-01  7.3481782007561025e-01  7.0617232220591741e-01  6.7966438508919380e-01  6.5541115477674117e-01  6.3334733543619293e-01  6.1331201248296097e-01  5.9510472779206469e-01  5.7851986815418432e-01  5.6336665010725484e-01  5.4947973376178783e-01  5.3672354076666207e-01  5.2499175912901108e-01  5.1420216285847564e-01  5.0428560392448873e-01  4.9516672576115628e-01  4.8673256239262697e-01  4.7878388489842272e-01  4.7096379679098882e-01  4.6266179551034048e-01  4.5290745752288036e-01  4.4027847036262019e-01  4.2266680296243925e-01  3.9542184000043057e-01  3.4320078216111899e-01  2.4439729904432411e-01  3.0313932133671784e-01  2.9512947251507998e-01  2.9673881230199928e-01  6.2262378232204341e-01  7.8358275285449297e-01  8.2951415404136508e-01  8.4128767420134565e-01  8.4326577214373677e-01  8.4250164876992351e-01  8.3998597787625251e-01  8.3372694260998592e-01  8.2179483756618810e-01  8.0400564779652783e-01  7.8163179759802071e-01  7.5647609923359682e-01  7.3020494613548326e-01  7.0406978076509952e-01  6.7887701486319907e-01  6.5506544553384338e-01  6.3280795659957989e-01  6.1210137271345277e-01  5.9283444123232576e-01  5.7483503469745212e-01  5.5790100875896897e-01  5.4181925164204003e-01  5.2637650722724194e-01  5.1136440240039416e-01  4.9658001615494940e-01  4.8182232143463560e-01  4.6688388712319584e-01  4.5153637817931819e-01  4.3550784486783706e-01  4.1845015208327191e-01  3.9989794500347897e-01  3.7923082990763135e-01  3.5567715142689466e-01  3.2844312314512436e-01  2.9703832225805538e-01  2.6141940050144596e-01  2.2137716398722276e-01  1.8129971886082114e-01  2.8763162534879722e-01  2.9356493848897347e-01  2.4392983701167434e-01  4.4573303943032938e-01  6.0147960011723078e-01  6.8345417149739851e-01  7.2339478727003059e-01  7.4389385333524549e-01  7.5512424121142219e-01  7.6048509217249460e-01  7.6027019947088470e-01  7.5423443116694822e-01  7.4279623805891004e-01  7.2705436764461562e-01  7.0838499408370426e-01  6.8808731476853757e-01  6.6719843705606763e-01  6.4644603276637846e-01  6.2627722116742257e-01  6.0691594150482497e-01  5.8842208088760228e-01  5.7074114051816249e-01  5.5374179975604254e-01  5.3724252167817987e-01  5.2102955733443412e-01  5.0486876590611129e-01  4.8851329565400836e-01  4.7170868055230813e-01  4.5419642430588475e-01  4.3571674572264507e-01  4.1601101472079088e-01  3.9482492697712696e-01  3.7191562266692929e-01  3.4707183527385194e-01  3.2016900275376731e-01  2.9130418664242186e-01  2.6107482169914181e-01  2.3099471685932776e-01  2.0368595420210575e-01  1.8206941386541520e-01  1.6733740588458715e-01  2.8664297847511555e-01  2.9244355900232322e-01  2.2141839896281781e-01  3.5624774522028779e-01  4.7455679313427812e-01  5.5415904785363035e-01  6.0478566031423764e-01  6.3749225635872220e-01  6.5903228153890003e-01  6.7265182256487699e-01  6.7960053044432311e-01  6.8052764755273087e-01  6.7618913413797843e-01  6.6757561684193334e-01  6.5578604144962482e-01  6.4186255209725274e-01  6.2667839002431003e-01  6.1089224818417609e-01  5.9495097537909536e-01  5.7911739206283785e-01  5.6350598546072861e-01  5.4811687968686551e-01  5.3286411778291487e-01  5.1759757728561684e-01  5.0211946339120794e-01  4.8619701148382877e-01  4.6957327383169639e-01  4.5197793702763306e-01  4.3314015146812729e-01  4.1280542950112670e-01  3.9075887277460325e-01  3.6685749403361934e-01  3.4107562253507084e-01  3.1356965875670662e-01  2.8477124679699517e-01  2.5551696199468976e-01  2.2719841627787946e-01  2.0183531145434419e-01  1.8181752777518020e-01  1.6893942218568078e-01  1.6299157920116891e-01  2.8615479253798676e-01  2.9187219215872584e-01  2.1137284696576114e-01  3.1076870292888925e-01  3.9689490017591117e-01  4.6091032899171663e-01  5.0803198812025763e-01  5.4300226484167469e-01  5.6899612870564831e-01  5.8781548231610226e-01  6.0040689569679029e-01  6.0742150636337433e-01  6.0952458602729642e-01  6.0748970103895306e-01  6.0215712544555711e-01  5.9434611724661579e-01  5.8477852537428610e-01  5.7403485159155654e-01  5.6254145800924615e-01  5.5057848084249861e-01  5.3829786790531287e-01  5.2574413758735272e-01  5.1287384107199174e-01  4.9957222263570722e-01  4.8566718370675271e-01  4.7094164502577551e-01  4.5514604847032725e-01  4.3801323640826662e-01  4.1927838133062068e-01  3.9870700670540604e-01  3.7613429474781618e-01  3.5151853996356158e-01  3.2501017951502165e-01  2.9703396742891303e-01  2.6837400336484418e-01  2.4023520973919169e-01  2.1422736402409515e-01  1.9219193731231518e-01  1.7579330423565331e-01  1.6590441565124975e-01  1.6190402536108009e-01  2.8597375221173471e-01  2.9141882259682239e-01  2.0526318355305981e-01  2.8330667675214211e-01  3.4751567273623146e-01  3.9663301262955986e-01  4.3544379127252125e-01  4.6689415116873112e-01  4.9251298297918045e-01  5.1300283563324101e-01  5.2870640771400657e-01  5.3988647934670631e-01  5.4688071876628519e-01  5.5015340173162497e-01  5.5026511869741745e-01  5.4780789965320154e-01  5.4334102725987576e-01  5.3734561382125501e-01  5.3020112911370521e-01  5.2217917013204906e-01  5.1344789478554864e-01  5.0408159485837012e-01  4.9407180739699302e-01  4.8333815622877452e-01  4.7173851201439054e-01  4.5907911120036882e-01  4.4512612038743443e-01  4.2962089306199724e-01  4.1230189558541191e-01  3.9293691200225345e-01  3.7136938941326364e-01  3.4758207440531075e-01  3.2177796494030109e-01  2.9447126256172707e-01  2.6656719475292373e-01  2.3938657955125581e-01  2.1457248778154744e-01  1.9381818042752513e-01  1.7840548579104376e-01  1.6861036322974704e-01  1.6317789189377685e-01  2.8604806312158298e-01  2.9098222674268814e-01  2.0084335886919630e-01  2.6487594247875879e-01  3.1409843461088716e-01  3.5135681376822536e-01  3.8175772498013349e-01  4.0788763814125267e-01  4.3072691264375551e-01  4.504881372