<?xml version="1.0"?>
<VTKFile type="UnstructuredGrid"  version="0.1"  >
<UnstructuredGrid>
<Piece  NumberOfPoints="1681" NumberOfCells="3200">
<Points>
<DataArray  type="Float64"  NumberOfComponents="3"  format="ascii">0 0 0  0.025 0 0  0.05 0 0  0.075 0 0  0.1 0 0  0.125 0 0  0.15 0 0  0.175 0 0  0.2 0 0  0.225 0 0  0.25 0 0  0.275 0 0  0.3 0 0  0.325 0 0  0.35 0 0  0.375 0 0  0.4 0 0  0.425 0 0  0.45 0 0  0.475 0 0  0.5 0 0  0.525 0 0  0.55 0 0  0.575 0 0  0.6 0 0  0.625 0 0  0.65 0 0  0.675 0 0  0.7 0 0  0.725 0 0  0.75 0 0  0.775 0 0  0.8 0 0  0.825 0 0  0.85 0 0  0.875 0 0  0.9 0 0  0.925 0 0  0.95 0 0  0.975 0 0  1 0 0  0 0.025 0  0.025 0.025 0  0.05 0.025 0  0.075 0.025 0  0.1 0.025 0  0.125 0.025 0  0.15 0.025 0  0.175 0.025 0  0.2 0.025 0  0.225 0.025 0  0.25 0.025 0  0.275 0.025 0  0.3 0.025 0  0.325 0.025 0  0.35 0.025 0  0.375 0.025 0  0.4 0.025 0  0.425 0.025 0  0.45 0.025 0  0.475 0.025 0  0.5 0.025 0  0.525 0.025 0  0.55 0.025 0  0.575 0.025 0  0.6 0.025 0  0.625 0.025 0  0.65 0.025 0  0.675 0.025 0  0.7 0.025 0  0.725 0.025 0  0.75 0.025 0  0.775 0.025 0  0.8 0.025 0  0.825 0.025 0  0.85 0.025 0  0.875 0.025 0  0.9 0.025 0  0.925 0.025 0  0.95 0.025 0  0.975 0.025 0  1 0.025 0  0 0.05 0  0.025 0.05 0  0.05 0.05 0  0.075 0.05 0  0.1 0.05 0  0.125 0.05 0  0.15 0.05 0  0.175 0.05 0  0.2 0.05 0  0.225 0.05 0  0.25 0.05 0  0.275 0.05 0  0.3 0.05 0  0.325 0.05 0  0.35 0.05 0  0.375 0.05 0  0.4 0.05 0  0.425 0.05 0  0.45 0.05 0  0.475 0.05 0  0.5 0.05 0  0.525 0.05 0  0.55 0.05 0  0.575 0.05 0  0.6 0.05 0  0.625 0.05 0  0.65 0.05 0  0.675 0.05 0  0.7 0.05 0  0.725 0.05 0  0.75 0.05 0  0.775 0.05 0  0.8 0.05 0  0.825 0.05 0  0.85 0.05 0  0.875 0.05 0  0.9 0.05 0  0.925 0.05 0  0.95 0.05 0  0.975 0.05 0  1 0.05 0  0 0.075 0  0.025 0.075 0  0.05 0.075 0  0.075 0.075 0  0.1 0.075 0  0.125 0.075 0  0.15 0.075 0  0.175 0.075 0  0.2 0.075 0  0.225 0.075 0  0.25 0.075 0  0.275 0.075 0  0.3 0.075 0  0.325 0.075 0  0.35 0.075 0  0.375 0.075 0  0.4 0.075 0  0.425 0.075 0  0.45 0.075 0  0.475 0.075 0  0.5 0.075 0  0.525 0.075 0  0.55 0.075 0  0.575 0.075 0  0.6 0.075 0  0.625 0.075 0  0.65 0.075 0  0.675 0.075 0  0.7 0.075 0  0.725 0.075 0  0.75 0.075 0  0.775 0.075 0  0.8 0.075 0  0.825 0.075 0  0.85 0.075 0  0.875 0.075 0  0.9 0.075 0  0.925 0.075 0  0.95 0.075 0  0.975 0.075 0  1 0.075 0  0 0.1 0  0.025 0.1 0  0.05 0.1 0  0.075 0.1 0  0.1 0.1 0  0.125 0.1 0  0.15 0.1 0  0.175 0.1 0  0.2 0.1 0  0.225 0.1 0  0.25 0.1 0  0.275 0.1 0  0.3 0.1 0  0.325 0.1 0  0.35 0.1 0  0.375 0.1 0  0.4 0.1 0  0.425 0.1 0  0.45 0.1 0  0.475 0.1 0  0.5 0.1 0  0.525 0.1 0  0.55 0.1 0  0.575 0.1 0  0.6 0.1 0  0.625 0.1 0  0.65 0.1 0  0.675 0.1 0  0.7 0.1 0  0.725 0.1 0  0.75 0.1 0  0.775 0.1 0  0.8 0.1 0  0.825 0.1 0  0.85 0.1 0  0.875 0.1 0  0.9 0.1 0  0.925 0.1 0  0.95 0.1 0  0.975 0.1 0  1 0.1 0  0 0.125 0  0.025 0.125 0  0.05 0.125 0  0.075 0.125 0  0.1 0.125 0  0.125 0.125 0  0.15 0.125 0  0.175 0.125 0  0.2 0.125 0  0.225 0.125 0  0.25 0.125 0  0.275 0.125 0  0.3 0.125 0  0.325 0.125 0  0.35 0.125 0  0.375 0.125 0  0.4 0.125 0  0.425 0.125 0  0.45 0.125 0  0.475 0.125 0  0.5 0.125 0  0.525 0.125 0  0.55 0.125 0  0.575 0.125 0  0.6 0.125 0  0.625 0.125 0  0.65 0.125 0  0.675 0.125 0  0.7 0.125 0  0.725 0.125 0  0.75 0.125 0  0.775 0.125 0  0.8 0.125 0  0.825 0.125 0  0.85 0.125 0  0.875 0.125 0  0.9 0.125 0  0.925 0.125 0  0.95 0.125 0  0.975 0.125 0  1 0.125 0  0 0.15 0  0.025 0.15 0  0.05 0.15 0  0.075 0.15 0  0.1 0.15 0  0.125 0.15 0  0.15 0.15 0  0.175 0.15 0  0.2 0.15 0  0.225 0.15 0  0.25 0.15 0  0.275 0.15 0  0.3 0.15 0  0.325 0.15 0  0.35 0.15 0  0.375 0.15 0  0.4 0.15 0  0.425 0.15 0  0.45 0.15 0  0.475 0.15 0  0.5 0.15 0  0.525 0.15 0  0.55 0.15 0  0.575 0.15 0  0.6 0.15 0  0.625 0.15 0  0.65 0.15 0  0.675 0.15 0  0.7 0.15 0  0.725 0.15 0  0.75 0.15 0  0.775 0.15 0  0.8 0.15 0  0.825 0.15 0  0.85 0.15 0  0.875 0.15 0  0.9 0.15 0  0.925 0.15 0  0.95 0.15 0  0.975 0.15 0  1 0.15 0  0 0.175 0  0.025 0.175 0  0.05 0.175 0  0.075 0.175 0  0.1 0.175 0  0.125 0.175 0  0.15 0.175 0  0.175 0.175 0  0.2 0.175 0  0.225 0.175 0  0.25 0.175 0  0.275 0.175 0  0.3 0.175 0  0.325 0.175 0  0.35 0.175 0  0.375 0.175 0  0.4 0.175 0  0.425 0.175 0  0.45 0.175 0  0.475 0.175 0  0.5 0.175 0  0.525 0.175 0  0.55 0.175 0  0.575 0.175 0  0.6 0.175 0  0.625 0.175 0  0.65 0.175 0  0.675 0.175 0  0.7 0.175 0  0.725 0.175 0  0.75 0.175 0  0.775 0.175 0  0.8 0.175 0  0.825 0.175 0  0.85 0.175 0  0.875 0.175 0  0.9 0.175 0  0.925 0.175 0  0.95 0.175 0  0.975 0.175 0  1 0.175 0  0 0.2 0  0.025 0.2 0  0.05 0.2 0  0.075 0.2 0  0.1 0.2 0  0.125 0.2 0  0.15 0.2 0  0.175 0.2 0  0.2 0.2 0  0.225 0.2 0  0.25 0.2 0  0.275 0.2 0  0.3 0.2 0  0.325 0.2 0  0.35 0.2 0  0.375 0.2 0  0.4 0.2 0  0.425 0.2 0  0.45 0.2 0  0.475 0.2 0  0.5 0.2 0  0.525 0.2 0  0.55 0.2 0  0.575 0.2 0  0.6 0.2 0  0.625 0.2 0  0.65 0.2 0  0.675 0.2 0  0.7 0.2 0  0.725 0.2 0  0.75 0.2 0  0.775 0.2 0  0.8 0.2 0  0.825 0.2 0  0.85 0.2 0  0.875 0.2 0  0.9 0.2 0  0.925 0.2 0  0.95 0.2 0  0.975 0.2 0  1 0.2 0  0 0.225 0  0.025 0.225 0  0.05 0.225 0  0.075 0.225 0  0.1 0.225 0  0.125 0.225 0  0.15 0.225 0  0.175 0.225 0  0.2 0.225 0  0.225 0.225 0  0.25 0.225 0  0.275 0.225 0  0.3 0.225 0  0.325 0.225 0  0.35 0.225 0  0.375 0.225 0  0.4 0.225 0  0.425 0.225 0  0.45 0.225 0  0.475 0.225 0  0.5 0.225 0  0.525 0.225 0  0.55 0.225 0  0.575 0.225 0  0.6 0.225 0  0.625 0.225 0  0.65 0.225 0  0.675 0.225 0  0.7 0.225 0  0.725 0.225 0  0.75 0.225 0  0.775 0.225 0  0.8 0.225 0  0.825 0.225 0  0.85 0.225 0  0.875 0.225 0  0.9 0.225 0  0.925 0.225 0  0.95 0.225 0  0.975 0.225 0  1 0.225 0  0 0.25 0  0.025 0.25 0  0.05 0.25 0  0.075 0.25 0  0.1 0.25 0  0.125 0.25 0  0.15 0.25 0  0.175 0.25 0  0.2 0.25 0  0.225 0.25 0  0.25 0.25 0  0.275 0.25 0  0.3 0.25 0  0.325 0.25 0  0.35 0.25 0  0.375 0.25 0  0.4 0.25 0  0.425 0.25 0  0.45 0.25 0  0.475 0.25 0  0.5 0.25 0  0.525 0.25 0  0.55 0.25 0  0.575 0.25 0  0.6 0.25 0  0.625 0.25 0  0.65 0.25 0  0.675 0.25 0  0.7 0.25 0  0.725 0.25 0  0.75 0.25 0  0.775 0.25 0  0.8 0.25 0  0.825 0.25 0  0.85 0.25 0  0.875 0.25 0  0.9 0.25 0  0.925 0.25 0  0.95 0.25 0  0.975 0.25 0  1 0.25 0  0 0.275 0  0.025 0.275 0  0.05 0.275 0  0.075 0.275 0  0.1 0.275 0  0.125 0.275 0  0.15 0.275 0  0.175 0.275 0  0.2 0.275 0  0.225 0.275 0  0.25 0.275 0  0.275 0.275 0  0.3 0.275 0  0.325 0.275 0  0.35 0.275 0  0.375 0.275 0  0.4 0.275 0  0.425 0.275 0  0.45 0.275 0  0.475 0.275 0  0.5 0.275 0  0.525 0.275 0  0.55 0.275 0  0.575 0.275 0  0.6 0.275 0  0.625 0.275 0  0.65 0.275 0  0.675 0.275 0  0.7 0.275 0  0.725 0.275 0  0.75 0.275 0  0.775 0.275 0  0.8 0.275 0  0.825 0.275 0  0.85 0.275 0  0.875 0.275 0  0.9 0.275 0  0.925 0.275 0  0.95 0.275 0  0.975 0.275 0  1 0.275 0  0 0.3 0  0.025 0.3 0  0.05 0.3 0  0.075 0.3 0  0.1 0.3 0  0.125 0.3 0  0.15 0.3 0  0.175 0.3 0  0.2 0.3 0  0.225 0.3 0  0.25 0.3 0  0.275 0.3 0  0.3 0.3 0  0.325 0.3 0  0.35 0.3 0  0.375 0.3 0  0.4 0.3 0  0.425 0.3 0  0.45 0.3 0  0.475 0.3 0  0.5 0.3 0  0.525 0.3 0  0.55 0.3 0  0.575 0.3 0  0.6 0.3 0  0.625 0.3 0  0.65 0.3 0  0.675 0.3 0  0.7 0.3 0  0.725 0.3 0  0.75 0.3 0  0.775 0.3 0  0.8 0.3 0  0.825 0.3 0  0.85 0.3 0  0.875 0.3 0  0.9 0.3 0  0.925 0.3 0  0.95 0.3 0  0.975 0.3 0  1 0.3 0  0 0.325 0  0.025 0.325 0  0.05 0.325 0  0.075 0.325 0  0.1 0.325 0  0.125 0.325 0  0.15 0.325 0  0.175 0.325 0  0.2 0.325 0  0.225 0.325 0  0.25 0.325 0  0.275 0.325 0  0.3 0.325 0  0.325 0.325 0  0.35 0.325 0  0.375 0.325 0  0.4 0.325 0  0.425 0.325 0  0.45 0.325 0  0.475 0.325 0  0.5 0.325 0  0.525 0.325 0  0.55 0.325 0  0.575 0.325 0  0.6 0.325 0  0.625 0.325 0  0.65 0.325 0  0.675 0.325 0  0.7 0.325 0  0.725 0.325 0  0.75 0.325 0  0.775 0.325 0  0.8 0.325 0  0.825 0.325 0  0.85 0.325 0  0.875 0.325 0  0.9 0.325 0  0.925 0.325 0  0.95 0.325 0  0.975 0.325 0  1 0.325 0  0 0.35 0  0.025 0.35 0  0.05 0.35 0  0.075 0.35 0  0.1 0.35 0  0.125 0.35 0  0.15 0.35 0  0.175 0.35 0  0.2 0.35 0  0.225 0.35 0  0.25 0.35 0  0.275 0.35 0  0.3 0.35 0  0.325 0.35 0  0.35 0.35 0  0.375 0.35 0  0.4 0.35 0  0.425 0.35 0  0.45 0.35 0  0.475 0.35 0  0.5 0.35 0  0.525 0.35 0  0.55 0.35 0  0.575 0.35 0  0.6 0.35 0  0.625 0.35 0  0.65 0.35 0  0.675 0.35 0  0.7 0.35 0  0.725 0.35 0  0.75 0.35 0  0.775 0.35 0  0.8 0.35 0  0.825 0.35 0  0.85 0.35 0  0.875 0.35 0  0.9 0.35 0  0.925 0.35 0  0.95 0.35 0  0.975 0.35 0  1 0.35 0  0 0.375 0  0.025 0.375 0  0.05 0.375 0  0.075 0.375 0  0.1 0.375 0  0.125 0.375 0  0.15 0.375 0  0.175 0.375 0  0.2 0.375 0  0.225 0.375 0  0.25 0.375 0  0.275 0.375 0  0.3 0.375 0  0.325 0.375 0  0.35 0.375 0  0.375 0.375 0  0.4 0.375 0  0.425 0.375 0  0.45 0.375 0  0.475 0.375 0  0.5 0.375 0  0.525 0.375 0  0.55 0.375 0  0.575 0.375 0  0.6 0.375 0  0.625 0.375 0  0.65 0.375 0  0.675 0.375 0  0.7 0.375 0  0.725 0.375 0  0.75 0.375 0  0.775 0.375 0  0.8 0.375 0  0.825 0.375 0  0.85 0.375 0  0.875 0.375 0  0.9 0.375 0  0.925 0.375 0  0.95 0.375 0  0.975 0.375 0  1 0.375 0  0 0.4 0  0.025 0.4 0  0.05 0.4 0  0.075 0.4 0  0.1 0.4 0  0.125 0.4 0  0.15 0.4 0  0.175 0.4 0  0.2 0.4 0  0.225 0.4 0  0.25 0.4 0  0.275 0.4 0  0.3 0.4 0  0.325 0.4 0  0.35 0.4 0  0.375 0.4 0  0.4 0.4 0  0.425 0.4 0  0.45 0.4 0  0.475 0.4 0  0.5 0.4 0  0.525 0.4 0  0.55 0.4 0  0.575 0.4 0  0.6 0.4 0  0.625 0.4 0  0.65 0.4 0  0.675 0.4 0  0.7 0.4 0  0.725 0.4 0  0.75 0.4 0  0.775 0.4 0  0.8 0.4 0  0.825 0.4 0  0.85 0.4 0  0.875 0.4 0  0.9 0.4 0  0.925 0.4 0  0.95 0.4 0  0.975 0.4 0  1 0.4 0  0 0.425 0  0.025 0.425 0  0.05 0.425 0  0.075 0.425 0  0.1 0.425 0  0.125 0.425 0  0.15 0.425 0  0.175 0.425 0  0.2 0.425 0  0.225 0.425 0  0.25 0.425 0  0.275 0.425 0  0.3 0.425 0  0.325 0.425 0  0.35 0.425 0  0.375 0.425 0  0.4 0.425 0  0.425 0.425 0  0.45 0.425 0  0.475 0.425 0  0.5 0.425 0  0.525 0.425 0  0.55 0.425 0  0.575 0.425 0  0.6 0.425 0  0.625 0.425 0  0.65 0.425 0  0.675 0.425 0  0.7 0.425 0  0.725 0.425 0  0.75 0.425 0  0.775 0.425 0  0.8 0.425 0  0.825 0.425 0  0.85 0.425 0  0.875 0.425 0  0.9 0.425 0  0.925 0.425 0  0.95 0.425 0  0.975 0.425 0  1 0.425 0  0 0.45 0  0.02
[...]
<PointData  Scalars="ControlVisualisation"> 
<DataArray  type="Float64"  Name="ControlVisualisation"  format="ascii">1.8592689373204033e-01  1.2946583205180784e-01  1.2962804380191192e-01  1.2996384118395862e-01  1.3045886180748129e-01  1.3106980218682684e-01  1.3174009385199961e-01  1.3242226812002036e-01  1.3308711048784713e-01  1.3372121511590379e-01  1.3432037718266465e-01  1.3488263390134334e-01  1.3540538200951285e-01  1.3588751424764509e-01  1.3632591176236036e-01  1.3671819997041523e-01  1.3706823606878007e-01  1.3738026802889666e-01  1.3765895850943180e-01  1.3790678215056920e-01  1.3811946068488179e-01  1.3828546917261925e-01  1.3838859387426683e-01  1.3841227239693268e-01  1.3833965318975372e-01  1.3816023770883193e-01  1.3787108712867729e-01  1.3747609645524092e-01  1.3698115693906457e-01  1.3639422746238949e-01  1.3572258083346861e-01  1.3497378297149101e-01  1.3415430083550609e-01  1.3327388307723415e-01  1.3235561783546615e-01  1.3144591783845125e-01  1.3061817063061834e-01  1.2996359014661055e-01  1.2956074880708615e-01  1.2943133504527907e-01  2.9915861820005007e-01  1.2946221551864623e-01  6.7785633600705872e-02  6.8212443795983041e-02  6.9038627095036526e-02  7.0285644974367636e-02  7.1883850727179927e-02  7.3719899086258714e-02  7.5681314815962866e-02  7.7680467157412142e-02  7.9660748968774259e-02  8.1588474793124838e-02  8.3437363678132620e-02  8.5184045578512724e-02  8.6813302619784274e-02  8.8308324738436306e-02  8.9663456528450189e-02  9.0884385670553708e-02  9.1988727059621980e-02  9.2992743705933259e-02  9.3906077411360936e-02  9.4712737644805159e-02  9.5370867174541019e-02  9.5813508169045811e-02  9.5969868875812686e-02  9.5772519067129067e-02  9.5181256699750347e-02  9.4192356385975770e-02  9.2830267599247729e-02  9.1142995023934081e-02  8.9182666793905782e-02  8.7000822161400052e-02  8.4642765382567473e-02  8.2143013112122798e-02  7.9533410452125919e-02  7.6867788805369680e-02  7.4248885041424309e-02  7.1844150713142707e-02  6.9870936868734246e-02  6.8521502194725678e-02  6.7790524482952266e-02  1.2943094377415171e-01  1.2958650154289456e-01  6.8173626607440238e-02  6.9048080045075275e-02  7.0483988384126187e-02  7.2668552018522639e-02  7.5519868520812175e-02  7.8875025112345135e-02  8.2559615413614978e-02  8.6424601589820849e-02  9.0364309549314265e-02  9.4305286591061355e-02  9.8188291071735365e-02  1.0195728391748486e-01  1.0557033174376962e-01  1.0897778833392999e-01  1.1214794530850028e-01  1.1507000149281810e-01  1.1775116753517841e-01  1.2019872692432666e-01  1.2240139199493615e-01  1.2429975085606773e-01  1.2578278986405672e-01  1.2670251499315383e-01  1.2691020167840339e-01  1.2628238881448575e-01  1.2475948468228068e-01  1.2235714426230511e-01  1.1915435234409706e-01  1.1528749148331328e-01  1.1092291496753494e-01  1.0621841919131378e-01  1.0130924255037524e-01  9.6285426577048611e-02  9.1196325339674839e-02  8.6111565273071927e-02  8.1180843343797188e-02  7.6680069907645435e-02  7.2979141291204641e-02  7.0367755968070170e-02  6.8526318402838279e-02  1.2955399546993715e-01  1.2978289711207094e-01  6.8862660685296700e-02  7.0441802602304246e-02  7.2612749663899925e-02  7.5727358088954325e-02  7.9666311860774830e-02  8.4209852938969459e-02  8.9148142971559069e-02  9.4317088528283397e-02  9.9603574026380884e-02  1.0493307268823601e-01  1.1024053759668458e-01  1.1546369281776724e-01  1.2053814827670829e-01  1.2537722663589293e-01  1.2989920080969880e-01  1.3401930689072167e-01  1.3766950742295353e-01  1.4081523505120783e-01  1.4340142385883331e-01  1.4539059723848008e-01  1.4671919206809231e-01  1.4734439668652549e-01  1.4720620565347239e-01  1.4623639094254456e-01  1.4436085735872314e-01  1.4151775951587961e-01  1.3766965410232393e-01  1.3284878071011089e-01  1.2719672471050653e-01  1.2094894366050778e-01  1.1439471418751625e-01  1.0777231402377720e-01  1.0120211795960628e-01  9.4710494978430856e-02  8.8353532658169878e-02  8.2371262612075502e-02  7.7214452723544658e-02  7.3353805446047596e-02  6.9964449548347754e-02  1.2993850656118919e-01  1.2989507705733147e-01  6.9741393177334937e-02  7.3349582388131593e-02  7.7538504809373382e-02  8.2738852540814478e-02  8.8693376298854348e-02  9.5141382601605887e-02  1.0187064004723721e-01  1.0872529752001903e-01  1.1558467783852457e-01  1.2236840648167827e-01  1.2902615253178348e-01  1.3551973475548287e-01  1.4174415482137301e-01  1.4745604050444694e-01  1.5235526751815012e-01  1.5619238203940519e-01  1.5887300916883595e-01  1.6051715645734760e-01  1.6135705464175332e-01  1.6164731048691494e-01  1.6161881723865076e-01  1.6144481642831571e-01  1.6117171470280758e-01  1.6071346818239057e-01  1.5991163958125756e-01  1.5856599689076203e-01  1.5644596750510448e-01  1.5324304018997451e-01  1.4866121385606196e-01  1.4255672114875947e-01  1.3511231606160432e-01  1.2682218742998666e-01  1.1823425559893834e-01  1.0969504967985183e-01  1.0131265552351541e-01  9.3165835951147108e-02  8.5596660166299229e-02  7.9283597985422963e-02  7.2575086059232310e-02  1.3061085524675181e-01  1.3052079405196462e-01  7.3199331631645104e-02  8.4178701173023007e-02  9.5886447042447573e-02  1.0791760011012595e-01  1.1946969053096552e-01  1.3009931800433644e-01  1.3954146623034680e-01  1.4773136599045233e-01  1.5491546372749787e-01  1.6164722305079032e-01  1.6843931807407200e-01  1.7525172649683038e-01  1.8138700531351915e-01  1.8596908290139741e-01  1.8856992214875257e-01  1.8936365141373598e-01  1.8907449743289462e-01  1.8863470006868732e-01  1.8875258709830789e-01  1.8967896091612482e-01  1.9125862788281886e-01  1.9319858751707111e-01  1.9518253458066398e-01  1.9691663365594317e-01  1.9818703445118954e-01  1.9892692461019554e-01  1.9914988894018051e-01  1.9879326826616178e-01  1.9750156426546378e-01  1.9445577841434963e-01  1.8863555704174528e-01  1.7940156591793197e-01  1.6693495223237256e-01  1.5205085215816982e-01  1.3602036180338212e-01  1.2024379634394466e-01  1.0551766302873376e-01  9.2150244880152110e-02  7.6908260993893932e-02  1.3122235631073587e-01  1.4424711099027931e-01  1.0105641147005469e-01  1.7604477058100951e-01  2.2503405662273426e-01  2.5839077453717935e-01  2.7693458076450805e-01  2.7109673602340423e-01  2.4887920150798606e-01  2.2241354512031566e-01  2.0047976757078198e-01  1.8512581734444014e-01  1.7570273996086885e-01  1.7188979116088079e-01  1.7267016605110760e-01  1.7493358677951520e-01  1.7490955350284326e-01  1.7068115666102182e-01  1.6358061531062287e-01  1.5723744783142388e-01  1.5506724201865127e-01  1.5845958804111540e-01  1.6638619944099681e-01  1.7631854359176716e-01  1.8542045394711507e-01  1.9156643298264420e-01  1.9396135432092707e-01  1.9334915656640259e-01  1.9173218426406571e-01  1.9148837261228738e-01  1.9468591944278954e-01  2.0262180241004490e-01  2.1603614053800799e-01  2.3513830603360766e-01  2.5749198249685845e-01  2.7334769168452877e-01  2.6650876378088811e-01  2.3351489005762052e-01  1.8995713635698044e-01  1.4532039617280895e-01  9.7428414935349220e-02  1.3499247976570899e-01  6.2594737141605195e-01  7.0785313711670572e-01  8.2262108483216512e-01  8.1377081967129716e-01  7.7371888564853919e-01  7.1121823365095360e-01  6.3733510131645721e-01  5.7545314689769833e-01  5.3497324788202827e-01  5.0524025963517005e-01  4.7515340773028492e-01  4.4207480424893286e-01  4.1216357764265160e-01  3.9391646122701096e-01  3.9010391284927176e-01  3.9611780713676531e-01  4.0473414391593998e-01  4.1226996571264729e-01  4.2046372249667247e-01  4.3295099559703054e-01  4.5113660007939954e-01  4.7287313766328815e-01  4.9359772793000400e-01  5.0880674319552666e-01  5.1593048921705797e-01  5.1510747275200508e-01  5.0862065929055011e-01  4.9953531386123834e-01  4.9031180890702430e-01  4.8227494326473230e-01  4.7594613864352620e-01  4.7106508642501504e-01  4.6529219961021206e-01  4.5268900032506482e-01  4.2627405415958192e-01  3.8525436104324795e-01  3.3949764762696072e-01  2.9952102724760721e-01  2.7565807211098353e-01  2.7272007862144632e-01  2.4093480156322464e-01  9.5044679560970369e-01  9.6368882763586872e-01  9.5483457355137968e-01  9.4333659276965809e-01  9.3108539766060416e-01  9.1792079381416369e-01  8.9979133153285107e-01  8.7188670167743210e-01  8.3359020917211979e-01  7.8986610861277540e-01  7.4702294762249533e-01  7.0953404581468671e-01  6.8039554172551286e-01  6.6183066761679277e-01  6.5453951019059242e-01  6.5591838392975854e-01  6.6077707131575247e-01  6.6604108701470277e-01  6.7238027007067858e-01  6.8066344578218985e-01  6.9014391859467539e-01  6.9939380669214712e-01  7.0708636387240287e-01  7.1238649933712561e-01  7.1492337798844330e-01  7.1458832464185085e-01  7.1159376038389610e-01  7.0656646006665669e-01  7.0063541393699391e-01  6.9523897408641155e-01  6.9176528217170308e-01  6.9085727394732777e-01  6.9277155472573593e-01  6.9809707999110282e-01  7.0700780159385557e-01  7.2143688921289773e-01  7.4090678283807898e-01  7.6339506949905933e-01  7.8971258991439597e-01  8.3808326744974759e-01  7.1351530498993687e-01  9.7212073129231591e-01  9.8233270225917479e-01  9.7620072441082617e-01  9.6754999126472263e-01  9.5703982392820552e-01  9.4703084680365668e-01  9.3906711075132232e-01  9.3026625932450036e-01  9.1758083249769240e-01  9.0045892748973100e-01  8.8033760012890938e-01  8.5941242696004261e-01  8.3969255010533939e-01  8.2301845953736985e-01  8.1071738973000440e-01  8.0274171154031304e-01  7.9785403912541997e-01  7.9558655293079061e-01  7.9601308689555517e-01  7.9798417633115426e-01  8.0022365030883813e-01  8.0210881444874171e-01  8.0294839011441066e-01  8.0206494474144441e-01  7.9912426447469853e-01  7.9412685989947296e-01  7.8769016918991375e-01  7.8116259489665474e-01  7.7633003173011661e-01  7.7471205728390802e-01  7.7731397175824402e-01  7.8421555977385260e-01  7.9468404151631156e-01  8.0807860399314935e-01  8.2505895424283571e-01  8.4639583013147812e-01  8.6828132011428194e-01  8.8650252017819386e-01  9.0286487996662701e-01  9.2183314877001032e-01  8.8211887623974083e-01  9.7552372520225217e-01  9.8586504999596247e-01  9.8137467919604904e-01  9.7452593857998859e-01  9.6547685041564413e-01  9.5572376427090477e-01  9.4842664532142196e-01  9.4390176074542920e-01  9.3849027757689996e-01  9.3006297552569039e-01  9.1867196460144362e-01  9.0537320568365809e-01  8.9163364586311600e-01  8.7890016053097442e-01  8.6832506326940195e-01  8.6038584885779545e-01  8.5454820225028227e-01  8.4946384989266577e-01  8.4360066209726636e-01  8.3660042118365152e-01  8.3028342389982235e-01  8.2633708562810870e-01  8.2386491313097243e-01  8.2074798506973112e-01  8.1581427890700431e-01  8.0880926345432547e-01  8.0044758820371231e-01  7.9208702130505004e-01  7.8552354696112980e-01  7.8244329769995502e-01  7.8432489744228329e-01  7.9174145931221074e-01  8.0337364955219104e-01  8.1749584363729955e-01  8.3619997646052568e-01  8.6110157002470555e-01  8.8545923597907306e-01  9.0352644616408728e-01  9.1810625744267726e-01  9.3463566613603832e-01  9.0585208335225864e-01  9.6872974772072218e-01  9.8333380150244265e-01  9.7918693968485138e-01  9.7298438156946332e-01  9.6486416156226340e-01  9.5596210659683634e-01  9.4900569505799681e-01  9.4556192042928866e-01  9.4292410313376429e-01  9.3809103780489977e-01  9.3025646664623995e-01  9.1989083991857878e-01  9.0810759982150757e-01  8.9621282310419037e-01  8.8523344387273739e-01  8.7581646620523979e-01  8.6812697011662510e-01  8.6100192630418737e-01  8.5204432959496179e-01  8.4063293858279819e-01  8.2958202510889123e-01  8.2137922878334102e-01  8.1483777357459131e-01  8.0727270994449407e-01  7.9738432629504075e-01  7.8518168393421095e-01  7.7105171034073572e-01  7.5577081944162228e-01  7.4055463147224876e-01  7.2723800299650709e-01  7.1837078801147614e-01  7.1670582361927493e-01  7.2461147692965333e-01  7.4174527867401441e-01  7.6565473887687685e-01  7.9903014287051555e-01  8.3824907052285824e-01  8.7123600225549191e-01  8.9584169164648142e-01  9.1800203907137612e-01  8.9190341263133555e-01  9.3675383303691706e-01  9.6955016412974526e-01  9.6633659339127653e-01  9.6161928320624057e-01  9.5498917137328199e-01  9.4781181078383492e-01  9.4240802085541064e-01  9.3985641633966055e-01  9.3814350940115288e-01  9.3457743796100046e-01  9.2792739706389371e-01  9.1816151969882553e-01  9.0604625171243247e-01  8.9285878155271203e-01  8.7976214696892996e-01  8.6746204721242459e-01  8.5573952273145648e-01  8.4253190505439013e-01  8.2562234351628405e-01  8.0557566356731103e-01  7.8583643760205069e-01  7.6791489528675561e-01  7.4955281281628228e-01  7.2953370876302692e-01  7.0759184405683995e-01  6.8257689647739905e-01  6.5469714664468437e-01  6.2668922313348119e-01  6.0179504140354045e-01  5.8200567204511144e-01  5.6785793686978803e-01  5.5900588599299150e-01  5.5462420068388385e-01  5.5154255906413230e-01  5.4425370397600314e-01  5.4119097537366079e-01  5.7564162594218882e-01  6.4727374457636166e-01  7.3884367277688767e-01  8.0548017729820165e-01  7.7761352060816091e-01  4.2851710528875064e-01  8.8172487986368597e-01  9.1685616047361806e-01  9.2618264160956831e-01  9.2748793047753753e-01  9.2591941827711521e-01  9.2434532493535027e-01  9.2350840454675498e-01  9.2213170727944771e-01  9.1835230786280619e-01  9.1092986026584966e-01  8.9946812029813117e-01  8.8441281326409327e-01  8.6698598454936582e-01  8.4865816772047242e-01  8.2995557772699724e-01  8.0933203708266555e-01  7.8491499644917517e-01  7.5439334798266122e-01  7.1621822742377472e-01  6.7985633437651638e-01  6.5533969416693716e-01  6.4335201963929434e-01  6.2757304107223788e-01  5.8893666514344023e-01  5.2837270097349376e-01  4.6310329899859592e-01  4.0996727806764072e-01  3.7581565631802072e-01  3.5816561273897823e-01  3.5078069821446783e-01  3.4776459771930984e-01  3.4493350603819029e-01  3.3985647790965878e-01  3.3086784828358828e-01  3.1375510988286714e-01  2.8623231902173696e-01  2.5819924269086253e-01  2.2930412319826385e-01  2.0128648527830628e-01  3.1380105426199612e-01  1.4206824708925986e-01  1.6673296738809276e-01  3.9601681042784581e-01  7.4176574920080618e-01  8.2778086786573135e-01  8.5962525591432637e-01  8.7380206819974138e-01  8.8010188544085077e-01  8.8095419551824083e-01  8.7637461798559368e-01  8.6581715328164333e-01  8.4890190879828886e-01  8.2597424429841459e-01  7.9871540570212507e-01  7.7049476741877199e-01  7.4621170835413142e-01  7.2670601004584401e-01  6.9556257206743466e-01  6.3645826097992331e-01  5.6811781124189698e-01  5.1684052044658368e-01  4.8700284028476593e-01  4.6336951719465402e-01  4.2948286942689712e-01  3.8427725425580322e-01  3.4192786054196972e-01  3.1340934324259484e-01  2.9467330693628468e-01  2.7753610693684910e-01  2.5895973505820580e-01  2.3926353186977747e-01  2.1942264526011662e-01  2.0016002178406614e-01  1.8182778435086477e-01  1.6462778741552031e-01  1.4873412373809078e-01  1.3388099901062159e-01  1.1904959203487159e-01  1.0320351282123341e-01  8.5042770101835488e-02  1.3909290463466600e-01  1.3377461488897285e-01  9.2394693529617780e-02  1.7995790092442515e-01  1.9642217928862826e-01  3.7270376772939245e-01  5.5593769625541778e-01  6.6791883295166132e-01  7.2655889050451805e-01  7.5124574657136212e-01  7.5406474474140073e-01  7.4023302315221495e-01  7.1208799526863220e-01  6.7259069291100138e-01  6.2957813285928654e-01  5.9515132362718881e-01  5.7070328946278537e-01  5.3830999960562465e-01  4.8455035029125532e-01  4.2218209428931924e-01  3.7881987270879502e-01  3.7212825221933765e-01  3.9593966753552784e-01  4.2195690355809889e-01  4.2045674631985702e-01  3.8558679339327406e-01  3.3573368045228164e-01  2.8832901427666036e-01  2.4868764995548237e-01  2.1649384506316871e-01  1.9041326367628769e-01  1.6928126045682235e-01  1.5197255442276930e-01  1.3745424530021344e-01  1.2492057385181704e-01  1.1384510914041950e-01  1.0390104947521667e-01  9.4755009346350672e-02  8.6205484246616629e-02  7.8698431653858009e-02  7.2094293983520311e-02  1.3022660680125314e-01  1.3402746825732698e-01  8.4707011060473639e-02  1.1662174735362973e-01  1.6724227113652038e-01  1.7487183642878967e-01  1.5596667669286418e-01  2.7994206412360573e-01  3.7585093014343385e-01  4.0805500582070414e-01  4.1605272580614161e-01  4.0247368139061074e-01  3.6793565625679858e-01  3.2360297357975543e-01  2.8540401185419934e-01  2.6607594350446223e-01  2.6692818503115723e-01  2.7475880289987653e-01  2.7933893941899463e-01  2.9134943954526821e-01  3.3106945674854177e-01  4.0252196140720820e-01  4.8042199604872921e-01  5.2049102178276963e-01  4.9169449825913408e-01  4.0893891051172521e-01  3.1875489141573177e-01  2.5051419710570511e-01  2.0593557340963928e-01  1.7703103084475516e-01  1.5699112834726267e-01  1.4183953485394676e-01  1.2941548882033294e-01  1.1863950656034127e-01  1.0899849172879472e-01  1.0022186727503531e-01  9.2161195373266933e-02  8.4783705799592782e-02  7.8356389491098549e-02  7.3521700447247484e-02  6.9873316539334568e-02  1.2943387288692318e-01  1.3411761173821649e-01  8.2800974346365505e-02  1.0190625968052081e-01  1.2390290169051699e-01  1.5437833426906991e-01  1.7451260755084758e-01  1.0680250174994997e-01  5.7139113672007295e-02  8.7161472360766934e-02  9.3630693370254217e-02  6.7169307041747728e-02  2.9354766762779809e-02  5.3945832716954956e-03  1.3419666738934933e-02  5.5894478280888941e-02  1.1541717071445678e-01  1.7301164001345587e-01  2.2747031599436057e-01  2.9415655526112822e-01  3.8501321082064421e-01  4.8833810940774453e-01  5.6521830638899584e-01  5.6930817485307172e-01  4.8828047025602722e-01  3.6701974060762910e-01  2.6530796725585026e-01  2.0530356566318536e-01  1.7512211564169983e-01  1.5790997510447294e-01  1.4470811553577817e-01  1.3277293154885381e-01  1.2184361270386607e-01  1.1201724234439174e-01  1.0320479338068815e-01  9.5216594900142962e-02  8.7956218735085037e-02  8.1510260027729597e-02  7.6196497291298779e-02  7.2419603355275003e-02  6.9521424372860616e-02  1.2926243076406238e-01  1.3419127278613693e-01  8.2335321199359893e-02  9.7387918272938662e-02  1.1009736442962638e-01  1.2605000991319751e-01  1.4506480753404691e-01  1.6381402090147706e-01  1.6987439725542580e-01  1.4226470261605997e-01  9.1163670527750443e-02  5.2283009600294285e-02  3.7464378094824398e-02  4.7162143579089252e-02  7.6553696601413757e-02  1.1512078597521420e-01  1.5457074620432726e-01  1.9531840451785318e-01  2.4738395665024882e-01  3.2229483197581843e-01  4.1765530161555775e-01  5.0784129209015139e-01  5.5115330210362068e-01  5.1754206004212766e-01  4.2052340756132489e-01  3.1020987240941406e-01  2.2813847478375046e-01  1.8271387552010546e-01  1.6217974909790472e-01  1.5214939438899852e-01  1.4290585713146420e-01  1.3194794701944229e-01  1.2093165640393228e-01  1.1112544341822721e-01  1.0257071712106658e-01  9.4915689805597725e-02  8.7996810771853604e-02  8.1931299015637046e-02  7.7011971737984367e-02  7.3502621257447096e-02  7.0335377441460623e-02  1.2955463418194185e-01  1.3413280490205556e-01  8.1813701684054468e-02  9.4761375285390623e-02  1.0346485244429192e-01  1.1339912599188641e-01  1.2510070377934621e-01  1.3848952895564828e-01  1.5277920108412632e-01  1.6650306834783699e-01  1.7814188905634065e-01  1.8720671400809843e-01  1.9424779983209081e-01  1.9986049980744711e-01  2.0398743748719464e-01  2.0639687931417530e-01  2.0914811285212953e-01  2.1955543420264939e-01  2.4863878911456894e-01  3.0285807750331073e-01  3.7354401162484829e-01  4.3383340051633068e-01  4.5156019756097809e-01  4.1522483132181054e-01  3.4615240129443253e-01  2.7722217873060601e-01  2.2388728773096914e-01  1.8355249824013356e-01  1.5600730103742463e-01  1.4489079331760280e-01  1.4119787044946569e-01  1.3390967775205478e-01  1.2379680919679015e-01  1.1415758294434730e-01  1.0573169324212994e-01  9.8148967710063678e-02  9.1194491068998976e-02  8.5014808877544729e-02  7.9969270323470495e-02  7.6267591295335752e-02  7.2092487899769533e-02  1.3018539363271606e-01  1.3397320693179399e-01  8.1159848761831355e-02  9.2684186160665455e-02  9.9183614992105040e-02  1.0597654303558973e-01  1.1373999604041954e-01  1.2280996622316835e-01  1.3313548709047296e-01  1.443910148