<?xml version="1.0"?>
<VTKFile type="UnstructuredGrid"  version="0.1"  >
<UnstructuredGrid>
<Piece  NumberOfPoints="1681" NumberOfCells="3200">
<Points>
<DataArray  type="Float64"  NumberOfComponents="3"  format="ascii">0 0 0  0.025 0 0  0.05 0 0  0.075 0 0  0.1 0 0  0.125 0 0  0.15 0 0  0.175 0 0  0.2 0 0  0.225 0 0  0.25 0 0  0.275 0 0  0.3 0 0  0.325 0 0  0.35 0 0  0.375 0 0  0.4 0 0  0.425 0 0  0.45 0 0  0.475 0 0  0.5 0 0  0.525 0 0  0.55 0 0  0.575 0 0  0.6 0 0  0.625 0 0  0.65 0 0  0.675 0 0  0.7 0 0  0.725 0 0  0.75 0 0  0.775 0 0  0.8 0 0  0.825 0 0  0.85 0 0  0.875 0 0  0.9 0 0  0.925 0 0  0.95 0 0  0.975 0 0  1 0 0  0 0.025 0  0.025 0.025 0  0.05 0.025 0  0.075 0.025 0  0.1 0.025 0  0.125 0.025 0  0.15 0.025 0  0.175 0.025 0  0.2 0.025 0  0.225 0.025 0  0.25 0.025 0  0.275 0.025 0  0.3 0.025 0  0.325 0.025 0  0.35 0.025 0  0.375 0.025 0  0.4 0.025 0  0.425 0.025 0  0.45 0.025 0  0.475 0.025 0  0.5 0.025 0  0.525 0.025 0  0.55 0.025 0  0.575 0.025 0  0.6 0.025 0  0.625 0.025 0  0.65 0.025 0  0.675 0.025 0  0.7 0.025 0  0.725 0.025 0  0.75 0.025 0  0.775 0.025 0  0.8 0.025 0  0.825 0.025 0  0.85 0.025 0  0.875 0.025 0  0.9 0.025 0  0.925 0.025 0  0.95 0.025 0  0.975 0.025 0  1 0.025 0  0 0.05 0  0.025 0.05 0  0.05 0.05 0  0.075 0.05 0  0.1 0.05 0  0.125 0.05 0  0.15 0.05 0  0.175 0.05 0  0.2 0.05 0  0.225 0.05 0  0.25 0.05 0  0.275 0.05 0  0.3 0.05 0  0.325 0.05 0  0.35 0.05 0  0.375 0.05 0  0.4 0.05 0  0.425 0.05 0  0.45 0.05 0  0.475 0.05 0  0.5 0.05 0  0.525 0.05 0  0.55 0.05 0  0.575 0.05 0  0.6 0.05 0  0.625 0.05 0  0.65 0.05 0  0.675 0.05 0  0.7 0.05 0  0.725 0.05 0  0.75 0.05 0  0.775 0.05 0  0.8 0.05 0  0.825 0.05 0  0.85 0.05 0  0.875 0.05 0  0.9 0.05 0  0.925 0.05 0  0.95 0.05 0  0.975 0.05 0  1 0.05 0  0 0.075 0  0.025 0.075 0  0.05 0.075 0  0.075 0.075 0  0.1 0.075 0  0.125 0.075 0  0.15 0.075 0  0.175 0.075 0  0.2 0.075 0  0.225 0.075 0  0.25 0.075 0  0.275 0.075 0  0.3 0.075 0  0.325 0.075 0  0.35 0.075 0  0.375 0.075 0  0.4 0.075 0  0.425 0.075 0  0.45 0.075 0  0.475 0.075 0  0.5 0.075 0  0.525 0.075 0  0.55 0.075 0  0.575 0.075 0  0.6 0.075 0  0.625 0.075 0  0.65 0.075 0  0.675 0.075 0  0.7 0.075 0  0.725 0.075 0  0.75 0.075 0  0.775 0.075 0  0.8 0.075 0  0.825 0.075 0  0.85 0.075 0  0.875 0.075 0  0.9 0.075 0  0.925 0.075 0  0.95 0.075 0  0.975 0.075 0  1 0.075 0  0 0.1 0  0.025 0.1 0  0.05 0.1 0  0.075 0.1 0  0.1 0.1 0  0.125 0.1 0  0.15 0.1 0  0.175 0.1 0  0.2 0.1 0  0.225 0.1 0  0.25 0.1 0  0.275 0.1 0  0.3 0.1 0  0.325 0.1 0  0.35 0.1 0  0.375 0.1 0  0.4 0.1 0  0.425 0.1 0  0.45 0.1 0  0.475 0.1 0  0.5 0.1 0  0.525 0.1 0  0.55 0.1 0  0.575 0.1 0  0.6 0.1 0  0.625 0.1 0  0.65 0.1 0  0.675 0.1 0  0.7 0.1 0  0.725 0.1 0  0.75 0.1 0  0.775 0.1 0  0.8 0.1 0  0.825 0.1 0  0.85 0.1 0  0.875 0.1 0  0.9 0.1 0  0.925 0.1 0  0.95 0.1 0  0.975 0.1 0  1 0.1 0  0 0.125 0  0.025 0.125 0  0.05 0.125 0  0.075 0.125 0  0.1 0.125 0  0.125 0.125 0  0.15 0.125 0  0.175 0.125 0  0.2 0.125 0  0.225 0.125 0  0.25 0.125 0  0.275 0.125 0  0.3 0.125 0  0.325 0.125 0  0.35 0.125 0  0.375 0.125 0  0.4 0.125 0  0.425 0.125 0  0.45 0.125 0  0.475 0.125 0  0.5 0.125 0  0.525 0.125 0  0.55 0.125 0  0.575 0.125 0  0.6 0.125 0  0.625 0.125 0  0.65 0.125 0  0.675 0.125 0  0.7 0.125 0  0.725 0.125 0  0.75 0.125 0  0.775 0.125 0  0.8 0.125 0  0.825 0.125 0  0.85 0.125 0  0.875 0.125 0  0.9 0.125 0  0.925 0.125 0  0.95 0.125 0  0.975 0.125 0  1 0.125 0  0 0.15 0  0.025 0.15 0  0.05 0.15 0  0.075 0.15 0  0.1 0.15 0  0.125 0.15 0  0.15 0.15 0  0.175 0.15 0  0.2 0.15 0  0.225 0.15 0  0.25 0.15 0  0.275 0.15 0  0.3 0.15 0  0.325 0.15 0  0.35 0.15 0  0.375 0.15 0  0.4 0.15 0  0.425 0.15 0  0.45 0.15 0  0.475 0.15 0  0.5 0.15 0  0.525 0.15 0  0.55 0.15 0  0.575 0.15 0  0.6 0.15 0  0.625 0.15 0  0.65 0.15 0  0.675 0.15 0  0.7 0.15 0  0.725 0.15 0  0.75 0.15 0  0.775 0.15 0  0.8 0.15 0  0.825 0.15 0  0.85 0.15 0  0.875 0.15 0  0.9 0.15 0  0.925 0.15 0  0.95 0.15 0  0.975 0.15 0  1 0.15 0  0 0.175 0  0.025 0.175 0  0.05 0.175 0  0.075 0.175 0  0.1 0.175 0  0.125 0.175 0  0.15 0.175 0  0.175 0.175 0  0.2 0.175 0  0.225 0.175 0  0.25 0.175 0  0.275 0.175 0  0.3 0.175 0  0.325 0.175 0  0.35 0.175 0  0.375 0.175 0  0.4 0.175 0  0.425 0.175 0  0.45 0.175 0  0.475 0.175 0  0.5 0.175 0  0.525 0.175 0  0.55 0.175 0  0.575 0.175 0  0.6 0.175 0  0.625 0.175 0  0.65 0.175 0  0.675 0.175 0  0.7 0.175 0  0.725 0.175 0  0.75 0.175 0  0.775 0.175 0  0.8 0.175 0  0.825 0.175 0  0.85 0.175 0  0.875 0.175 0  0.9 0.175 0  0.925 0.175 0  0.95 0.175 0  0.975 0.175 0  1 0.175 0  0 0.2 0  0.025 0.2 0  0.05 0.2 0  0.075 0.2 0  0.1 0.2 0  0.125 0.2 0  0.15 0.2 0  0.175 0.2 0  0.2 0.2 0  0.225 0.2 0  0.25 0.2 0  0.275 0.2 0  0.3 0.2 0  0.325 0.2 0  0.35 0.2 0  0.375 0.2 0  0.4 0.2 0  0.425 0.2 0  0.45 0.2 0  0.475 0.2 0  0.5 0.2 0  0.525 0.2 0  0.55 0.2 0  0.575 0.2 0  0.6 0.2 0  0.625 0.2 0  0.65 0.2 0  0.675 0.2 0  0.7 0.2 0  0.725 0.2 0  0.75 0.2 0  0.775 0.2 0  0.8 0.2 0  0.825 0.2 0  0.85 0.2 0  0.875 0.2 0  0.9 0.2 0  0.925 0.2 0  0.95 0.2 0  0.975 0.2 0  1 0.2 0  0 0.225 0  0.025 0.225 0  0.05 0.225 0  0.075 0.225 0  0.1 0.225 0  0.125 0.225 0  0.15 0.225 0  0.175 0.225 0  0.2 0.225 0  0.225 0.225 0  0.25 0.225 0  0.275 0.225 0  0.3 0.225 0  0.325 0.225 0  0.35 0.225 0  0.375 0.225 0  0.4 0.225 0  0.425 0.225 0  0.45 0.225 0  0.475 0.225 0  0.5 0.225 0  0.525 0.225 0  0.55 0.225 0  0.575 0.225 0  0.6 0.225 0  0.625 0.225 0  0.65 0.225 0  0.675 0.225 0  0.7 0.225 0  0.725 0.225 0  0.75 0.225 0  0.775 0.225 0  0.8 0.225 0  0.825 0.225 0  0.85 0.225 0  0.875 0.225 0  0.9 0.225 0  0.925 0.225 0  0.95 0.225 0  0.975 0.225 0  1 0.225 0  0 0.25 0  0.025 0.25 0  0.05 0.25 0  0.075 0.25 0  0.1 0.25 0  0.125 0.25 0  0.15 0.25 0  0.175 0.25 0  0.2 0.25 0  0.225 0.25 0  0.25 0.25 0  0.275 0.25 0  0.3 0.25 0  0.325 0.25 0  0.35 0.25 0  0.375 0.25 0  0.4 0.25 0  0.425 0.25 0  0.45 0.25 0  0.475 0.25 0  0.5 0.25 0  0.525 0.25 0  0.55 0.25 0  0.575 0.25 0  0.6 0.25 0  0.625 0.25 0  0.65 0.25 0  0.675 0.25 0  0.7 0.25 0  0.725 0.25 0  0.75 0.25 0  0.775 0.25 0  0.8 0.25 0  0.825 0.25 0  0.85 0.25 0  0.875 0.25 0  0.9 0.25 0  0.925 0.25 0  0.95 0.25 0  0.975 0.25 0  1 0.25 0  0 0.275 0  0.025 0.275 0  0.05 0.275 0  0.075 0.275 0  0.1 0.275 0  0.125 0.275 0  0.15 0.275 0  0.175 0.275 0  0.2 0.275 0  0.225 0.275 0  0.25 0.275 0  0.275 0.275 0  0.3 0.275 0  0.325 0.275 0  0.35 0.275 0  0.375 0.275 0  0.4 0.275 0  0.425 0.275 0  0.45 0.275 0  0.475 0.275 0  0.5 0.275 0  0.525 0.275 0  0.55 0.275 0  0.575 0.275 0  0.6 0.275 0  0.625 0.275 0  0.65 0.275 0  0.675 0.275 0  0.7 0.275 0  0.725 0.275 0  0.75 0.275 0  0.775 0.275 0  0.8 0.275 0  0.825 0.275 0  0.85 0.275 0  0.875 0.275 0  0.9 0.275 0  0.925 0.275 0  0.95 0.275 0  0.975 0.275 0  1 0.275 0  0 0.3 0  0.025 0.3 0  0.05 0.3 0  0.075 0.3 0  0.1 0.3 0  0.125 0.3 0  0.15 0.3 0  0.175 0.3 0  0.2 0.3 0  0.225 0.3 0  0.25 0.3 0  0.275 0.3 0  0.3 0.3 0  0.325 0.3 0  0.35 0.3 0  0.375 0.3 0  0.4 0.3 0  0.425 0.3 0  0.45 0.3 0  0.475 0.3 0  0.5 0.3 0  0.525 0.3 0  0.55 0.3 0  0.575 0.3 0  0.6 0.3 0  0.625 0.3 0  0.65 0.3 0  0.675 0.3 0  0.7 0.3 0  0.725 0.3 0  0.75 0.3 0  0.775 0.3 0  0.8 0.3 0  0.825 0.3 0  0.85 0.3 0  0.875 0.3 0  0.9 0.3 0  0.925 0.3 0  0.95 0.3 0  0.975 0.3 0  1 0.3 0  0 0.325 0  0.025 0.325 0  0.05 0.325 0  0.075 0.325 0  0.1 0.325 0  0.125 0.325 0  0.15 0.325 0  0.175 0.325 0  0.2 0.325 0  0.225 0.325 0  0.25 0.325 0  0.275 0.325 0  0.3 0.325 0  0.325 0.325 0  0.35 0.325 0  0.375 0.325 0  0.4 0.325 0  0.425 0.325 0  0.45 0.325 0  0.475 0.325 0  0.5 0.325 0  0.525 0.325 0  0.55 0.325 0  0.575 0.325 0  0.6 0.325 0  0.625 0.325 0  0.65 0.325 0  0.675 0.325 0  0.7 0.325 0  0.725 0.325 0  0.75 0.325 0  0.775 0.325 0  0.8 0.325 0  0.825 0.325 0  0.85 0.325 0  0.875 0.325 0  0.9 0.325 0  0.925 0.325 0  0.95 0.325 0  0.975 0.325 0  1 0.325 0  0 0.35 0  0.025 0.35 0  0.05 0.35 0  0.075 0.35 0  0.1 0.35 0  0.125 0.35 0  0.15 0.35 0  0.175 0.35 0  0.2 0.35 0  0.225 0.35 0  0.25 0.35 0  0.275 0.35 0  0.3 0.35 0  0.325 0.35 0  0.35 0.35 0  0.375 0.35 0  0.4 0.35 0  0.425 0.35 0  0.45 0.35 0  0.475 0.35 0  0.5 0.35 0  0.525 0.35 0  0.55 0.35 0  0.575 0.35 0  0.6 0.35 0  0.625 0.35 0  0.65 0.35 0  0.675 0.35 0  0.7 0.35 0  0.725 0.35 0  0.75 0.35 0  0.775 0.35 0  0.8 0.35 0  0.825 0.35 0  0.85 0.35 0  0.875 0.35 0  0.9 0.35 0  0.925 0.35 0  0.95 0.35 0  0.975 0.35 0  1 0.35 0  0 0.375 0  0.025 0.375 0  0.05 0.375 0  0.075 0.375 0  0.1 0.375 0  0.125 0.375 0  0.15 0.375 0  0.175 0.375 0  0.2 0.375 0  0.225 0.375 0  0.25 0.375 0  0.275 0.375 0  0.3 0.375 0  0.325 0.375 0  0.35 0.375 0  0.375 0.375 0  0.4 0.375 0  0.425 0.375 0  0.45 0.375 0  0.475 0.375 0  0.5 0.375 0  0.525 0.375 0  0.55 0.375 0  0.575 0.375 0  0.6 0.375 0  0.625 0.375 0  0.65 0.375 0  0.675 0.375 0  0.7 0.375 0  0.725 0.375 0  0.75 0.375 0  0.775 0.375 0  0.8 0.375 0  0.825 0.375 0  0.85 0.375 0  0.875 0.375 0  0.9 0.375 0  0.925 0.375 0  0.95 0.375 0  0.975 0.375 0  1 0.375 0  0 0.4 0  0.025 0.4 0  0.05 0.4 0  0.075 0.4 0  0.1 0.4 0  0.125 0.4 0  0.15 0.4 0  0.175 0.4 0  0.2 0.4 0  0.225 0.4 0  0.25 0.4 0  0.275 0.4 0  0.3 0.4 0  0.325 0.4 0  0.35 0.4 0  0.375 0.4 0  0.4 0.4 0  0.425 0.4 0  0.45 0.4 0  0.475 0.4 0  0.5 0.4 0  0.525 0.4 0  0.55 0.4 0  0.575 0.4 0  0.6 0.4 0  0.625 0.4 0  0.65 0.4 0  0.675 0.4 0  0.7 0.4 0  0.725 0.4 0  0.75 0.4 0  0.775 0.4 0  0.8 0.4 0  0.825 0.4 0  0.85 0.4 0  0.875 0.4 0  0.9 0.4 0  0.925 0.4 0  0.95 0.4 0  0.975 0.4 0  1 0.4 0  0 0.425 0  0.025 0.425 0  0.05 0.425 0  0.075 0.425 0  0.1 0.425 0  0.125 0.425 0  0.15 0.425 0  0.175 0.425 0  0.2 0.425 0  0.225 0.425 0  0.25 0.425 0  0.275 0.425 0  0.3 0.425 0  0.325 0.425 0  0.35 0.425 0  0.375 0.425 0  0.4 0.425 0  0.425 0.425 0  0.45 0.425 0  0.475 0.425 0  0.5 0.425 0  0.525 0.425 0  0.55 0.425 0  0.575 0.425 0  0.6 0.425 0  0.625 0.425 0  0.65 0.425 0  0.675 0.425 0  0.7 0.425 0  0.725 0.425 0  0.75 0.425 0  0.775 0.425 0  0.8 0.425 0  0.825 0.425 0  0.85 0.425 0  0.875 0.425 0  0.9 0.425 0  0.925 0.425 0  0.95 0.425 0  0.975 0.425 0  1 0.425 0  0 0.45 0  0.02
[...]
<PointData  Scalars="ControlVisualisation"> 
<DataArray  type="Float64"  Name="ControlVisualisation"  format="ascii">1.8592602704776598e-01  1.2946471005697097e-01  1.2962588459927238e-01  1.2996061077306198e-01  1.3045476467803188e-01  1.3106473743384423e-01  1.3173415148041570e-01  1.3241536912822993e-01  1.3307918907585578e-01  1.3371245144762856e-01  1.3431086294032407e-01  1.3487277138768586e-01  1.3539602070622228e-01  1.3587757893179939e-01  1.3631477526608654e-01  1.3670698083665669e-01  1.3705658383832520e-01  1.3736835814802986e-01  1.3764715309891737e-01  1.3789467233456643e-01  1.3810676329869498e-01  1.3827254217514204e-01  1.3837588624188049e-01  1.3839884181267206e-01  1.3832570609574682e-01  1.3814633739915044e-01  1.3785752573397383e-01  1.3746219698927187e-01  1.3696713952302053e-01  1.3638046017529659e-01  1.3570974219798398e-01  1.3496148026632288e-01  1.3414233858584743e-01  1.3326305644393691e-01  1.3234636914571452e-01  1.3143773099897918e-01  1.3061112492590493e-01  1.2995837955336828e-01  1.2955729957265849e-01  1.2942991472002011e-01  2.9915816827683994e-01  1.2946186049168076e-01  6.7785270366035516e-02  6.8212375812926648e-02  6.9038725307899021e-02  7.0285760937068370e-02  7.1883992150297435e-02  7.3719910532020066e-02  7.5680631401038270e-02  7.7679365943345915e-02  7.9659680698259364e-02  8.1586484311117161e-02  8.3434907520438695e-02  8.5183401366128217e-02  8.6812397700448893e-02  8.8307094797917679e-02  8.9661930452202762e-02  9.0883313731298557e-02  9.1987525230029926e-02  9.2992475795468987e-02  9.3905442311415524e-02  9.4711562575212974e-02  9.5368670115668755e-02  9.5811779177516487e-02  9.5966810519974674e-02  9.5768897338295522e-02  9.5178579471372218e-02  9.4189838764366679e-02  9.2827862838878727e-02  9.1139054814010773e-02  8.9178210702027472e-02  8.6997531548635890e-02  8.4640143617809110e-02  8.2140021137424746e-02  7.9530681170505463e-02  7.6865980900157144e-02  7.4247292912089549e-02  7.1842277633396484e-02  6.9869518181471385e-02  6.8520608485587400e-02  6.7789931653980146e-02  1.2942956022070506e-01  1.2958712075007955e-01  6.8172949845879544e-02  6.9047601427630487e-02  7.0484200682454770e-02  7.2669213012223635e-02  7.5521310659741603e-02  7.8876736830303454e-02  8.2560355252152079e-02  8.6425595006484723e-02  9.0365684002324156e-02  9.4305586602942790e-02  9.8187512835829480e-02  1.0195944244325425e-01  1.0557114519201097e-01  1.0897770654888472e-01  1.1214779841192245e-01  1.1507031274406665e-01  1.1775195355877632e-01  1.2020154912901210e-01  1.2240508333209940e-01  1.2430333793644623e-01  1.2578550671689920e-01  1.2670464982880930e-01  1.2690973996818056e-01  1.2628152537269285e-01  1.2476004219560226e-01  1.2235724292082781e-01  1.1915447902055083e-01  1.1528739058050390e-01  1.1092074771154875e-01  1.0621735558629737e-01  1.0130950386432441e-01  9.6284206869511640e-02  9.1195471596220087e-02  8.6111770783102920e-02  8.1180501111548037e-02  7.6679389551058311e-02  7.2978616649246611e-02  7.0367428121577869e-02  6.8525576949134248e-02  1.2955067396503880e-01  1.2978428895394928e-01  6.8861634744567718e-02  7.0440287874897103e-02  7.2612057556432158e-02  7.5727254121116847e-02  7.9666296997103259e-02  8.4209809744191275e-02  8.9148075555451747e-02  9.4317108594992025e-02  9.9603833937158923e-02  1.0493152106479102e-01  1.1023900233023749e-01  1.1546461271214011e-01  1.2053792675419860e-01  1.2537783103122060e-01  1.2989769173000529e-01  1.3401703945155385e-01  1.3767214977885783e-01  1.4081519530313313e-01  1.4340300144397489e-01  1.4538854237942295e-01  1.4672082160602459e-01  1.4734653988757143e-01  1.4720668890664104e-01  1.4623403401432067e-01  1.4435757124074561e-01  1.4151351503789866e-01  1.3766624536173669e-01  1.3284648920520137e-01  1.2719144945509089e-01  1.2094465122722253e-01  1.1439283996255209e-01  1.0777050811262730e-01  1.0119922477466374e-01  9.4708339670391190e-02  8.8351091118345201e-02  8.2368847293927128e-02  7.7212896439578668e-02  7.3352854554701044e-02  6.9963070904352831e-02  1.2993316466641261e-01  1.2989682535323252e-01  6.9740560652154920e-02  7.3347634123473976e-02  7.7536445311520735e-02  8.2737957125425005e-02  8.8692651213880092e-02  9.5138448926577412e-02  1.0186802258991023e-01  1.0872253636208232e-01  1.1558146711864781e-01  1.2236342241810538e-01  1.2902322416900064e-01  1.3551855656809994e-01  1.4173912405993033e-01  1.4745442269368442e-01  1.5235638616621042e-01  1.5619092299981843e-01  1.5887705659028409e-01  1.6052418193919868e-01  1.6136031814592899e-01  1.6164766468449135e-01  1.6162355284778551e-01  1.6145079612579952e-01  1.6117422235067477e-01  1.6071523779621119e-01  1.5991302866047008e-01  1.5856775794454905e-01  1.5644159391108176e-01  1.5323975840436965e-01  1.4865925722213011e-01  1.4255512283020907e-01  1.3511301412594906e-01  1.2682210370051977e-01  1.1823216080091756e-01  1.0969039331282900e-01  1.0130798857616981e-01  9.3162176637749033e-02  8.5594991586103980e-02  7.9282057122216809e-02  7.2573106699334602e-02  1.3060308931868408e-01  1.3052231050895330e-01  7.3198239996442122e-02  8.4176293950210410e-02  9.5884400761501412e-02  1.0791784212616368e-01  1.1947169066408442e-01  1.3009577680271200e-01  1.3953502954883767e-01  1.4772454678441907e-01  1.5490501053132916e-01  1.6163335422466182e-01  1.6843166941514215e-01  1.7524890153598641e-01  1.8137687246960138e-01  1.8596464262048659e-01  1.8856675443725956e-01  1.8936221361344996e-01  1.8907602987693467e-01  1.8864285472412523e-01  1.8876684912386699e-01  1.8968689259176716e-01  1.9126453182841532e-01  1.9320236918019953e-01  1.9518201294384291e-01  1.9691519173310065e-01  1.9819212975515668e-01  1.9892993185635632e-01  1.9914494055182166e-01  1.9879077261863826e-01  1.9750400730420331e-01  1.9446195231968938e-01  1.8863676578075053e-01  1.7940123501235014e-01  1.6693776460688686e-01  1.5205122375780214e-01  1.3601659074256722e-01  1.2024075022175357e-01  1.0551672054993806e-01  9.2148649167417496e-02  7.6905120624029072e-02  1.3121257754067747e-01  1.4424904149987763e-01  1.0105474278878010e-01  1.7605086201171638e-01  2.2504487912740453e-01  2.5841218791227905e-01  2.7695460203796080e-01  2.7110427751029659e-01  2.4887703861054802e-01  2.2241351795981076e-01  2.0046268532574832e-01  1.8509421055284134e-01  1.7568679737601062e-01  1.7189821653776952e-01  1.7266331823458311e-01  1.7492891359114079e-01  1.7490858864711831e-01  1.7068804709338564e-01  1.6360403850338956e-01  1.5725758027216494e-01  1.5509355652748982e-01  1.5848489059118340e-01  1.6640707196086424e-01  1.7633315171145358e-01  1.8543754902027398e-01  1.9158391297404784e-01  1.9397404125527737e-01  1.9336274337891321e-01  1.9172777549644229e-01  1.9149164384002140e-01  1.9469830248488179e-01  2.0263513630949245e-01  2.1604564552259292e-01  2.3514433590869052e-01  2.5750534831729560e-01  2.7335920388079715e-01  2.6650849087195361e-01  2.3351007732568083e-01  1.8995431431035439e-01  1.4531499367085460e-01  9.7419317377258757e-02  1.3497823416809532e-01  6.2595644394956218e-01  7.0788626306771141e-01  8.2263099237054127e-01  8.1378866672521044e-01  7.7375617710798450e-01  7.1126997197313369e-01  6.3737540378712854e-01  5.7547060543447037e-01  5.3497160813685096e-01  5.0523141481250433e-01  4.7513375323646501e-01  4.4206041279027786e-01  4.1217568775259095e-01  3.9392190274900418e-01  3.9008289510356142e-01  3.9609842396974215e-01  4.0474127086087186e-01  4.1230555260337021e-01  4.2049997692715707e-01  4.3298175148145135e-01  4.5116713139683806e-01  4.7287610250528062e-01  4.9360495854393327e-01  5.0883093247972544e-01  5.1596433296087341e-01  5.1512734294913376e-01  5.0861971278553919e-01  4.9952218951129818e-01  4.9030139468032014e-01  4.8227586782968479e-01  4.7594796400881834e-01  4.7106892453774085e-01  4.6530337802106853e-01  4.5273392851691091e-01  4.2630651541409137e-01  3.8527420534155626e-01  3.3951370580227863e-01  2.9952990106243704e-01  2.7565158963523706e-01  2.7270033918301795e-01  2.4090143312459134e-01  9.5044668669675247e-01  9.6368986610749308e-01  9.5483589888605036e-01  9.4333913741478137e-01  9.3109360923831463e-01  9.1793263007681425e-01  8.9980415988780704e-01  8.7190193650027259e-01  8.3360081980432832e-01  7.8988237478391432e-01  7.4703582609347918e-01  7.0954822001274143e-01  6.8041768500808475e-01  6.6185162324400792e-01  6.5455925770893642e-01  6.5591889490355626e-01  6.6078344624138896e-01  6.6607384769333922e-01  6.7240428264667618e-01  6.8069271081778782e-01  6.9017419526008095e-01  6.9938854590260413e-01  7.0709136583585430e-01  7.1242975276498754e-01  7.1496464310387275e-01  7.1461411827440735e-01  7.1160646055666099e-01  7.0656921251694094e-01  7.0062793953277103e-01  6.9525180849294244e-01  6.9177188849511828e-01  6.9086758912717072e-01  6.9278514300454119e-01  6.9813134011437183e-01  7.0703157944655570e-01  7.2144135575091750e-01  7.4089819330968210e-01  7.6338109359945117e-01  7.8968950398601334e-01  8.3807257107933331e-01  7.1348996344070881e-01  9.7212010553437578e-01  9.8233284182182434e-01  9.7620110068965060e-01  9.6755050779755447e-01  9.5704204499306755e-01  9.4703458889832570e-01  9.3906989600626545e-01  9.3026754889347829e-01  9.1758388581442762e-01  9.0045689435020637e-01  8.8033501931851021e-01  8.5941979241580013e-01  8.3970909768126212e-01  8.2303830629897323e-01  8.1076002848084139e-01  8.0276367468493781e-01  7.9784994727501524e-01  7.9558894833270266e-01  7.9600865524123010e-01  7.9800185046207772e-01  8.0025126176331385e-01  8.0212380675789174e-01  8.0295655087058071e-01  8.0208351140410228e-01  7.9913893838874117e-01  7.9412167873123918e-01  7.8765740345892665e-01  7.8113824480419958e-01  7.7631291783979606e-01  7.7471140606628497e-01  7.7730627506926264e-01  7.8420990332998564e-01  7.9468574785168378e-01  8.0809108460992185e-01  8.2506347141299829e-01  8.4638792095129511e-01  8.6827049712787752e-01  8.8649324705888199e-01  9.0285714771153391e-01  9.2182991873492715e-01  8.8211455802495164e-01  9.7552377590538375e-01  9.8586524518334873e-01  9.8137496760124665e-01  9.7452648697960387e-01  9.6547779877252216e-01  9.5572527049565925e-01  9.4842823912479646e-01  9.4390090705545449e-01  9.3849010391059728e-01  9.3005889630674177e-01  9.1866606390958760e-01  9.0537782480699758e-01  8.9164444040920299e-01  8.7891760170185063e-01  8.6835228859816949e-01  8.6040457196752218e-01  8.5454168496492400e-01  8.4944528801436892e-01  8.4358304727145472e-01  8.3660075997694583e-01  8.3030999606008749e-01  8.2636894308693198e-01  8.2387661589458294e-01  8.2076299928269991e-01  8.1579562461441002e-01  8.0878417463672136e-01  8.0039936818419954e-01  7.9205977188718291e-01  7.8550703994294413e-01  7.8243272031901490e-01  7.8431476595731242e-01  7.9172958967715235e-01  8.0336695309015305e-01  8.1749660809515134e-01  8.3619693464549538e-01  8.6109082977480789e-01  8.8545172559330776e-01  9.0352283394023147e-01  9.1810095462463115e-01  9.3463472294749683e-01  9.0584989442470898e-01  9.6872958471267834e-01  9.8333383815045261e-01  9.7918677934721310e-01  9.7298398791865903e-01  9.6486403532119092e-01  9.5596258768346343e-01  9.4900657515764753e-01  9.4556178386187051e-01  9.4292328676504167e-01  9.3809014560289206e-01  9.3025524493037148e-01  9.1989475323082215e-01  9.0811796434096514e-01  8.9622305125457546e-01  8.8524567818912026e-01  8.7582675559742895e-01  8.6812234510074848e-01  8.6098260491274925e-01  8.5202315612397028e-01  8.4063272660592758e-01  8.2960429581413941e-01  8.2141390578980933e-01  8.1485479813455497e-01  8.0726165905440350e-01  7.9737234755634245e-01  7.8515114126494434e-01  7.7101967295386042e-01  7.5575226200748846e-01  7.4055194530837487e-01  7.2724348657313553e-01  7.1834507064111341e-01  7.1668271665722971e-01  7.2459520763290164e-01  7.4173952143277777e-01  7.6563910913904132e-01  7.9901690244357382e-01  8.3824478928837554e-01  8.7123916081733155e-01  8.9584111291923418e-01  9.1800247937531643e-01  8.9190270357274604e-01  9.3675108867845280e-01  9.6954979568257682e-01  9.6633625366429610e-01  9.6161855418786957e-01  9.5498822633789804e-01  9.4781109995462665e-01  9.4240857162928560e-01  9.3985590710968403e-01  9.3814233679161596e-01  9.3457906714370975e-01  9.2793344493582297e-01  9.1816693731171628e-01  9.0605483107680618e-01  8.9285852488306927e-01  8.7976114603840461e-01  8.6746600557669895e-01  8.5572834079735771e-01  8.4251890854842859e-01  8.2560435158248191e-01  8.0556459282464388e-01  7.8586451006462588e-01  7.6794228610578252e-01  7.4956486442358472e-01  7.2953051986174955e-01  7.0759346971755710e-01  6.8257951432206565e-01  6.5468526095602475e-01  6.2667838067350234e-01  6.0180527521078275e-01  5.8201784534449963e-01  5.6783975912572748e-01  5.5898857653503264e-01  5.5462119112236363e-01  5.5153763325631511e-01  5.4425190152763858e-01  5.4118143897191473e-01  5.7565118609299415e-01  6.4729626228278914e-01  7.3886990846951650e-01  8.0549640890585339e-01  7.7760712093683060e-01  4.2846830831142918e-01  8.8171775519398077e-01  9.1685641625081127e-01  9.2618383436638618e-01  9.2748686923828461e-01  9.2591683277166270e-01  9.2434286254043452e-01  9.2350772548621285e-01  9.2213257309491237e-01  9.1835594736739790e-01  9.1094258155190488e-01  8.9948491017709364e-01  8.8442650275057233e-01  8.6699183530844859e-01  8.4865406696449941e-01  8.2994413254574639e-01  8.0930680618654915e-01  7.8489532750162583e-01  7.5437765311740790e-01  7.1618927394974363e-01  6.7984751300277557e-01  6.5535254432764933e-01  6.4336721065725444e-01  6.2757393934192318e-01  5.8894713564323997e-01  5.2840017927251970e-01  4.6311460030874141e-01  4.0996895356447804e-01  3.7580715002929727e-01  3.5816345985538761e-01  3.5076751512669779e-01  3.4774812414409162e-01  3.4492452782402699e-01  3.3983647462051114e-01  3.3085956173741887e-01  3.1375059576191433e-01  2.8623974210784503e-01  2.5820702295656117e-01  2.2932992171037231e-01  2.0132803554769904e-01  3.1381556622610229e-01  1.4205857862808785e-01  1.6672231103411297e-01  3.9600595403037803e-01  7.4176249279479589e-01  8.2778591335134655e-01  8.5962532413280612e-01  8.7379330918630493e-01  8.8010034971879270e-01  8.8095780852944705e-01  8.7639050442214272e-01  8.6584110854338470e-01  8.4892925923282037e-01  8.2600070418750449e-01  7.9872340872566749e-01  7.7051044313901140e-01  7.4620111451521376e-01  7.2667974677507252e-01  6.9553134629782731e-01  6.3643006280405046e-01  5.6808420841978935e-01  5.1683692688296468e-01  4.8700820123657440e-01  4.6339636985498950e-01  4.2949942378052047e-01  3.8431714513491566e-01  3.4196571952322063e-01  3.1343618059454997e-01  2.9468536383428179e-01  2.7753151646396879e-01  2.5895426856696968e-01  2.3925958866507963e-01  2.1941779763480826e-01  2.0015122573232649e-01  1.8181785665151370e-01  1.6462087453767310e-01  1.4873554771120265e-01  1.3388472228893322e-01  1.1905008063859045e-01  1.0320296005535570e-01  8.5041648295514388e-02  1.3909425074226889e-01  1.3376325633113265e-01  9.2392928425792539e-02  1.7995568649446991e-01  1.9640871602767762e-01  3.7271615112092560e-01  5.5595063083325669e-01  6.6790990754081014e-01  7.2655508982623251e-01  7.5125934346053935e-01  7.5409520265777008e-01  7.4027874573764563e-01  7.1213008249100795e-01  6.7263721722872161e-01  6.2960393013964500e-01  5.9517373277789964e-01  5.7071826308213836e-01  5.3830458249014135e-01  4.8454008411835353e-01  4.2214436429701158e-01  3.7879644682256880e-01  3.7214853667010628e-01  3.9596379083351058e-01  4.2197541960998275e-01  4.2046656071505500e-01  3.8562708627147657e-01  3.3577394725630594e-01  2.8834693948681389e-01  2.4869360954840450e-01  2.1648916588622613e-01  1.9042080580273194e-01  1.6928317266259638e-01  1.5196737875524716e-01  1.3744585889842079e-01  1.2491062792887175e-01  1.1384253331892460e-01  1.0390064873721655e-01  9.4755820538018315e-02  8.6205450227588715e-02  7.8696294988255561e-02  7.2092108164902538e-02  1.3022023612879999e-01  1.3401414740043407e-01  8.4703276180673442e-02  1.1661845110100266e-01  1.6723249916318456e-01  1.7486246761600460e-01  1.5594267357751246e-01  2.7991198436694992e-01  3.7582807330669260e-01  4.0804455189833999e-01  4.1603784806877703e-01  4.0245845521983864e-01  3.6793062326250103e-01  3.2359768257156701e-01  2.8541616914100776e-01  2.6607575561951857e-01  2.6694007609604697e-01  2.7472931814416252e-01  2.7930803817412819e-01  2.9131156440305467e-01  3.3102714120033316e-01  4.0250069641844216e-01  4.8042185471436438e-01  5.2050054192568218e-01  4.9170027972358632e-01  4.0895308781867329e-01  3.1875729752458259e-01  2.5050780534515610e-01  2.0593321316987767e-01  1.7702375967697573e-01  1.5699120220273588e-01  1.4183506632828158e-01  1.2940754694310530e-01  1.1863278787994745e-01  1.0899177904020388e-01  1.0021812322560811e-01  9.2159244310251132e-02  8.4784543664717521e-02  7.8355458365545555e-02  7.3519878999779270e-02  6.9870105898193674e-02  1.2942340649136597e-01  1.3410312267866309e-01  8.2796999673483057e-02  1.0190291788101279e-01  1.2389708507964772e-01  1.5437369366503415e-01  1.7451100383449417e-01  1.0679862598741950e-01  5.7141116112410205e-02  8.7159469670630763e-02  9.3625043211899364e-02  6.7136857241451478e-02  2.9340261981681812e-02  5.3930628380067713e-03  1.3418270604363736e-02  5.5890089521357246e-02  1.1541761021839597e-01  1.7298486821807421e-01  2.2744256995085166e-01  2.9413822351243413e-01  3.8498581037956897e-01  4.8831112670299570e-01  5.6521335305155163e-01  5.6931035680438602e-01  4.8828207932694861e-01  3.6702849961061540e-01  2.6531124709371412e-01  2.0529716311955115e-01  1.7512378429476672e-01  1.5790745255104247e-01  1.4470171029498990e-01  1.3276941053654176e-01  1.2183710584904436e-01  1.1201497772640558e-01  1.0320298009484895e-01  9.5215200342226594e-02  8.7955507219569976e-02  8.1511852725305950e-02  7.6196743510863335e-02  7.2417138583141152e-02  6.9517257965303753e-02  1.2924888325108130e-01  1.3417638796289996e-01  8.2330227649904275e-02  9.7381133184283444e-02  1.1008970734253366e-01  1.2604592850449667e-01  1.4506570775922564e-01  1.6381238712318946e-01  1.6987302387082776e-01  1.4225954603479554e-01  9.1154368927029952e-02  5.2275769470304094e-02  3.7457395331307410e-02  4.7153559725237743e-02  7.6535006911249176e-02  1.1509387549251085e-01  1.5455106394263385e-01  1.9529461453531885e-01  2.4736735855510711e-01  3.2226778360333341e-01  4.1761759444469410e-01  5.0781282721903498e-01  5.5113767020485416e-01  5.1753248148285746e-01  4.2051633906808766e-01  3.1021398976125492e-01  2.2814207317368632e-01  1.8270078212587670e-01  1.6217354773795856e-01  1.5214394367270992e-01  1.4289546409654402e-01  1.3193886929804577e-01  1.2092387920047917e-01  1.1112232158780859e-01  1.0256498534286486e-01  9.4912715184303692e-02  8.7999044646452876e-02  8.1933358693603159e-02  7.7011664840155286e-02  7.3499140301285473e-02  7.0329642926238070e-02  1.2953867097019828e-01  1.3411880652383604e-01  8.1810563622704502e-02  9.4757063647255516e-02  1.0345927339803163e-01  1.1339588560797721e-01  1.2510025923462506e-01  1.3848884564624092e-01  1.5277691317611780e-01  1.6650228966118738e-01  1.7813857450561060e-01  1.8720114906778249e-01  1.9424644041838304e-01  1.9985812197732791e-01  2.0397753722754844e-01  2.0638513812780251e-01  2.0914580509316996e-01  2.1954026718012409e-01  2.4861584100120815e-01  3.0281814866283047e-01  3.7350371560101259e-01  4.3379862906835820e-01  4.5153075731860776e-01  4.1520757379459339e-01  3.4615352951459177e-01  2.7724897511529739e-01  2.2390388227822583e-01  1.8355353443735548e-01  1.5601120894904086e-01  1.4488658759481327e-01  1.4118835758851353e-01  1.3390440823989386e-01  1.2379067074354495e-01  1.1415721361439921e-01  1.0573081920662401e-01  9.8148199173282297e-02  9.1191513680854069e-02  8.5014700628134793e-02  7.9966800958524736e-02  7.6263933318908961e-02  7.2086339365743046e-02  1.3016626831976333e-01  1.3395915026943911e-01  8.1157742081647208e-02  9.2682889859420831e-02  9.9178414981765092e-02  1.0597279350525653e-01  1.1373690601648513e-01  1.2280701427523152e-01  1.3313323476157213e-01  1.443879159