<?xml version="1.0"?>
<VTKFile type="UnstructuredGrid"  version="0.1"  >
<UnstructuredGrid>
<Piece  NumberOfPoints="1681" NumberOfCells="3200">
<Points>
<DataArray  type="Float64"  NumberOfComponents="3"  format="ascii">0 0 0  0.025 0 0  0.05 0 0  0.075 0 0  0.1 0 0  0.125 0 0  0.15 0 0  0.175 0 0  0.2 0 0  0.225 0 0  0.25 0 0  0.275 0 0  0.3 0 0  0.325 0 0  0.35 0 0  0.375 0 0  0.4 0 0  0.425 0 0  0.45 0 0  0.475 0 0  0.5 0 0  0.525 0 0  0.55 0 0  0.575 0 0  0.6 0 0  0.625 0 0  0.65 0 0  0.675 0 0  0.7 0 0  0.725 0 0  0.75 0 0  0.775 0 0  0.8 0 0  0.825 0 0  0.85 0 0  0.875 0 0  0.9 0 0  0.925 0 0  0.95 0 0  0.975 0 0  1 0 0  0 0.025 0  0.025 0.025 0  0.05 0.025 0  0.075 0.025 0  0.1 0.025 0  0.125 0.025 0  0.15 0.025 0  0.175 0.025 0  0.2 0.025 0  0.225 0.025 0  0.25 0.025 0  0.275 0.025 0  0.3 0.025 0  0.325 0.025 0  0.35 0.025 0  0.375 0.025 0  0.4 0.025 0  0.425 0.025 0  0.45 0.025 0  0.475 0.025 0  0.5 0.025 0  0.525 0.025 0  0.55 0.025 0  0.575 0.025 0  0.6 0.025 0  0.625 0.025 0  0.65 0.025 0  0.675 0.025 0  0.7 0.025 0  0.725 0.025 0  0.75 0.025 0  0.775 0.025 0  0.8 0.025 0  0.825 0.025 0  0.85 0.025 0  0.875 0.025 0  0.9 0.025 0  0.925 0.025 0  0.95 0.025 0  0.975 0.025 0  1 0.025 0  0 0.05 0  0.025 0.05 0  0.05 0.05 0  0.075 0.05 0  0.1 0.05 0  0.125 0.05 0  0.15 0.05 0  0.175 0.05 0  0.2 0.05 0  0.225 0.05 0  0.25 0.05 0  0.275 0.05 0  0.3 0.05 0  0.325 0.05 0  0.35 0.05 0  0.375 0.05 0  0.4 0.05 0  0.425 0.05 0  0.45 0.05 0  0.475 0.05 0  0.5 0.05 0  0.525 0.05 0  0.55 0.05 0  0.575 0.05 0  0.6 0.05 0  0.625 0.05 0  0.65 0.05 0  0.675 0.05 0  0.7 0.05 0  0.725 0.05 0  0.75 0.05 0  0.775 0.05 0  0.8 0.05 0  0.825 0.05 0  0.85 0.05 0  0.875 0.05 0  0.9 0.05 0  0.925 0.05 0  0.95 0.05 0  0.975 0.05 0  1 0.05 0  0 0.075 0  0.025 0.075 0  0.05 0.075 0  0.075 0.075 0  0.1 0.075 0  0.125 0.075 0  0.15 0.075 0  0.175 0.075 0  0.2 0.075 0  0.225 0.075 0  0.25 0.075 0  0.275 0.075 0  0.3 0.075 0  0.325 0.075 0  0.35 0.075 0  0.375 0.075 0  0.4 0.075 0  0.425 0.075 0  0.45 0.075 0  0.475 0.075 0  0.5 0.075 0  0.525 0.075 0  0.55 0.075 0  0.575 0.075 0  0.6 0.075 0  0.625 0.075 0  0.65 0.075 0  0.675 0.075 0  0.7 0.075 0  0.725 0.075 0  0.75 0.075 0  0.775 0.075 0  0.8 0.075 0  0.825 0.075 0  0.85 0.075 0  0.875 0.075 0  0.9 0.075 0  0.925 0.075 0  0.95 0.075 0  0.975 0.075 0  1 0.075 0  0 0.1 0  0.025 0.1 0  0.05 0.1 0  0.075 0.1 0  0.1 0.1 0  0.125 0.1 0  0.15 0.1 0  0.175 0.1 0  0.2 0.1 0  0.225 0.1 0  0.25 0.1 0  0.275 0.1 0  0.3 0.1 0  0.325 0.1 0  0.35 0.1 0  0.375 0.1 0  0.4 0.1 0  0.425 0.1 0  0.45 0.1 0  0.475 0.1 0  0.5 0.1 0  0.525 0.1 0  0.55 0.1 0  0.575 0.1 0  0.6 0.1 0  0.625 0.1 0  0.65 0.1 0  0.675 0.1 0  0.7 0.1 0  0.725 0.1 0  0.75 0.1 0  0.775 0.1 0  0.8 0.1 0  0.825 0.1 0  0.85 0.1 0  0.875 0.1 0  0.9 0.1 0  0.925 0.1 0  0.95 0.1 0  0.975 0.1 0  1 0.1 0  0 0.125 0  0.025 0.125 0  0.05 0.125 0  0.075 0.125 0  0.1 0.125 0  0.125 0.125 0  0.15 0.125 0  0.175 0.125 0  0.2 0.125 0  0.225 0.125 0  0.25 0.125 0  0.275 0.125 0  0.3 0.125 0  0.325 0.125 0  0.35 0.125 0  0.375 0.125 0  0.4 0.125 0  0.425 0.125 0  0.45 0.125 0  0.475 0.125 0  0.5 0.125 0  0.525 0.125 0  0.55 0.125 0  0.575 0.125 0  0.6 0.125 0  0.625 0.125 0  0.65 0.125 0  0.675 0.125 0  0.7 0.125 0  0.725 0.125 0  0.75 0.125 0  0.775 0.125 0  0.8 0.125 0  0.825 0.125 0  0.85 0.125 0  0.875 0.125 0  0.9 0.125 0  0.925 0.125 0  0.95 0.125 0  0.975 0.125 0  1 0.125 0  0 0.15 0  0.025 0.15 0  0.05 0.15 0  0.075 0.15 0  0.1 0.15 0  0.125 0.15 0  0.15 0.15 0  0.175 0.15 0  0.2 0.15 0  0.225 0.15 0  0.25 0.15 0  0.275 0.15 0  0.3 0.15 0  0.325 0.15 0  0.35 0.15 0  0.375 0.15 0  0.4 0.15 0  0.425 0.15 0  0.45 0.15 0  0.475 0.15 0  0.5 0.15 0  0.525 0.15 0  0.55 0.15 0  0.575 0.15 0  0.6 0.15 0  0.625 0.15 0  0.65 0.15 0  0.675 0.15 0  0.7 0.15 0  0.725 0.15 0  0.75 0.15 0  0.775 0.15 0  0.8 0.15 0  0.825 0.15 0  0.85 0.15 0  0.875 0.15 0  0.9 0.15 0  0.925 0.15 0  0.95 0.15 0  0.975 0.15 0  1 0.15 0  0 0.175 0  0.025 0.175 0  0.05 0.175 0  0.075 0.175 0  0.1 0.175 0  0.125 0.175 0  0.15 0.175 0  0.175 0.175 0  0.2 0.175 0  0.225 0.175 0  0.25 0.175 0  0.275 0.175 0  0.3 0.175 0  0.325 0.175 0  0.35 0.175 0  0.375 0.175 0  0.4 0.175 0  0.425 0.175 0  0.45 0.175 0  0.475 0.175 0  0.5 0.175 0  0.525 0.175 0  0.55 0.175 0  0.575 0.175 0  0.6 0.175 0  0.625 0.175 0  0.65 0.175 0  0.675 0.175 0  0.7 0.175 0  0.725 0.175 0  0.75 0.175 0  0.775 0.175 0  0.8 0.175 0  0.825 0.175 0  0.85 0.175 0  0.875 0.175 0  0.9 0.175 0  0.925 0.175 0  0.95 0.175 0  0.975 0.175 0  1 0.175 0  0 0.2 0  0.025 0.2 0  0.05 0.2 0  0.075 0.2 0  0.1 0.2 0  0.125 0.2 0  0.15 0.2 0  0.175 0.2 0  0.2 0.2 0  0.225 0.2 0  0.25 0.2 0  0.275 0.2 0  0.3 0.2 0  0.325 0.2 0  0.35 0.2 0  0.375 0.2 0  0.4 0.2 0  0.425 0.2 0  0.45 0.2 0  0.475 0.2 0  0.5 0.2 0  0.525 0.2 0  0.55 0.2 0  0.575 0.2 0  0.6 0.2 0  0.625 0.2 0  0.65 0.2 0  0.675 0.2 0  0.7 0.2 0  0.725 0.2 0  0.75 0.2 0  0.775 0.2 0  0.8 0.2 0  0.825 0.2 0  0.85 0.2 0  0.875 0.2 0  0.9 0.2 0  0.925 0.2 0  0.95 0.2 0  0.975 0.2 0  1 0.2 0  0 0.225 0  0.025 0.225 0  0.05 0.225 0  0.075 0.225 0  0.1 0.225 0  0.125 0.225 0  0.15 0.225 0  0.175 0.225 0  0.2 0.225 0  0.225 0.225 0  0.25 0.225 0  0.275 0.225 0  0.3 0.225 0  0.325 0.225 0  0.35 0.225 0  0.375 0.225 0  0.4 0.225 0  0.425 0.225 0  0.45 0.225 0  0.475 0.225 0  0.5 0.225 0  0.525 0.225 0  0.55 0.225 0  0.575 0.225 0  0.6 0.225 0  0.625 0.225 0  0.65 0.225 0  0.675 0.225 0  0.7 0.225 0  0.725 0.225 0  0.75 0.225 0  0.775 0.225 0  0.8 0.225 0  0.825 0.225 0  0.85 0.225 0  0.875 0.225 0  0.9 0.225 0  0.925 0.225 0  0.95 0.225 0  0.975 0.225 0  1 0.225 0  0 0.25 0  0.025 0.25 0  0.05 0.25 0  0.075 0.25 0  0.1 0.25 0  0.125 0.25 0  0.15 0.25 0  0.175 0.25 0  0.2 0.25 0  0.225 0.25 0  0.25 0.25 0  0.275 0.25 0  0.3 0.25 0  0.325 0.25 0  0.35 0.25 0  0.375 0.25 0  0.4 0.25 0  0.425 0.25 0  0.45 0.25 0  0.475 0.25 0  0.5 0.25 0  0.525 0.25 0  0.55 0.25 0  0.575 0.25 0  0.6 0.25 0  0.625 0.25 0  0.65 0.25 0  0.675 0.25 0  0.7 0.25 0  0.725 0.25 0  0.75 0.25 0  0.775 0.25 0  0.8 0.25 0  0.825 0.25 0  0.85 0.25 0  0.875 0.25 0  0.9 0.25 0  0.925 0.25 0  0.95 0.25 0  0.975 0.25 0  1 0.25 0  0 0.275 0  0.025 0.275 0  0.05 0.275 0  0.075 0.275 0  0.1 0.275 0  0.125 0.275 0  0.15 0.275 0  0.175 0.275 0  0.2 0.275 0  0.225 0.275 0  0.25 0.275 0  0.275 0.275 0  0.3 0.275 0  0.325 0.275 0  0.35 0.275 0  0.375 0.275 0  0.4 0.275 0  0.425 0.275 0  0.45 0.275 0  0.475 0.275 0  0.5 0.275 0  0.525 0.275 0  0.55 0.275 0  0.575 0.275 0  0.6 0.275 0  0.625 0.275 0  0.65 0.275 0  0.675 0.275 0  0.7 0.275 0  0.725 0.275 0  0.75 0.275 0  0.775 0.275 0  0.8 0.275 0  0.825 0.275 0  0.85 0.275 0  0.875 0.275 0  0.9 0.275 0  0.925 0.275 0  0.95 0.275 0  0.975 0.275 0  1 0.275 0  0 0.3 0  0.025 0.3 0  0.05 0.3 0  0.075 0.3 0  0.1 0.3 0  0.125 0.3 0  0.15 0.3 0  0.175 0.3 0  0.2 0.3 0  0.225 0.3 0  0.25 0.3 0  0.275 0.3 0  0.3 0.3 0  0.325 0.3 0  0.35 0.3 0  0.375 0.3 0  0.4 0.3 0  0.425 0.3 0  0.45 0.3 0  0.475 0.3 0  0.5 0.3 0  0.525 0.3 0  0.55 0.3 0  0.575 0.3 0  0.6 0.3 0  0.625 0.3 0  0.65 0.3 0  0.675 0.3 0  0.7 0.3 0  0.725 0.3 0  0.75 0.3 0  0.775 0.3 0  0.8 0.3 0  0.825 0.3 0  0.85 0.3 0  0.875 0.3 0  0.9 0.3 0  0.925 0.3 0  0.95 0.3 0  0.975 0.3 0  1 0.3 0  0 0.325 0  0.025 0.325 0  0.05 0.325 0  0.075 0.325 0  0.1 0.325 0  0.125 0.325 0  0.15 0.325 0  0.175 0.325 0  0.2 0.325 0  0.225 0.325 0  0.25 0.325 0  0.275 0.325 0  0.3 0.325 0  0.325 0.325 0  0.35 0.325 0  0.375 0.325 0  0.4 0.325 0  0.425 0.325 0  0.45 0.325 0  0.475 0.325 0  0.5 0.325 0  0.525 0.325 0  0.55 0.325 0  0.575 0.325 0  0.6 0.325 0  0.625 0.325 0  0.65 0.325 0  0.675 0.325 0  0.7 0.325 0  0.725 0.325 0  0.75 0.325 0  0.775 0.325 0  0.8 0.325 0  0.825 0.325 0  0.85 0.325 0  0.875 0.325 0  0.9 0.325 0  0.925 0.325 0  0.95 0.325 0  0.975 0.325 0  1 0.325 0  0 0.35 0  0.025 0.35 0  0.05 0.35 0  0.075 0.35 0  0.1 0.35 0  0.125 0.35 0  0.15 0.35 0  0.175 0.35 0  0.2 0.35 0  0.225 0.35 0  0.25 0.35 0  0.275 0.35 0  0.3 0.35 0  0.325 0.35 0  0.35 0.35 0  0.375 0.35 0  0.4 0.35 0  0.425 0.35 0  0.45 0.35 0  0.475 0.35 0  0.5 0.35 0  0.525 0.35 0  0.55 0.35 0  0.575 0.35 0  0.6 0.35 0  0.625 0.35 0  0.65 0.35 0  0.675 0.35 0  0.7 0.35 0  0.725 0.35 0  0.75 0.35 0  0.775 0.35 0  0.8 0.35 0  0.825 0.35 0  0.85 0.35 0  0.875 0.35 0  0.9 0.35 0  0.925 0.35 0  0.95 0.35 0  0.975 0.35 0  1 0.35 0  0 0.375 0  0.025 0.375 0  0.05 0.375 0  0.075 0.375 0  0.1 0.375 0  0.125 0.375 0  0.15 0.375 0  0.175 0.375 0  0.2 0.375 0  0.225 0.375 0  0.25 0.375 0  0.275 0.375 0  0.3 0.375 0  0.325 0.375 0  0.35 0.375 0  0.375 0.375 0  0.4 0.375 0  0.425 0.375 0  0.45 0.375 0  0.475 0.375 0  0.5 0.375 0  0.525 0.375 0  0.55 0.375 0  0.575 0.375 0  0.6 0.375 0  0.625 0.375 0  0.65 0.375 0  0.675 0.375 0  0.7 0.375 0  0.725 0.375 0  0.75 0.375 0  0.775 0.375 0  0.8 0.375 0  0.825 0.375 0  0.85 0.375 0  0.875 0.375 0  0.9 0.375 0  0.925 0.375 0  0.95 0.375 0  0.975 0.375 0  1 0.375 0  0 0.4 0  0.025 0.4 0  0.05 0.4 0  0.075 0.4 0  0.1 0.4 0  0.125 0.4 0  0.15 0.4 0  0.175 0.4 0  0.2 0.4 0  0.225 0.4 0  0.25 0.4 0  0.275 0.4 0  0.3 0.4 0  0.325 0.4 0  0.35 0.4 0  0.375 0.4 0  0.4 0.4 0  0.425 0.4 0  0.45 0.4 0  0.475 0.4 0  0.5 0.4 0  0.525 0.4 0  0.55 0.4 0  0.575 0.4 0  0.6 0.4 0  0.625 0.4 0  0.65 0.4 0  0.675 0.4 0  0.7 0.4 0  0.725 0.4 0  0.75 0.4 0  0.775 0.4 0  0.8 0.4 0  0.825 0.4 0  0.85 0.4 0  0.875 0.4 0  0.9 0.4 0  0.925 0.4 0  0.95 0.4 0  0.975 0.4 0  1 0.4 0  0 0.425 0  0.025 0.425 0  0.05 0.425 0  0.075 0.425 0  0.1 0.425 0  0.125 0.425 0  0.15 0.425 0  0.175 0.425 0  0.2 0.425 0  0.225 0.425 0  0.25 0.425 0  0.275 0.425 0  0.3 0.425 0  0.325 0.425 0  0.35 0.425 0  0.375 0.425 0  0.4 0.425 0  0.425 0.425 0  0.45 0.425 0  0.475 0.425 0  0.5 0.425 0  0.525 0.425 0  0.55 0.425 0  0.575 0.425 0  0.6 0.425 0  0.625 0.425 0  0.65 0.425 0  0.675 0.425 0  0.7 0.425 0  0.725 0.425 0  0.75 0.425 0  0.775 0.425 0  0.8 0.425 0  0.825 0.425 0  0.85 0.425 0  0.875 0.425 0  0.9 0.425 0  0.925 0.425 0  0.95 0.425 0  0.975 0.425 0  1 0.425 0  0 0.45 0  0.02
[...]
<PointData  Scalars="ControlVisualisation"> 
<DataArray  type="Float64"  Name="ControlVisualisation"  format="ascii">1.8592602367555694e-01  1.2946470569136606e-01  1.2962587619796306e-01  1.2996059820375486e-01  1.3045474873638238e-01  1.3106471772723796e-01  1.3173412835905568e-01  1.3241534228472635e-01  1.3307915825418534e-01  1.3371241734879671e-01  1.3431082592106008e-01  1.3487273301332206e-01  1.3539598428203362e-01  1.3587754027416726e-01  1.3631473193474383e-01  1.3670693718377719e-01  1.3705653850029617e-01  1.3736831180750075e-01  1.3764710716487524e-01  1.3789462521610343e-01  1.3810671389403670e-01  1.3827249187708202e-01  1.3837583679735496e-01  1.3839878955519042e-01  1.3832565182856119e-01  1.3814628331399942e-01  1.3785747296751771e-01  1.3746214290740366e-01  1.3696708498221669e-01  1.3638040660772732e-01  1.3570969224373441e-01  1.3496143239734135e-01  1.3414229204155495e-01  1.3326301431824977e-01  1.3234633315969743e-01  1.3143769914454861e-01  1.3061109751155142e-01  1.2995835927930757e-01  1.2955728615192405e-01  1.2942990919363198e-01  2.9915816652621963e-01  1.2946185911029520e-01  6.7785268952714348e-02  6.8212375548409240e-02  6.9038725690038535e-02  7.0285761388271278e-02  7.1883992700565086e-02  7.3719910576554748e-02  7.5680628741917708e-02  7.7679361658597554e-02  7.9659676541692107e-02  8.1586476566288271e-02  8.3434897963697671e-02  8.5183398859542028e-02  8.6812394179469857e-02  8.8307090012303524e-02  8.9661924514344807e-02  9.0883309560456468e-02  9.1987520553793459e-02  9.2992474753047755e-02  9.3905439840285210e-02  9.4711558003097843e-02  9.5368661567063459e-02  9.5811772450129104e-02  9.5966798620122001e-02  9.5768883246397180e-02  9.5178569054460330e-02  9.4189828968473763e-02  9.2827853482121164e-02  9.1139039482924372e-02  8.9178193363679784e-02  8.6997518745087446e-02  8.4640133416702359e-02  8.2140009495856536e-02  7.9530670551057975e-02  7.6865973865722026e-02  7.4247286717223568e-02  7.1842270345371745e-02  6.9869512661456606e-02  6.8520605008226473e-02  6.7789929347323294e-02  1.2942955483739357e-01  1.2958712315937224e-01  6.8172947212646759e-02  6.9047599565362855e-02  7.0484201508492994e-02  7.2669215584104760e-02  7.5521316271005196e-02  7.8876743490480558e-02  8.2560358130813055e-02  8.6425598871800791e-02  9.0365689350226486e-02  9.4305587770268429e-02  9.8187509807766971e-02  1.0195945084192988e-01  1.0557114835708226e-01  1.0897770623066472e-01  1.1214779784035794e-01  1.1507031395512389e-01  1.1775195661714019e-01  1.2020156011001686e-01  1.2240509769483898e-01  1.2430335189352980e-01  1.2578551728798715e-01  1.2670465813530832e-01  1.2690973817169779e-01  1.2628152201310008e-01  1.2476004436484832e-01  1.2235724330470135e-01  1.1915447951344021e-01  1.1528739018789799e-01  1.1092073927890445e-01  1.0621735144788325e-01  1.0130950488107905e-01  9.6284202123713331e-02  9.1195468274362895e-02  8.6111771582728341e-02  8.1180499779945847e-02  7.6679386903837521e-02  7.2978614607900755e-02  7.0367426845949668e-02  6.8525574064188771e-02  1.2955066104129120e-01  1.2978429436951050e-01  6.8861630752702754e-02  7.0440281981196715e-02  7.2612054863489497e-02  7.5727253716585119e-02  7.9666296939269743e-02  8.4209809576123354e-02  8.9148075293140297e-02  9.4317108673070207e-02  9.9603834948453929e-02  1.0493151502753069e-01  1.1023899635662110e-01  1.1546461629138598e-01  1.2053792589226971e-01  1.2537783338288133e-01  1.2989768585827977e-01  1.3401703062910364e-01  1.3767216006008334e-01  1.4081519514847610e-01  1.4340300758225041e-01  1.4538853438410740e-01  1.4672082794644487e-01  1.4734654822661961e-01  1.4720669078694595e-01  1.4623402484367470e-01  1.4435755845468606e-01  1.4151349852292611e-01  1.3766623209856099e-01  1.3284648028911303e-01  1.2719142892943411e-01  1.2094463452565921e-01  1.1439283267007137e-01  1.0777050108595095e-01  1.0119921351747968e-01  9.4708331284235517e-02  8.8351081618481306e-02  8.2368837896089980e-02  7.7212890384184552e-02  7.3352850854848065e-02  6.9963065540143657e-02  1.2993314388146665e-01  1.2989683215573189e-01  6.9740557412856591e-02  7.3347626542909897e-02  7.7536437298155930e-02  8.2737953641425180e-02  8.8692648392624224e-02  9.5138437511849208e-02  1.0186801240556340e-01  1.0872252561860628e-01  1.1558145462595712e-01  1.2236340302545606e-01  1.2902321277494200e-01  1.3551855198385368e-01  1.4173910448558280e-01  1.4745441639889376e-01  1.5235639051879324e-01  1.5619091732279552e-01  1.5887707233852316e-01  1.6052420927486641e-01  1.6136033084399978e-01  1.6164766606264980e-01  1.6162357127371568e-01  1.6145081939239206e-01  1.6117423210776055e-01  1.6071524468165713e-01  1.5991303406528198e-01  1.5856776479668849e-01  1.5644157689372756e-01  1.5323974563516710e-01  1.4865924960900176e-01  1.4255511661126127e-01  1.3511301684206950e-01  1.2682210337473418e-01  1.1823215265020222e-01  1.0969037519522447e-01  1.0130797041739797e-01  9.3162162399611739e-02  8.5594985093772946e-02  7.9282051126823821e-02  7.2573098997781083e-02  1.3060305910199091e-01  1.3052231640938336e-01  7.3198235748964460e-02  8.4176284583871649e-02  9.5884392799562679e-02  1.0791784306783148e-01  1.1947169844646512e-01  1.3009576302413950e-01  1.3953500450415166e-01  1.4772452025135638e-01  1.5490496985866023e-01  1.6163330026201114e-01  1.6843163965473515e-01  1.7524889054425763e-01  1.8137683304340110e-01  1.8596462534365829e-01  1.8856674211191154e-01  1.8936220801906772e-01  1.8907603583956925e-01  1.8864288645332991e-01  1.8876690461642967e-01  1.8968692345337276e-01  1.9126455480026244e-01  1.9320238389439126e-01  1.9518201091418982e-01  1.9691518612267783e-01  1.9819214958063475e-01  1.9892994355734475e-01  1.9914492129798214e-01  1.9879076290824502e-01  1.9750401680989940e-01  1.9446197634193138e-01  1.8863677048387106e-01  1.7940123372481923e-01  1.6693777554964309e-01  1.5205122520367081e-01  1.3601657606962839e-01  1.2024073836950117e-01  1.0551671688281775e-01  9.2148642958608751e-02  7.6905108405065453e-02  1.3121253949215428e-01  1.4424904901135799e-01  1.0105473629605578e-01  1.7605088571305522e-01  2.2504492123702749e-01  2.5841227123025201e-01  2.7695467993936179e-01  2.7110430685370451e-01  2.4887703019486254e-01  2.2241351785413110e-01  2.0046261885990518e-01  1.8509408757298432e-01  1.7568673534450704e-01  1.7189824932033279e-01  1.7266329159019894e-01  1.7492889540808554e-01  1.7490858489293087e-01  1.7068807390358509e-01  1.6360412964142515e-01  1.5725765860611021e-01  1.5509365891543780e-01  1.5848498904166924e-01  1.6640715317440660e-01  1.7633320855064477e-01  1.8543761553603047e-01  1.9158398098749480e-01  1.9397409061926826e-01  1.9336279624426828e-01  1.9172775834223002e-01  1.9149165656814401e-01  1.9469835066644875e-01  2.0263518819078014e-01  2.1604568250583564e-01  2.3514435937052067e-01  2.5750540032278568e-01  2.7335924867396277e-01  2.6650848981008368e-01  2.3351005859967114e-01  1.8995430332996463e-01  1.4531497265009025e-01  9.7419281979284580e-02  1.3497817873945264e-01  6.2595647925016740e-01  7.0788639195851344e-01  8.2263103092009315e-01  8.1378873616687242e-01  7.7375632220649393e-01  7.1127017328339459e-01  6.3737556060127609e-01  5.7547067336443880e-01  5.3497160175671499e-01  5.0523138039790638e-01  4.7513367676217838e-01  4.4206035679409988e-01  4.1217573487219761e-01  3.9392192392159281e-01  3.9008281332495526e-01  3.9609834855116949e-01  4.0474129859132552e-01  4.1230569106951975e-01  4.2050011799065806e-01  4.3298187115048692e-01  4.5116725019209891e-01  4.7287611404127733e-01  4.9360498667775582e-01  5.0883102659857016e-01  5.1596446464455803e-01  5.1512742026270719e-01  5.0861970910275323e-01  4.9952213844535326e-01  4.9030135415927872e-01  4.8227587142710360e-01  4.7594797111118947e-01  4.7106893947157408e-01  4.6530342151549803e-01  4.5273410332942204e-01  4.2630664171860494e-01  3.8527428255435908e-01  3.3951376828353674e-01  2.9952993558984159e-01  2.7565156441236877e-01  2.7270026237821765e-01  2.4090130329028661e-01  9.5044668627297968e-01  9.6368987014811491e-01  9.5483590404283658e-01  9.4333914731582091e-01  9.3109364118899995e-01  9.1793267613089990e-01  8.9980420980205578e-01  8.7190199577792271e-01  8.3360086108957010e-01  7.8988243807446989e-01  7.4703587620272593e-01  7.0954827516357333e-01  6.8041777116607760e-01  6.6185170478091526e-01  6.5455933454517512e-01  6.5591889689172023e-01  6.6078347104578716e-01  6.6607397516289157e-01  6.7240437607796144e-01  6.8069282468603298e-01  6.9017431306450827e-01  6.9938852543323304e-01  7.0709138529815085e-01  7.1242992106110692e-01  7.1496480366360504e-01  7.1461421863566144e-01  7.1160650997216168e-01  7.0656922322653604e-01  7.0062791045037720e-01  6.9525185843073745e-01  6.9177191419986928e-01  6.9086762926282763e-01  6.9278519587560150e-01  6.9813147341816029e-01  7.0703167196454875e-01  7.2144137312991041e-01  7.4089815988841656e-01  7.6338103922018485e-01  7.8968941416025029e-01  8.3807252946049005e-01  7.1348986483847987e-01  9.7212010309959462e-01  9.8233284236485308e-01  9.7620110215372569e-01  9.6755050980734825e-01  9.5704205363507844e-01  9.4703460345855928e-01  9.3906990684350133e-01  9.3026755391110272e-01  9.1758389769467341e-01  9.0045688643940003e-01  8.8033500927675412e-01  8.5941982107428294e-01  8.3970916206674440e-01  8.2303838352136061e-01  8.1076019438529467e-01  8.0276376014202633e-01  7.9784993135390614e-01  7.9558895765304716e-01  7.9600863799796728e-01  7.9800191923090824e-01  8.0025136919758832e-01  8.0212386509193767e-01  8.0295658262352299e-01  8.0208358364571253e-01  7.9913899548393363e-01  7.9412165857166916e-01  7.8765727596971591e-01  7.8113815005966092e-01  7.7631285125082328e-01  7.7471140353244183e-01  7.7730624512197399e-01  7.8420988132115077e-01  7.9468575449091761e-01  8.0809113317114523e-01  8.2506348898899740e-01  8.4638789017721783e-01  8.6827045501638023e-01  8.8649321097781120e-01  9.0285711762585996e-01  9.2182990616708227e-01  8.8211454122307431e-01  9.7552377610266616e-01  9.8586524594280944e-01  9.8137496872341146e-01  9.7452648911338913e-01  9.6547780246251369e-01  9.5572527635627635e-01  9.4842824532617609e-01  9.4390090373380542e-01  9.3849010323487358e-01  9.3005888043478069e-01  9.1866604095040050e-01  9.0537784277968947e-01  8.9164448241004102e-01  8.7891766956424955e-01  8.6835239453005530e-01  8.6040464481785717e-01  8.5454165960661388e-01  8.4944521579137433e-01  8.4358297873337629e-01  8.3660076129516725e-01  8.3031009945053957e-01  8.2636906704211799e-01  8.2387666142923299e-01  8.2076305770197222e-01  8.1579555203183773e-01  8.0878407701785382e-01  8.0039918056341286e-01  7.9205966586156806e-01  7.8550697571526917e-01  7.8243267916315151e-01  7.8431472653639978e-01  7.9172954349321689e-01  8.0336692703467882e-01  8.1749661106960436e-01  8.3619692281000191e-01  8.6109078798523264e-01  8.8545169637091214e-01  9.0352281988531635e-01  9.1810093399173009e-01  9.3463471927761488e-01  9.0584988590774207e-01  9.6872958407842524e-01  9.8333383829304755e-01  9.7918677872335036e-01  9.7298398638699080e-01  9.6486403482999561e-01  9.5596258955533842e-01  9.4900657858205484e-01  9.4556178333049612e-01  9.4292328358860700e-01  9.3809014213139519e-01  9.3025524017675887e-01  9.1989476845725160e-01  9.0811800466859904e-01  8.9622309105160669e-01  8.8524572579200578e-01  8.7582679563274779e-01  8.6812232710512904e-01  8.6098252973454115e-01  8.5202307373944774e-01  8.4063272578114012e-01  8.2960438246792512e-01  8.2141404071566171e-01  8.1485486437594945e-01  8.0726161605614855e-01  7.9737230094789224e-01  7.8515102242551438e-01  7.7101954829858677e-01  7.5575218980178582e-01  7.4055193485669557e-01  7.2724350790935588e-01  7.1834497057659019e-01  7.1668262674962624e-01  7.2459514433018457e-01  7.4173949903174718e-01  7.6563904832480401e-01  7.9901685092598118e-01  8.3824477263038599e-01  8.7123917310707888e-01  8.9584111066744621e-01  9.1800248108850890e-01  8.9190270081384770e-01  9.3675107800034241e-01  9.6954979424897414e-01  9.6633625234244180e-01  9.6161855135130914e-01  9.5498822266083017e-01  9.4781109718883894e-01  9.4240857377230902e-01  9.3985590512830519e-01  9.3814233222907273e-01  9.3457907348274782e-01  9.2793346846767755e-01  9.1816695839127627e-01  9.0605486445852412e-01  8.9285852388438525e-01  8.7976114214385270e-01  8.6746602097842263e-01  8.5572829728921951e-01  8.4251885797991577e-01  8.2560428157710231e-01  8.0556454974914393e-01  7.8586461929265117e-01  7.6794239268157960e-01  7.4956491131556158e-01  7.2953050745395354e-01  7.0759347604289136e-01  6.8257952450791959e-01  6.5468521470962582e-01  6.2667833848623467e-01  6.0180531502982437e-01  5.8201789270997217e-01  5.6783968839737287e-01  5.5898850918511955e-01  5.5462117941236633e-01  5.5153761409033497e-01  5.4425189451443567e-01  5.4118140186643005e-01  5.7565122329088481e-01  6.4729634989763951e-01  7.3887001055079604e-01  8.0549647206192487e-01  7.7760709603614864e-01  4.2846811844573923e-01  8.8171772747237986e-01  9.1685641724602285e-01  9.2618383900732115e-01  9.2748686510907552e-01  9.2591682271163833e-01  9.2434285295942487e-01  9.2350772284403493e-01  9.2213257646374092e-01  9.1835596152846044e-01  9.1094263104955597e-01  8.9948497550536044e-01  8.8442655601542475e-01  8.6699185807335066e-01  8.4865405100873936e-01  8.2994408801333164e-01  8.0930670801486393e-01  7.8489525097110069e-01  7.5437759204976429e-01  7.1618916129376320e-01  6.7984747867941575e-01  6.5535259432674275e-01  6.4336726976446290e-01  6.2757394283702883e-01  5.8894717638323613e-01  5.2840028618869539e-01  4.6311464428136356e-01  4.0996896008372125e-01  3.7580711693191160e-01  3.5816345147866535e-01  3.5076746383220803e-01  3.4774806004654096e-01  3.4492449289041188e-01  3.3983639678908584e-01  3.3085952949503644e-01  3.1375057819777946e-01  2.8623977099056364e-01  2.5820705322904103e-01  2.2933002209061246e-01  2.0132819721694575e-01  3.1381562269115870e-01  1.4205854100876894e-01  1.6672226957097094e-01  3.9600591178888050e-01  7.4176248012434354e-01  8.2778593298298486e-01  8.5962532439823958e-01  8.7379327510558480e-01  8.8010034374340362e-01  8.8095782258742561e-01  8.7639056623517708e-01  8.6584120175166412e-01  8.4892936565148414e-01  8.2600080714111712e-01  7.9872343986488292e-01  7.7051050413216304e-01  7.4620107329531360e-01  7.2667964458648826e-01  6.9553122480050067e-01  6.3642995308688333e-01  5.6808407767351465e-01  5.1683691290065525e-01  4.8700822209566996e-01  4.6339647433684805e-01  4.2949948819237432e-01  3.8431730034758865e-01  3.4196586682991853e-01  3.1343628501684467e-01  2.9468541074684446e-01  2.7753149860275383e-01  2.5895424729722744e-01  2.3925957332234077e-01  2.1941777877303084e-01  2.0015119150749283e-01  1.8181781802351685e-01  1.6462084764013982e-01  1.4873555325178431e-01  1.3388473677595361e-01  1.1905008253971400e-01  1.0320295790458162e-01  8.5041643930642979e-02  1.3909425597988120e-01  1.3376321213576359e-01  9.2392921557894692e-02  1.7995567787827493e-01  1.9640866364305321e-01  3.7271619930385219e-01  5.5595068116081137e-01  6.6790987281264902e-01  7.2655507503805405e-01  7.5125939636510208e-01  7.5409532116743250e-01  7.4027892364108772e-01  7.1213024624950183e-01  6.7263739825164903e-01  6.2960403051509239e-01  5.9517381997036722e-01  5.7071832134346367e-01  5.3830456141251681e-01  4.8454004417337931e-01  4.2214421749220082e-01  3.7879635567405312e-01  3.7214861559551216e-01  3.9596388469560750e-01  4.2197549165466991e-01  4.2046659890219318e-01  3.8562724304830043e-01  3.3577410393167700e-01  2.8834700923257639e-01  2.4869363273677159e-01  2.1648914767986976e-01  1.9042083514862834e-01  1.6928318010285781e-01  1.5196735861708002e-01  1.3744582626750695e-01  1.2491058922996814e-01  1.1384252329657994e-01  1.0390064717797250e-01  9.4755823694309418e-02  8.6205450095223013e-02  7.8696286674636337e-02  7.2092099660032313e-02  1.3022021134095069e-01  1.3401409556989408e-01  8.4703261648512454e-02  1.1661843827550991e-01  1.6723246114110693e-01  1.7486243116259700e-01  1.5594258018303789e-01  2.7991186732868106e-01  3.7582798437230946e-01  4.0804451122284546e-01  4.1603779018052200e-01  4.0245839597585309e-01  3.6793060367946567e-01  3.2359766198461726e-01  2.8541621644417642e-01  2.6607575488847118e-01  2.6694012236336440e-01  2.7472920342100149e-01  2.7930791793950510e-01  2.9131141703347557e-01  3.3102697655343910e-01  4.0250061367783024e-01  4.8042185416444205e-01  5.2050057896790491e-01  4.9170030221886774e-01  4.0895314298160168e-01  3.1875730688658699e-01  2.5050778047525446e-01  2.0593320398634674e-01  1.7702373138536090e-01  1.5699120249010248e-01  1.4183504894155488e-01  1.2940751604180603e-01  1.1863276173802313e-01  1.0899175292159324e-01  1.0021810865776873e-01  9.2159236718798832e-02  8.4784546924793230e-02  7.8355454742599917e-02  7.3519871912652177e-02  6.9870093405809339e-02  1.2942336576733915e-01  1.3410306630272673e-01  8.2796984208303642e-02  1.0190290487830024e-01  1.2389706244761402e-01  1.5437367560876233e-01  1.7451099759454392e-01  1.0679861090709347e-01  5.7141123903768389e-02  8.7159461878300884e-02  9.3625021227520949e-02  6.7136730981505466e-02  2.9340205544573988e-02  5.3930569221036324e-03  1.3418265172099932e-02  5.5890072444995102e-02  1.1541761192847565e-01  1.7298476405085567e-01  2.2744246199290050e-01  2.9413815218485800e-01  3.8498570376633318e-01  4.8831102171514329e-01  5.6521333377845551e-01  5.6931036529420886e-01  4.8828208558773317e-01  3.6702853369129496e-01  2.6531125985533816e-01  2.0529713820769327e-01  1.7512379078738130e-01  1.5790744273596019e-01  1.4470168537263758e-01  1.3276939683652450e-01  1.2183708053131881e-01  1.1201496891493241e-01  1.0320297303947819e-01  9.5215194916097437e-02  8.7955504451111929e-02  8.1511858922382913e-02  7.6196744468886760e-02  7.2417128992881941e-02  6.9517241754097889e-02  1.2924883053863800e-01  1.3417633004707427e-01  8.2330207831252902e-02  9.7381106783969135e-02  1.1008967754933327e-01  1.2604591262401552e-01  1.4506571126194001e-01  1.6381238076627028e-01  1.6987301852708253e-01  1.4225952597089173e-01  9.1154332735139898e-02  5.2275741299455177e-02  3.7457368161853771e-02  4.7153526326051493e-02  7.6534934190947368e-02  1.1509377078566944e-01  1.5455098736030434e-01  1.9529452197012945e-01  2.4736729397305798e-01  3.2226767835997233e-01  4.1761744772867998e-01  5.0781271646417492e-01  5.5113760938220879e-01  5.1753244421334077e-01  4.2051631156506558e-01  3.1021400578158836e-01  2.2814208717477460e-01  1.8270073118037830e-01  1.6217352360889259e-01  1.5214392246434691e-01  1.4289542365795840e-01  1.3193883397725481e-01  1.2092384893991427e-01  1.1112230944098067e-01  1.0256496304090923e-01  9.4912703610256374e-02  8.7999053338305641e-02  8.1933366707668764e-02  7.7011663646036899e-02  7.3499126757123931e-02  7.0329620613632890e-02  1.2953860885843688e-01  1.3411875205710705e-01  8.1810551412723143e-02  9.4757046870967421e-02  1.0345925169034551e-01  1.1339587299986580e-01  1.2510025750493206e-01  1.3848884298753092e-01  1.5277690427402474e-01  1.6650228663137107e-01  1.7813856160892119e-01  1.8720112741498163e-01  1.9424643512899761e-01  1.9985811272535411e-01  2.0397749870631759e-01  2.0638509244365211e-01  2.0914579611383821e-01  2.1954020816628031e-01  2.4861575171167391e-01  3.0281799330245235e-01  3.7350355881194924e-01  4.3379849377504043e-01  4.5153064276864513e-01  4.1520750664673933e-01  3.4615353390441900e-01  2.7724907937819127e-01  2.2390394684647036e-01  1.8355353846912775e-01  1.5601122415445678e-01  1.4488657123063450e-01  1.4118832057462441e-01  1.3390438773658367e-01  1.2379064685924464e-01  1.1415721217736172e-01  1.0573081580581184e-01  9.8148196182958419e-02  9.1191502096041127e-02  8.5014700206943766e-02  7.9966791350395208e-02  7.6263919085973714e-02  7.2086315442219107e-02  1.3016619390448317e-01  1.3395909557593055e-01  8.1157733884699185e-02  9.2682884815601649e-02  9.9178394748881724e-02  1.0597277891609132e-01  1.1373689399341406e-01  1.2280700278940469e-01  1.3313322599791494e-01  1.443879038