<?xml version="1.0"?>
<VTKFile type="UnstructuredGrid"  version="0.1"  >
<UnstructuredGrid>
<Piece  NumberOfPoints="1681" NumberOfCells="3200">
<Points>
<DataArray  type="Float64"  NumberOfComponents="3"  format="ascii">0 0 0  0.025 0 0  0.05 0 0  0.075 0 0  0.1 0 0  0.125 0 0  0.15 0 0  0.175 0 0  0.2 0 0  0.225 0 0  0.25 0 0  0.275 0 0  0.3 0 0  0.325 0 0  0.35 0 0  0.375 0 0  0.4 0 0  0.425 0 0  0.45 0 0  0.475 0 0  0.5 0 0  0.525 0 0  0.55 0 0  0.575 0 0  0.6 0 0  0.625 0 0  0.65 0 0  0.675 0 0  0.7 0 0  0.725 0 0  0.75 0 0  0.775 0 0  0.8 0 0  0.825 0 0  0.85 0 0  0.875 0 0  0.9 0 0  0.925 0 0  0.95 0 0  0.975 0 0  1 0 0  0 0.025 0  0.025 0.025 0  0.05 0.025 0  0.075 0.025 0  0.1 0.025 0  0.125 0.025 0  0.15 0.025 0  0.175 0.025 0  0.2 0.025 0  0.225 0.025 0  0.25 0.025 0  0.275 0.025 0  0.3 0.025 0  0.325 0.025 0  0.35 0.025 0  0.375 0.025 0  0.4 0.025 0  0.425 0.025 0  0.45 0.025 0  0.475 0.025 0  0.5 0.025 0  0.525 0.025 0  0.55 0.025 0  0.575 0.025 0  0.6 0.025 0  0.625 0.025 0  0.65 0.025 0  0.675 0.025 0  0.7 0.025 0  0.725 0.025 0  0.75 0.025 0  0.775 0.025 0  0.8 0.025 0  0.825 0.025 0  0.85 0.025 0  0.875 0.025 0  0.9 0.025 0  0.925 0.025 0  0.95 0.025 0  0.975 0.025 0  1 0.025 0  0 0.05 0  0.025 0.05 0  0.05 0.05 0  0.075 0.05 0  0.1 0.05 0  0.125 0.05 0  0.15 0.05 0  0.175 0.05 0  0.2 0.05 0  0.225 0.05 0  0.25 0.05 0  0.275 0.05 0  0.3 0.05 0  0.325 0.05 0  0.35 0.05 0  0.375 0.05 0  0.4 0.05 0  0.425 0.05 0  0.45 0.05 0  0.475 0.05 0  0.5 0.05 0  0.525 0.05 0  0.55 0.05 0  0.575 0.05 0  0.6 0.05 0  0.625 0.05 0  0.65 0.05 0  0.675 0.05 0  0.7 0.05 0  0.725 0.05 0  0.75 0.05 0  0.775 0.05 0  0.8 0.05 0  0.825 0.05 0  0.85 0.05 0  0.875 0.05 0  0.9 0.05 0  0.925 0.05 0  0.95 0.05 0  0.975 0.05 0  1 0.05 0  0 0.075 0  0.025 0.075 0  0.05 0.075 0  0.075 0.075 0  0.1 0.075 0  0.125 0.075 0  0.15 0.075 0  0.175 0.075 0  0.2 0.075 0  0.225 0.075 0  0.25 0.075 0  0.275 0.075 0  0.3 0.075 0  0.325 0.075 0  0.35 0.075 0  0.375 0.075 0  0.4 0.075 0  0.425 0.075 0  0.45 0.075 0  0.475 0.075 0  0.5 0.075 0  0.525 0.075 0  0.55 0.075 0  0.575 0.075 0  0.6 0.075 0  0.625 0.075 0  0.65 0.075 0  0.675 0.075 0  0.7 0.075 0  0.725 0.075 0  0.75 0.075 0  0.775 0.075 0  0.8 0.075 0  0.825 0.075 0  0.85 0.075 0  0.875 0.075 0  0.9 0.075 0  0.925 0.075 0  0.95 0.075 0  0.975 0.075 0  1 0.075 0  0 0.1 0  0.025 0.1 0  0.05 0.1 0  0.075 0.1 0  0.1 0.1 0  0.125 0.1 0  0.15 0.1 0  0.175 0.1 0  0.2 0.1 0  0.225 0.1 0  0.25 0.1 0  0.275 0.1 0  0.3 0.1 0  0.325 0.1 0  0.35 0.1 0  0.375 0.1 0  0.4 0.1 0  0.425 0.1 0  0.45 0.1 0  0.475 0.1 0  0.5 0.1 0  0.525 0.1 0  0.55 0.1 0  0.575 0.1 0  0.6 0.1 0  0.625 0.1 0  0.65 0.1 0  0.675 0.1 0  0.7 0.1 0  0.725 0.1 0  0.75 0.1 0  0.775 0.1 0  0.8 0.1 0  0.825 0.1 0  0.85 0.1 0  0.875 0.1 0  0.9 0.1 0  0.925 0.1 0  0.95 0.1 0  0.975 0.1 0  1 0.1 0  0 0.125 0  0.025 0.125 0  0.05 0.125 0  0.075 0.125 0  0.1 0.125 0  0.125 0.125 0  0.15 0.125 0  0.175 0.125 0  0.2 0.125 0  0.225 0.125 0  0.25 0.125 0  0.275 0.125 0  0.3 0.125 0  0.325 0.125 0  0.35 0.125 0  0.375 0.125 0  0.4 0.125 0  0.425 0.125 0  0.45 0.125 0  0.475 0.125 0  0.5 0.125 0  0.525 0.125 0  0.55 0.125 0  0.575 0.125 0  0.6 0.125 0  0.625 0.125 0  0.65 0.125 0  0.675 0.125 0  0.7 0.125 0  0.725 0.125 0  0.75 0.125 0  0.775 0.125 0  0.8 0.125 0  0.825 0.125 0  0.85 0.125 0  0.875 0.125 0  0.9 0.125 0  0.925 0.125 0  0.95 0.125 0  0.975 0.125 0  1 0.125 0  0 0.15 0  0.025 0.15 0  0.05 0.15 0  0.075 0.15 0  0.1 0.15 0  0.125 0.15 0  0.15 0.15 0  0.175 0.15 0  0.2 0.15 0  0.225 0.15 0  0.25 0.15 0  0.275 0.15 0  0.3 0.15 0  0.325 0.15 0  0.35 0.15 0  0.375 0.15 0  0.4 0.15 0  0.425 0.15 0  0.45 0.15 0  0.475 0.15 0  0.5 0.15 0  0.525 0.15 0  0.55 0.15 0  0.575 0.15 0  0.6 0.15 0  0.625 0.15 0  0.65 0.15 0  0.675 0.15 0  0.7 0.15 0  0.725 0.15 0  0.75 0.15 0  0.775 0.15 0  0.8 0.15 0  0.825 0.15 0  0.85 0.15 0  0.875 0.15 0  0.9 0.15 0  0.925 0.15 0  0.95 0.15 0  0.975 0.15 0  1 0.15 0  0 0.175 0  0.025 0.175 0  0.05 0.175 0  0.075 0.175 0  0.1 0.175 0  0.125 0.175 0  0.15 0.175 0  0.175 0.175 0  0.2 0.175 0  0.225 0.175 0  0.25 0.175 0  0.275 0.175 0  0.3 0.175 0  0.325 0.175 0  0.35 0.175 0  0.375 0.175 0  0.4 0.175 0  0.425 0.175 0  0.45 0.175 0  0.475 0.175 0  0.5 0.175 0  0.525 0.175 0  0.55 0.175 0  0.575 0.175 0  0.6 0.175 0  0.625 0.175 0  0.65 0.175 0  0.675 0.175 0  0.7 0.175 0  0.725 0.175 0  0.75 0.175 0  0.775 0.175 0  0.8 0.175 0  0.825 0.175 0  0.85 0.175 0  0.875 0.175 0  0.9 0.175 0  0.925 0.175 0  0.95 0.175 0  0.975 0.175 0  1 0.175 0  0 0.2 0  0.025 0.2 0  0.05 0.2 0  0.075 0.2 0  0.1 0.2 0  0.125 0.2 0  0.15 0.2 0  0.175 0.2 0  0.2 0.2 0  0.225 0.2 0  0.25 0.2 0  0.275 0.2 0  0.3 0.2 0  0.325 0.2 0  0.35 0.2 0  0.375 0.2 0  0.4 0.2 0  0.425 0.2 0  0.45 0.2 0  0.475 0.2 0  0.5 0.2 0  0.525 0.2 0  0.55 0.2 0  0.575 0.2 0  0.6 0.2 0  0.625 0.2 0  0.65 0.2 0  0.675 0.2 0  0.7 0.2 0  0.725 0.2 0  0.75 0.2 0  0.775 0.2 0  0.8 0.2 0  0.825 0.2 0  0.85 0.2 0  0.875 0.2 0  0.9 0.2 0  0.925 0.2 0  0.95 0.2 0  0.975 0.2 0  1 0.2 0  0 0.225 0  0.025 0.225 0  0.05 0.225 0  0.075 0.225 0  0.1 0.225 0  0.125 0.225 0  0.15 0.225 0  0.175 0.225 0  0.2 0.225 0  0.225 0.225 0  0.25 0.225 0  0.275 0.225 0  0.3 0.225 0  0.325 0.225 0  0.35 0.225 0  0.375 0.225 0  0.4 0.225 0  0.425 0.225 0  0.45 0.225 0  0.475 0.225 0  0.5 0.225 0  0.525 0.225 0  0.55 0.225 0  0.575 0.225 0  0.6 0.225 0  0.625 0.225 0  0.65 0.225 0  0.675 0.225 0  0.7 0.225 0  0.725 0.225 0  0.75 0.225 0  0.775 0.225 0  0.8 0.225 0  0.825 0.225 0  0.85 0.225 0  0.875 0.225 0  0.9 0.225 0  0.925 0.225 0  0.95 0.225 0  0.975 0.225 0  1 0.225 0  0 0.25 0  0.025 0.25 0  0.05 0.25 0  0.075 0.25 0  0.1 0.25 0  0.125 0.25 0  0.15 0.25 0  0.175 0.25 0  0.2 0.25 0  0.225 0.25 0  0.25 0.25 0  0.275 0.25 0  0.3 0.25 0  0.325 0.25 0  0.35 0.25 0  0.375 0.25 0  0.4 0.25 0  0.425 0.25 0  0.45 0.25 0  0.475 0.25 0  0.5 0.25 0  0.525 0.25 0  0.55 0.25 0  0.575 0.25 0  0.6 0.25 0  0.625 0.25 0  0.65 0.25 0  0.675 0.25 0  0.7 0.25 0  0.725 0.25 0  0.75 0.25 0  0.775 0.25 0  0.8 0.25 0  0.825 0.25 0  0.85 0.25 0  0.875 0.25 0  0.9 0.25 0  0.925 0.25 0  0.95 0.25 0  0.975 0.25 0  1 0.25 0  0 0.275 0  0.025 0.275 0  0.05 0.275 0  0.075 0.275 0  0.1 0.275 0  0.125 0.275 0  0.15 0.275 0  0.175 0.275 0  0.2 0.275 0  0.225 0.275 0  0.25 0.275 0  0.275 0.275 0  0.3 0.275 0  0.325 0.275 0  0.35 0.275 0  0.375 0.275 0  0.4 0.275 0  0.425 0.275 0  0.45 0.275 0  0.475 0.275 0  0.5 0.275 0  0.525 0.275 0  0.55 0.275 0  0.575 0.275 0  0.6 0.275 0  0.625 0.275 0  0.65 0.275 0  0.675 0.275 0  0.7 0.275 0  0.725 0.275 0  0.75 0.275 0  0.775 0.275 0  0.8 0.275 0  0.825 0.275 0  0.85 0.275 0  0.875 0.275 0  0.9 0.275 0  0.925 0.275 0  0.95 0.275 0  0.975 0.275 0  1 0.275 0  0 0.3 0  0.025 0.3 0  0.05 0.3 0  0.075 0.3 0  0.1 0.3 0  0.125 0.3 0  0.15 0.3 0  0.175 0.3 0  0.2 0.3 0  0.225 0.3 0  0.25 0.3 0  0.275 0.3 0  0.3 0.3 0  0.325 0.3 0  0.35 0.3 0  0.375 0.3 0  0.4 0.3 0  0.425 0.3 0  0.45 0.3 0  0.475 0.3 0  0.5 0.3 0  0.525 0.3 0  0.55 0.3 0  0.575 0.3 0  0.6 0.3 0  0.625 0.3 0  0.65 0.3 0  0.675 0.3 0  0.7 0.3 0  0.725 0.3 0  0.75 0.3 0  0.775 0.3 0  0.8 0.3 0  0.825 0.3 0  0.85 0.3 0  0.875 0.3 0  0.9 0.3 0  0.925 0.3 0  0.95 0.3 0  0.975 0.3 0  1 0.3 0  0 0.325 0  0.025 0.325 0  0.05 0.325 0  0.075 0.325 0  0.1 0.325 0  0.125 0.325 0  0.15 0.325 0  0.175 0.325 0  0.2 0.325 0  0.225 0.325 0  0.25 0.325 0  0.275 0.325 0  0.3 0.325 0  0.325 0.325 0  0.35 0.325 0  0.375 0.325 0  0.4 0.325 0  0.425 0.325 0  0.45 0.325 0  0.475 0.325 0  0.5 0.325 0  0.525 0.325 0  0.55 0.325 0  0.575 0.325 0  0.6 0.325 0  0.625 0.325 0  0.65 0.325 0  0.675 0.325 0  0.7 0.325 0  0.725 0.325 0  0.75 0.325 0  0.775 0.325 0  0.8 0.325 0  0.825 0.325 0  0.85 0.325 0  0.875 0.325 0  0.9 0.325 0  0.925 0.325 0  0.95 0.325 0  0.975 0.325 0  1 0.325 0  0 0.35 0  0.025 0.35 0  0.05 0.35 0  0.075 0.35 0  0.1 0.35 0  0.125 0.35 0  0.15 0.35 0  0.175 0.35 0  0.2 0.35 0  0.225 0.35 0  0.25 0.35 0  0.275 0.35 0  0.3 0.35 0  0.325 0.35 0  0.35 0.35 0  0.375 0.35 0  0.4 0.35 0  0.425 0.35 0  0.45 0.35 0  0.475 0.35 0  0.5 0.35 0  0.525 0.35 0  0.55 0.35 0  0.575 0.35 0  0.6 0.35 0  0.625 0.35 0  0.65 0.35 0  0.675 0.35 0  0.7 0.35 0  0.725 0.35 0  0.75 0.35 0  0.775 0.35 0  0.8 0.35 0  0.825 0.35 0  0.85 0.35 0  0.875 0.35 0  0.9 0.35 0  0.925 0.35 0  0.95 0.35 0  0.975 0.35 0  1 0.35 0  0 0.375 0  0.025 0.375 0  0.05 0.375 0  0.075 0.375 0  0.1 0.375 0  0.125 0.375 0  0.15 0.375 0  0.175 0.375 0  0.2 0.375 0  0.225 0.375 0  0.25 0.375 0  0.275 0.375 0  0.3 0.375 0  0.325 0.375 0  0.35 0.375 0  0.375 0.375 0  0.4 0.375 0  0.425 0.375 0  0.45 0.375 0  0.475 0.375 0  0.5 0.375 0  0.525 0.375 0  0.55 0.375 0  0.575 0.375 0  0.6 0.375 0  0.625 0.375 0  0.65 0.375 0  0.675 0.375 0  0.7 0.375 0  0.725 0.375 0  0.75 0.375 0  0.775 0.375 0  0.8 0.375 0  0.825 0.375 0  0.85 0.375 0  0.875 0.375 0  0.9 0.375 0  0.925 0.375 0  0.95 0.375 0  0.975 0.375 0  1 0.375 0  0 0.4 0  0.025 0.4 0  0.05 0.4 0  0.075 0.4 0  0.1 0.4 0  0.125 0.4 0  0.15 0.4 0  0.175 0.4 0  0.2 0.4 0  0.225 0.4 0  0.25 0.4 0  0.275 0.4 0  0.3 0.4 0  0.325 0.4 0  0.35 0.4 0  0.375 0.4 0  0.4 0.4 0  0.425 0.4 0  0.45 0.4 0  0.475 0.4 0  0.5 0.4 0  0.525 0.4 0  0.55 0.4 0  0.575 0.4 0  0.6 0.4 0  0.625 0.4 0  0.65 0.4 0  0.675 0.4 0  0.7 0.4 0  0.725 0.4 0  0.75 0.4 0  0.775 0.4 0  0.8 0.4 0  0.825 0.4 0  0.85 0.4 0  0.875 0.4 0  0.9 0.4 0  0.925 0.4 0  0.95 0.4 0  0.975 0.4 0  1 0.4 0  0 0.425 0  0.025 0.425 0  0.05 0.425 0  0.075 0.425 0  0.1 0.425 0  0.125 0.425 0  0.15 0.425 0  0.175 0.425 0  0.2 0.425 0  0.225 0.425 0  0.25 0.425 0  0.275 0.425 0  0.3 0.425 0  0.325 0.425 0  0.35 0.425 0  0.375 0.425 0  0.4 0.425 0  0.425 0.425 0  0.45 0.425 0  0.475 0.425 0  0.5 0.425 0  0.525 0.425 0  0.55 0.425 0  0.575 0.425 0  0.6 0.425 0  0.625 0.425 0  0.65 0.425 0  0.675 0.425 0  0.7 0.425 0  0.725 0.425 0  0.75 0.425 0  0.775 0.425 0  0.8 0.425 0  0.825 0.425 0  0.85 0.425 0  0.875 0.425 0  0.9 0.425 0  0.925 0.425 0  0.95 0.425 0  0.975 0.425 0  1 0.425 0  0 0.45 0  0.02
[...]
<PointData  Scalars="ControlVisualisation"> 
<DataArray  type="Float64"  Name="ControlVisualisation"  format="ascii">1.6489986676696045e-01  1.1772758002022236e-01  1.1806324367562626e-01  1.1854254482534078e-01  1.1910900023740710e-01  1.1978815919249763e-01  1.2049850413818357e-01  1.2123420891391265e-01  1.2196969649836500e-01  1.2264761177843846e-01  1.2328105928216315e-01  1.2380802011844295e-01  1.2413927870979712e-01  1.2463959558609493e-01  1.2522011935137392e-01  1.2554595595557266e-01  1.2590129828967159e-01  1.2619059729374119e-01  1.2638341036888578e-01  1.2663018639244727e-01  1.2690466902435601e-01  1.2707617047965050e-01  1.2711470619536103e-01  1.2727231684527066e-01  1.2731552038638899e-01  1.2716626080605092e-01  1.2687165130128369e-01  1.2661719265694282e-01  1.2623430104919661e-01  1.2570055726619062e-01  1.2496451046310879e-01  1.2424117965575379e-01  1.2350399990262215e-01  1.2257619956892547e-01  1.2154402721014781e-01  1.2062376325281748e-01  1.1975529211751093e-01  1.1889094664859219e-01  1.1823861256886610e-01  1.1775232522916432e-01  2.6671049329731950e-01  1.1757846195348072e-01  6.2544609200343243e-02  6.2878530837684174e-02  6.3594479915432656e-02  6.4719828289586182e-02  6.6168418140493845e-02  6.7871160856065926e-02  6.9801874487955481e-02  7.1714801201156350e-02  7.3516782147927340e-02  7.5434107215747878e-02  7.7161533116080858e-02  7.8320056938686045e-02  7.9719483024721843e-02  8.0962242435998658e-02  8.2032241635413103e-02  8.2807986618072024e-02  8.3572245045629434e-02  8.4037731144858935e-02  8.4676076824569679e-02  8.5270490576097410e-02  8.5856403420677477e-02  8.6012270670564731e-02  8.6314164198407733e-02  8.6220415407479031e-02  8.5553298063080624e-02  8.4737689004984476e-02  8.3638662984245091e-02  8.2585802235124253e-02  8.1101249628389854e-02  7.9096992054802556e-02  7.7029448476980636e-02  7.5037613989239665e-02  7.2832528886899187e-02  7.0450350056386432e-02  6.8228995675730000e-02  6.6264045827238202e-02  6.4507309618623374e-02  6.3258075926178006e-02  6.2575473811387367e-02  1.1774497398254842e-01  1.1749812362607945e-01  6.2956954654257477e-02  6.3688773008310551e-02  6.4835788100989458e-02  6.6736108969474323e-02  6.9228214123924506e-02  7.2333415119368291e-02  7.6012472710756229e-02  7.9606581748572158e-02  8.3149972304281533e-02  8.6790511844330731e-02  9.0123506626444055e-02  9.2288562377982816e-02  9.4827714750139971e-02  9.6834643640251697e-02  9.8283225546595715e-02  9.9315037019612709e-02  1.0012538655993841e-01  1.0050514744933056e-01  1.0102740430381341e-01  1.0165530663551581e-01  1.0230239949361077e-01  1.0269054972880245e-01  1.0317810754726453e-01  1.0288728302436445e-01  1.0183894762336521e-01  1.0071575998538881e-01  9.9062249311429054e-02  9.7042958017893532e-02  9.5002379540827742e-02  9.2026761717115171e-02  8.8712532955876389e-02  8.5645808929554201e-02  8.1932109848545667e-02  7.7835314500878272e-02  7.3952006322342390e-02  7.0239744465229736e-02  6.7040377372268783e-02  6.4750010406174660e-02  6.3235001681855474e-02  1.1820870364516178e-01  1.1749852189975228e-01  6.3628111950656999e-02  6.5086494518815138e-02  6.6890733896544999e-02  6.9706958883660311e-02  7.3494274911729607e-02  7.7949330757792909e-02  8.2750013324201677e-02  8.7553796754532509e-02  9.2055592226847491e-02  9.6440477483408948e-02  9.9808084502809216e-02  1.0197336518797807e-01  1.0411261323664653e-01  1.0525164568019141e-01  1.0646409358051592e-01  1.0706730607724560e-01  1.0635002472247865e-01  1.0692176539506276e-01  1.0652623910889100e-01  1.0699170097789426e-01  1.0592118725253472e-01  1.0536446360070281e-01  1.0518651099959954e-01  1.0523296682006567e-01  1.0489297369247136e-01  1.0444823606176704e-01  1.0340347788713934e-01  1.0190190696365407e-01  1.0070664810694284e-01  9.8293587596406343e-02  9.5216222758101696e-02  9.2219857430845070e-02  8.8994908800394276e-02  8.4848121379182018e-02  8.0334028638488320e-02  7.5528889748845779e-02  7.0962327390985791e-02  6.7477413534451733e-02  6.4598069899241634e-02  1.1889735837880096e-01  1.1745277978925801e-01  6.4296214832131979e-02  6.7661971194597215e-02  7.1571576864536468e-02  7.6444703995683344e-02  8.2370520205733794e-02  8.9155424157302626e-02  9.5392113816266527e-02  1.0122380958804422e-01  1.0626467559100827e-01  1.1047006748011881e-01  1.1277111416252683e-01  1.1404055062321757e-01  1.1547874080401177e-01  1.1482273987449285e-01  1.1376322491475674e-01  1.1333450386711956e-01  1.1111306263726910e-01  1.0925911644309400e-01  1.0866508060898350e-01  1.0793136298444772e-01  1.0588649845795925e-01  1.0460629087762860e-01  1.0445495454940332e-01  1.0402498858425932e-01  1.0376166365431910e-01  1.0356405274878505e-01  1.0474805485960610e-01  1.0449070794570041e-01  1.0382397945413782e-01  1.0270266929820192e-01  1.0051641470986605e-01  9.8387634445934985e-02  9.6100420450665136e-02  9.3399787803957496e-02  8.9352161887189918e-02  8.4073704476108874e-02  7.7993043316721272e-02  7.2731227925753622e-02  6.6992544763625345e-02  1.1989952452869843e-01  1.1799910079063261e-01  6.7423534228384388e-02  7.7598627699677583e-02  8.8127539549557432e-02  9.8813520193361704e-02  1.0930644654504193e-01  1.2030575222011755e-01  1.2947291775974890e-01  1.3640596799916613e-01  1.4195554381161476e-01  1.4561857976555259e-01  1.4606229968296927e-01  1.4577751900203126e-01  1.4696514573496505e-01  1.4498347514414664e-01  1.4357581797686902e-01  1.4239682281456245e-01  1.4191686084277966e-01  1.4211159885619029e-01  1.4381788281776034e-01  1.4893212625338428e-01  1.5363669190066209e-01  1.5816892834006535e-01  1.6240798516054950e-01  1.6483187343858718e-01  1.6428452517167605e-01  1.6363551931665554e-01  1.6238770232894056e-01  1.5769009882644491e-01  1.5143921587469100e-01  1.4465276484007702e-01  1.3892106390156117e-01  1.3199200023680477e-01  1.2372034969911680e-01  1.1623691510708026e-01  1.0914634949814908e-01  1.0117940580987067e-01  9.2164904888336951e-02  8.2980435276534203e-02  7.0960161866862465e-02  1.2079369694806798e-01  1.2844189146655094e-01  9.1124874667135564e-02  1.5243095425163264e-01  1.9372745702377336e-01  2.2332295362082005e-01  2.4605749551093065e-01  2.5087676167806505e-01  2.4013128032273054e-01  2.2123260944354883e-01  2.0725726150098706e-01  1.9608497439285694e-01  1.8238243643204960e-01  1.7064337239469474e-01  1.6996539922824852e-01  1.6753473503869259e-01  1.6387994297316047e-01  1.5749930531186723e-01  1.4906610229416761e-01  1.4716388207396600e-01  1.4880858910668404e-01  1.5778397781911227e-01  1.7179608128162929e-01  1.8771695703383745e-01  2.0054138612153341e-01  2.1007434458549157e-01  2.1588516697730961e-01  2.1631399695050779e-01  2.1765918731592460e-01  2.1345867751404873e-01  2.1019413260466790e-01  2.1094061639851322e-01  2.1582844782969438e-01  2.2417812770102441e-01  2.3209048850379288e-01  2.3560234082208914e-01  2.2301010391111797e-01  1.9205000363873409e-01  1.5678043958483873e-01  1.2423644023351013e-01  8.9992873628464920e-02  1.2482957608129951e-01  6.7320245585509597e-01  7.2209550945436729e-01  8.3351563532375250e-01  8.3241665162809853e-01  7.9953642145182180e-01  7.4565937719752418e-01  6.8561704460725470e-01  6.4177849777584195e-01  6.1758848706624159e-01  5.9642790290925995e-01  5.6876159716631225e-01  5.2891700012458842e-01  4.8383844433199458e-01  4.5452436115812966e-01  4.4332667643169182e-01  4.3855225839275602e-01  4.3522166710366939e-01  4.3466763714026502e-01  4.4378138642647602e-01  4.6088664467188506e-01  4.8401693067358587e-01  5.1642732151475534e-01  5.4186518054495281e-01  5.5929212111848792e-01  5.6978767207534953e-01  5.7631421145871198e-01  5.7752041410186172e-01  5.7304102712202121e-01  5.6377494787008842e-01  5.5204989264423066e-01  5.4193955346087219e-01  5.3099370389662981e-01  5.1668565228640706e-01  4.9118902960251526e-01  4.6429860639060566e-01  4.2685354387854046e-01  3.8181700604667917e-01  3.3463335418334883e-01  2.8948566692301353e-01  2.4869100020748067e-01  2.2165769514773082e-01  9.5018930844636806e-01  9.6238094656165929e-01  9.5419701591574391e-01  9.4434000180172795e-01  9.3280225647495729e-01  9.2166577349067857e-01  9.0902187949482072e-01  8.8983245183086668e-01  8.6296229722982654e-01  8.2831873321693850e-01  7.9536207962952798e-01  7.6459257080750453e-01  7.3695444610981253e-01  7.1712624175985329e-01  7.0532299806127396e-01  7.0524299934964652e-01  7.0666884915200845e-01  7.0915568924853833e-01  7.2347519614800027e-01  7.3916451656593629e-01  7.5701996297168583e-01  7.8073822103365875e-01  7.9308647620800832e-01  7.9672475149290900e-01  8.0425405063172639e-01  8.1010056321461288e-01  8.1081435814353475e-01  8.0624915623485494e-01  7.9788567906325936e-01  7.8131860660933772e-01  7.6882510319011477e-01  7.5409184041603206e-01  7.4071145754695156e-01  7.3074032571266068e-01  7.3977286093201444e-01  7.6302234465429342e-01  7.8633602272465630e-01  8.0283458198900981e-01  8.2046926827153766e-01  8.5318271720628769e-01  7.6539458939253213e-01  9.7127633062326257e-01  9.8235732965052902e-01  9.7598941059467570e-01  9.6744943115909654e-01  9.5771372002529664e-01  9.4911829656012392e-01  9.4263416309474513e-01  9.3651277704707747e-01  9.2756057327582353e-01  9.1742982152521735e-01  9.0430418513781097e-01  8.8766453346142982e-01  8.7033763548884002e-01  8.5420887341303697e-01  8.3597097817946076e-01  8.2983792685351998e-01  8.3141886478986349e-01  8.3644995336252337e-01  8.5352387790453199e-01  8.6959559320991042e-01  8.8669138461427299e-01  9.0363735847931348e-01  9.1416689657747552e-01  9.1631031120780349e-01  9.1646460924263196e-01  9.1502641149981989e-01  9.1064265159260283e-01  8.9596985498717396e-01  8.8003600308563235e-01  8.6299368697734513e-01  8.5273093724531535e-01  8.4400731037267951e-01  8.3952470305459126e-01  8.4391840824493924e-01  8.6245241822699426e-01  8.8449569469821854e-01  8.9826674013773689e-01  9.0502515609183720e-01  9.1238915049427383e-01  9.2601452934093698e-01  8.9079483560204997e-01  9.7465236288451884e-01  9.8596634244371040e-01  9.8158073064956353e-01  9.7472126562081163e-01  9.6548043293308683e-01  9.5653258221089665e-01  9.5059142542843755e-01  9.4796751386392608e-01  9.4469183377266797e-01  9.3995444991071120e-01  9.3346248744805504e-01  9.2394823850270202e-01  9.1429926994207733e-01  9.0351270754612556e-01  8.9167337511871481e-01  8.8424473957808203e-01  8.8332417121299878e-01  8.8634356410114312e-01  8.9477825466197514e-01  9.0537771294918645e-01  9.1555979570091062e-01  9.2744083833926672e-01  9.3949242783710407e-01  9.4132527887133421e-01  9.4470540835905170e-01  9.3779770031334264e-01  9.2956305958178587e-01  9.0943449958388767e-01  8.8964166977377235e-01  8.7147694893780137e-01  8.5739061135747840e-01  8.4859691426827843e-01  8.4554105203526186e-01  8.5293035807166151e-01  8.7396211693810943e-01  8.9796204540139279e-01  9.1179400194169757e-01  9.1888745784479797e-01  9.2663331334584764e-01  9.3782140684718385e-01  9.1081715079188785e-01  9.6813180321029468e-01  9.8338168485686939e-01  9.7932278914423276e-01  9.7349371850932531e-01  9.6550503985848712e-01  9.5706654926531010e-01  9.5109255929633219e-01  9.4898221531413818e-01  9.4843167623914937e-01  9.4593167958272761e-01  9.4119547343145948e-01  9.3447642301708966e-01  9.2658863597266061e-01  9.1845316770685137e-01  9.0848013397581773e-01  8.9894426678824946e-01  8.9362940649240907e-01  8.9242959293089097e-01  8.9491215997978368e-01  8.9923576627505530e-01  9.0655109402862621e-01  9.1441044601449484e-01  9.2237552874549256e-01  9.2498418113300407e-01  9.1593469053322318e-01  9.0524554825334225e-01  8.8714437643492561e-01  8.6270369227359678e-01  8.3543045740283162e-01  8.0919943333131272e-01  7.9270131947037537e-01  7.7468304959098278e-01  7.6450215285215772e-01  7.6853867117378294e-01  7.9721058160258151e-01  8.3741469789168699e-01  8.7075845382303085e-01  8.9045637981868997e-01  9.0583390219419313e-01  9.2156697258688824e-01  8.9812724939200694e-01  9.3846630999790925e-01  9.6862036054014555e-01  9.6611306979108325e-01  9.6286417244373068e-01  9.5714511550963610e-01  9.5065210276240253e-01  9.4561029419625753e-01  9.4401870599990245e-01  9.4402891338166883e-01  9.4210513940904950e-01  9.3750453999890271e-01  9.3206119342993710e-01  9.2388552982713112e-01  9.1527381258140572e-01  9.0232929310673693e-01  8.8644466087857143e-01  8.7410063011299399e-01  8.6102348316591870e-01  8.5416204497820802e-01  8.5239699385265721e-01  8.4773270630297171e-01  8.4645757610501615e-01  8.3828080296146235e-01  8.2104463452687992e-01  7.9388611651598295e-01  7.6247880473023466e-01  7.3034078480274045e-01  6.9478583279106920e-01  6.5859760296951519e-01  6.3168672639725976e-01  6.1752917660308071e-01  6.0383764302551213e-01  5.9284967568538205e-01  5.8679720267877800e-01  5.7779403668662777e-01  5.8106282085320426e-01  6.2109802440796147e-01  6.9129170454926137e-01  7.6975429568290776e-01  8.2315043517609687e-01  8.1098484406632476e-01  4.5489540355604879e-01  8.8544702756431393e-01  9.1768448228028443e-01  9.2983513060831691e-01  9.3294495302251845e-01  9.3237317384814200e-01  9.3110661430626729e-01  9.3046616984777253e-01  9.3007278366106605e-01  9.2797754544117528e-01  9.2214878383138743e-01  9.1400700021497172e-01  9.0287606705251477e-01  8.8748557532723882e-01  8.6748621226734568e-01  8.4272937077577403e-01  8.1637157345356104e-01  7.8868339347235938e-01  7.6811454896419240e-01  7.5325705158297995e-01  7.3322243049474833e-01  7.1605973143478518e-01  7.0527383015546263e-01  6.8673513484425719e-01  6.3666230552647252e-01  5.6114977134384181e-01  4.8637346044473578e-01  4.2241959962267167e-01  3.7817413541792094e-01  3.4852984692256350e-01  3.3432624283318463e-01  3.2543412417889628e-01  3.1746375091541157e-01  3.1350752479001809e-01  3.0333481798791656e-01  2.8775121157143635e-01  2.6010663556205288e-01  2.3026415288433655e-01  1.9689624654834600e-01  1.7080120593107301e-01  2.8215750590193234e-01  1.2985778436929238e-01  1.4553669929058466e-01  4.3885786569073620e-01  7.6690867199770374e-01  8.4583204533709377e-01  8.7714363283800822e-01  8.9245794860978989e-01  8.9746719556633803e-01  8.9832797010258836e-01  8.9347564646292010e-01  8.8415372013488969e-01  8.6889064372405633e-01  8.4611927390462882e-01  8.1820499546307901e-01  7.7938487228914410e-01  7.4792554726443483e-01  7.2237611630378262e-01  6.9419144510147390e-01  6.4906004858956068e-01  6.0115926488311167e-01  5.5893601454856046e-01  5.3279521623460946e-01  5.0102405921738147e-01  4.5753314088206287e-01  3.9137787282040515e-01  3.3082761317764686e-01  2.8635659980306072e-01  2.5509043111380658e-01  2.3006060361004327e-01  2.0539728885991484e-01  1.8345099551217769e-01  1.6517714967419830e-01  1.5061154703698809e-01  1.3848031003785910e-01  1.2835218646049823e-01  1.1950852442137086e-01  1.1247132126210418e-01  1.0458544021989870e-01  9.3485182507274028e-02  7.8612879901202082e-02  1.2545232381939553e-01  1.2294447040034052e-01  8.4946362601991288e-02  1.4386884799272986e-01  1.8593169036450469e-01  4.3287708097656846e-01  6.2050939987835785e-01  7.2753792810977824e-01  7.7866038015906391e-01  7.9613760764637109e-01  7.9348958635824540e-01  7.7481605217882410e-01  7.4415369264630660e-01  6.9774439778308095e-01  6.4894873032183020e-01  6.0285490593454105e-01  5.6865345251525035e-01  5.3544275931472485e-01  4.8753611037909322e-01  4.4238983504814211e-01  4.0857667428031075e-01  4.0002582723294194e-01  4.2099123758601981e-01  4.3740338802661516e-01  4.2051702712872979e-01  3.6077549092278283e-01  2.9485053003585360e-01  2.4193796874157647e-01  2.0155877780400672e-01  1.7322077195924102e-01  1.4911569525324883e-01  1.3425181279872178e-01  1.2368367214095471e-01  1.1518869011087307e-01  1.0834644270005954e-01  1.0105768040575160e-01  9.5220485252967321e-02  8.9066229536024763e-02  8.2298190703931934e-02  7.5609484477963479e-02  6.8225930033010154e-02  1.1987043931107337e-01  1.2368411817108535e-01  7.8504724273861931e-02  9.9658096664225079e-02  1.3582077801437692e-01  1.5171509347183534e-01  1.8824746270104864e-01  3.7095070058216290e-01  4.8725682145754667e-01  5.1275753210722352e-01  5.1093946333478224e-01  4.8623565721093143e-01  4.3808740307406580e-01  3.8106686917200017e-01  3.2572298132721705e-01  2.9470911974304537e-01  2.8127265071757085e-01  2.9031324326310892e-01  2.9537421239826400e-01  3.1352616186180637e-01  3.5868885068187611e-01  4.2624165984113593e-01  4.9359838652621157e-01  5.1906517578795985e-01  4.7568190765666890e-01  3.7913623248665640e-01  2.8571319119021255e-01  2.1995679398998069e-01  1.7888287805044747e-01  1.5603838212278667e-01  1.3918339781633271e-01  1.2855300124087082e-01  1.1968430054328948e-01  1.1113533234936651e-01  1.0371544444504542e-01  9.6303680373886077e-02  8.9319030887956827e-02  8.2149716962089447e-02  7.6212759878912531e-02  7.1377669663176088e-02  6.6949754819973506e-02  1.2009014799434999e-01  1.2402323160458328e-01  7.6804081651053971e-02  9.1046506717521750e-02  1.0427936014932045e-01  1.2688174527612073e-01  1.5222138719063566e-01  1.0938448374182118e-01  9.2792183555278421e-02  1.5508014412209742e-01  1.8026092245526892e-01  1.6166621795092859e-01  1.1290686100082845e-01  7.3273765543455757e-02  6.5049330461702526e-02  9.1114524351570580e-02  1.3527602155233190e-01  1.8947882670496616e-01  2.4219603871685805e-01  3.0917644924586213e-01  4.0360483439318529e-01  5.0483542979087859e-01  5.7016941638351959e-01  5.6209371651292439e-01  4.7167244062657143e-01  3.4492873034382521e-01  2.4581071814135375e-01  1.9207124233933537e-01  1.6478496860274364e-01  1.5153575662355401e-01  1.4085427402483708e-01  1.2913342374540923e-01  1.1905859011377451e-01  1.0868982127120549e-01  1.0022323146322290e-01  9.2672160713262508e-02  8.5699207694399468e-02  7.9015933488437218e-02  7.3960418909408701e-02  7.0559711408928069e-02  6.7012562624142166e-02  1.2074477559032797e-01  1.2414907012762864e-01  7.6391063183813585e-02  8.8747683033470928e-02  9.7392619230198638e-02  1.0774340948452635e-01  1.2193335633546920e-01  1.4146063200565598e-01  1.5433563123780103e-01  1.3944428792032892e-01  1.0197294111449817e-01  7.2489960515570551e-02  6.1719775451769460e-02  6.9586595868343176e-02  9.4319989206111801e-02  1.2677186104800908e-01  1.5959785124370920e-01  2.0023693514969340e-01  2.5367711127620785e-01  3.3424667319405210e-01  4.3316330815629400e-01  5.1916522726802772e-01  5.5423091459989660e-01  5.1314567530394184e-01  4.1207646350314847e-01  3.0020031638535344e-01  2.2169446713041063e-01  1.8332571510298690e-01  1.6406889051594153e-01  1.5481288867562251e-01  1.4605702760312678e-01  1.3364255091543273e-01  1.2112980016642652e-01  1.0961331252863182e-01  1.0123899014401075e-01  9.3067907649402093e-02  8.5264327859089994e-02  7.9298489628550864e-02  7.4815631385821896e-02  7.1795855561408342e-02  6.8182801192301315e-02  1.2161928843565752e-01  1.2391985147087038e-01  7.5373622244905070e-02  8.6258403638878878e-02  9.3074745116804511e-02  1.0024429724274406e-01  1.0892583485738336e-01  1.1995271768661206e-01  1.3253871538022877e-01  1.4448490091819266e-01  1.5537397379992587e-01  1.6362909534507977e-01  1.6871953873091336e-01  1.7387728641803624e-01  1.7992029353648334e-01  1.8501322227352107e-01  1.9052112929900294e-01  2.0963339486814617e-01  2.4666068247776585e-01  3.0895496831758912e-01  3.8175723198711475e-01  4.4047857800241996e-01  4.5563598740127281e-01  4.1612948454306170e-01  3.4428201092092736e-01  2.7261425766325009e-01  2.2405478481573032e-01  1.8931412196064493e-01  1.6287376219358785e-01  1.5330189401179223e-01  1.4875085870705074e-01  1.3770325240130843e-01  1.2502636444520393e-01  1.1254387371200414e-01  1.0343973701986839e-01  9.5648619964169193e-02  8.9149133487896576e-02  8.2478493545568535e-02  7.7887197343524103e-02  7.4321522858099301e-02  6.9875884233467259e-02  1.2284992141386217e-01  1.2380194584126113e-01  7.4497649630054799e-02  8.3992372962005665e-02  9.0071666537743289e-02  9.5488679418980829e-02  1.0187729590383823e-01  1.0947339490092128e-01  1.1793994380604049e-01  1.272234748