<?xml version="1.0"?>
<VTKFile type="UnstructuredGrid"  version="0.1"  >
<UnstructuredGrid>
<Piece  NumberOfPoints="1681" NumberOfCells="3200">
<Points>
<DataArray  type="Float64"  NumberOfComponents="3"  format="ascii">0 0 0  0.025 0 0  0.05 0 0  0.075 0 0  0.1 0 0  0.125 0 0  0.15 0 0  0.175 0 0  0.2 0 0  0.225 0 0  0.25 0 0  0.275 0 0  0.3 0 0  0.325 0 0  0.35 0 0  0.375 0 0  0.4 0 0  0.425 0 0  0.45 0 0  0.475 0 0  0.5 0 0  0.525 0 0  0.55 0 0  0.575 0 0  0.6 0 0  0.625 0 0  0.65 0 0  0.675 0 0  0.7 0 0  0.725 0 0  0.75 0 0  0.775 0 0  0.8 0 0  0.825 0 0  0.85 0 0  0.875 0 0  0.9 0 0  0.925 0 0  0.95 0 0  0.975 0 0  1 0 0  0 0.025 0  0.025 0.025 0  0.05 0.025 0  0.075 0.025 0  0.1 0.025 0  0.125 0.025 0  0.15 0.025 0  0.175 0.025 0  0.2 0.025 0  0.225 0.025 0  0.25 0.025 0  0.275 0.025 0  0.3 0.025 0  0.325 0.025 0  0.35 0.025 0  0.375 0.025 0  0.4 0.025 0  0.425 0.025 0  0.45 0.025 0  0.475 0.025 0  0.5 0.025 0  0.525 0.025 0  0.55 0.025 0  0.575 0.025 0  0.6 0.025 0  0.625 0.025 0  0.65 0.025 0  0.675 0.025 0  0.7 0.025 0  0.725 0.025 0  0.75 0.025 0  0.775 0.025 0  0.8 0.025 0  0.825 0.025 0  0.85 0.025 0  0.875 0.025 0  0.9 0.025 0  0.925 0.025 0  0.95 0.025 0  0.975 0.025 0  1 0.025 0  0 0.05 0  0.025 0.05 0  0.05 0.05 0  0.075 0.05 0  0.1 0.05 0  0.125 0.05 0  0.15 0.05 0  0.175 0.05 0  0.2 0.05 0  0.225 0.05 0  0.25 0.05 0  0.275 0.05 0  0.3 0.05 0  0.325 0.05 0  0.35 0.05 0  0.375 0.05 0  0.4 0.05 0  0.425 0.05 0  0.45 0.05 0  0.475 0.05 0  0.5 0.05 0  0.525 0.05 0  0.55 0.05 0  0.575 0.05 0  0.6 0.05 0  0.625 0.05 0  0.65 0.05 0  0.675 0.05 0  0.7 0.05 0  0.725 0.05 0  0.75 0.05 0  0.775 0.05 0  0.8 0.05 0  0.825 0.05 0  0.85 0.05 0  0.875 0.05 0  0.9 0.05 0  0.925 0.05 0  0.95 0.05 0  0.975 0.05 0  1 0.05 0  0 0.075 0  0.025 0.075 0  0.05 0.075 0  0.075 0.075 0  0.1 0.075 0  0.125 0.075 0  0.15 0.075 0  0.175 0.075 0  0.2 0.075 0  0.225 0.075 0  0.25 0.075 0  0.275 0.075 0  0.3 0.075 0  0.325 0.075 0  0.35 0.075 0  0.375 0.075 0  0.4 0.075 0  0.425 0.075 0  0.45 0.075 0  0.475 0.075 0  0.5 0.075 0  0.525 0.075 0  0.55 0.075 0  0.575 0.075 0  0.6 0.075 0  0.625 0.075 0  0.65 0.075 0  0.675 0.075 0  0.7 0.075 0  0.725 0.075 0  0.75 0.075 0  0.775 0.075 0  0.8 0.075 0  0.825 0.075 0  0.85 0.075 0  0.875 0.075 0  0.9 0.075 0  0.925 0.075 0  0.95 0.075 0  0.975 0.075 0  1 0.075 0  0 0.1 0  0.025 0.1 0  0.05 0.1 0  0.075 0.1 0  0.1 0.1 0  0.125 0.1 0  0.15 0.1 0  0.175 0.1 0  0.2 0.1 0  0.225 0.1 0  0.25 0.1 0  0.275 0.1 0  0.3 0.1 0  0.325 0.1 0  0.35 0.1 0  0.375 0.1 0  0.4 0.1 0  0.425 0.1 0  0.45 0.1 0  0.475 0.1 0  0.5 0.1 0  0.525 0.1 0  0.55 0.1 0  0.575 0.1 0  0.6 0.1 0  0.625 0.1 0  0.65 0.1 0  0.675 0.1 0  0.7 0.1 0  0.725 0.1 0  0.75 0.1 0  0.775 0.1 0  0.8 0.1 0  0.825 0.1 0  0.85 0.1 0  0.875 0.1 0  0.9 0.1 0  0.925 0.1 0  0.95 0.1 0  0.975 0.1 0  1 0.1 0  0 0.125 0  0.025 0.125 0  0.05 0.125 0  0.075 0.125 0  0.1 0.125 0  0.125 0.125 0  0.15 0.125 0  0.175 0.125 0  0.2 0.125 0  0.225 0.125 0  0.25 0.125 0  0.275 0.125 0  0.3 0.125 0  0.325 0.125 0  0.35 0.125 0  0.375 0.125 0  0.4 0.125 0  0.425 0.125 0  0.45 0.125 0  0.475 0.125 0  0.5 0.125 0  0.525 0.125 0  0.55 0.125 0  0.575 0.125 0  0.6 0.125 0  0.625 0.125 0  0.65 0.125 0  0.675 0.125 0  0.7 0.125 0  0.725 0.125 0  0.75 0.125 0  0.775 0.125 0  0.8 0.125 0  0.825 0.125 0  0.85 0.125 0  0.875 0.125 0  0.9 0.125 0  0.925 0.125 0  0.95 0.125 0  0.975 0.125 0  1 0.125 0  0 0.15 0  0.025 0.15 0  0.05 0.15 0  0.075 0.15 0  0.1 0.15 0  0.125 0.15 0  0.15 0.15 0  0.175 0.15 0  0.2 0.15 0  0.225 0.15 0  0.25 0.15 0  0.275 0.15 0  0.3 0.15 0  0.325 0.15 0  0.35 0.15 0  0.375 0.15 0  0.4 0.15 0  0.425 0.15 0  0.45 0.15 0  0.475 0.15 0  0.5 0.15 0  0.525 0.15 0  0.55 0.15 0  0.575 0.15 0  0.6 0.15 0  0.625 0.15 0  0.65 0.15 0  0.675 0.15 0  0.7 0.15 0  0.725 0.15 0  0.75 0.15 0  0.775 0.15 0  0.8 0.15 0  0.825 0.15 0  0.85 0.15 0  0.875 0.15 0  0.9 0.15 0  0.925 0.15 0  0.95 0.15 0  0.975 0.15 0  1 0.15 0  0 0.175 0  0.025 0.175 0  0.05 0.175 0  0.075 0.175 0  0.1 0.175 0  0.125 0.175 0  0.15 0.175 0  0.175 0.175 0  0.2 0.175 0  0.225 0.175 0  0.25 0.175 0  0.275 0.175 0  0.3 0.175 0  0.325 0.175 0  0.35 0.175 0  0.375 0.175 0  0.4 0.175 0  0.425 0.175 0  0.45 0.175 0  0.475 0.175 0  0.5 0.175 0  0.525 0.175 0  0.55 0.175 0  0.575 0.175 0  0.6 0.175 0  0.625 0.175 0  0.65 0.175 0  0.675 0.175 0  0.7 0.175 0  0.725 0.175 0  0.75 0.175 0  0.775 0.175 0  0.8 0.175 0  0.825 0.175 0  0.85 0.175 0  0.875 0.175 0  0.9 0.175 0  0.925 0.175 0  0.95 0.175 0  0.975 0.175 0  1 0.175 0  0 0.2 0  0.025 0.2 0  0.05 0.2 0  0.075 0.2 0  0.1 0.2 0  0.125 0.2 0  0.15 0.2 0  0.175 0.2 0  0.2 0.2 0  0.225 0.2 0  0.25 0.2 0  0.275 0.2 0  0.3 0.2 0  0.325 0.2 0  0.35 0.2 0  0.375 0.2 0  0.4 0.2 0  0.425 0.2 0  0.45 0.2 0  0.475 0.2 0  0.5 0.2 0  0.525 0.2 0  0.55 0.2 0  0.575 0.2 0  0.6 0.2 0  0.625 0.2 0  0.65 0.2 0  0.675 0.2 0  0.7 0.2 0  0.725 0.2 0  0.75 0.2 0  0.775 0.2 0  0.8 0.2 0  0.825 0.2 0  0.85 0.2 0  0.875 0.2 0  0.9 0.2 0  0.925 0.2 0  0.95 0.2 0  0.975 0.2 0  1 0.2 0  0 0.225 0  0.025 0.225 0  0.05 0.225 0  0.075 0.225 0  0.1 0.225 0  0.125 0.225 0  0.15 0.225 0  0.175 0.225 0  0.2 0.225 0  0.225 0.225 0  0.25 0.225 0  0.275 0.225 0  0.3 0.225 0  0.325 0.225 0  0.35 0.225 0  0.375 0.225 0  0.4 0.225 0  0.425 0.225 0  0.45 0.225 0  0.475 0.225 0  0.5 0.225 0  0.525 0.225 0  0.55 0.225 0  0.575 0.225 0  0.6 0.225 0  0.625 0.225 0  0.65 0.225 0  0.675 0.225 0  0.7 0.225 0  0.725 0.225 0  0.75 0.225 0  0.775 0.225 0  0.8 0.225 0  0.825 0.225 0  0.85 0.225 0  0.875 0.225 0  0.9 0.225 0  0.925 0.225 0  0.95 0.225 0  0.975 0.225 0  1 0.225 0  0 0.25 0  0.025 0.25 0  0.05 0.25 0  0.075 0.25 0  0.1 0.25 0  0.125 0.25 0  0.15 0.25 0  0.175 0.25 0  0.2 0.25 0  0.225 0.25 0  0.25 0.25 0  0.275 0.25 0  0.3 0.25 0  0.325 0.25 0  0.35 0.25 0  0.375 0.25 0  0.4 0.25 0  0.425 0.25 0  0.45 0.25 0  0.475 0.25 0  0.5 0.25 0  0.525 0.25 0  0.55 0.25 0  0.575 0.25 0  0.6 0.25 0  0.625 0.25 0  0.65 0.25 0  0.675 0.25 0  0.7 0.25 0  0.725 0.25 0  0.75 0.25 0  0.775 0.25 0  0.8 0.25 0  0.825 0.25 0  0.85 0.25 0  0.875 0.25 0  0.9 0.25 0  0.925 0.25 0  0.95 0.25 0  0.975 0.25 0  1 0.25 0  0 0.275 0  0.025 0.275 0  0.05 0.275 0  0.075 0.275 0  0.1 0.275 0  0.125 0.275 0  0.15 0.275 0  0.175 0.275 0  0.2 0.275 0  0.225 0.275 0  0.25 0.275 0  0.275 0.275 0  0.3 0.275 0  0.325 0.275 0  0.35 0.275 0  0.375 0.275 0  0.4 0.275 0  0.425 0.275 0  0.45 0.275 0  0.475 0.275 0  0.5 0.275 0  0.525 0.275 0  0.55 0.275 0  0.575 0.275 0  0.6 0.275 0  0.625 0.275 0  0.65 0.275 0  0.675 0.275 0  0.7 0.275 0  0.725 0.275 0  0.75 0.275 0  0.775 0.275 0  0.8 0.275 0  0.825 0.275 0  0.85 0.275 0  0.875 0.275 0  0.9 0.275 0  0.925 0.275 0  0.95 0.275 0  0.975 0.275 0  1 0.275 0  0 0.3 0  0.025 0.3 0  0.05 0.3 0  0.075 0.3 0  0.1 0.3 0  0.125 0.3 0  0.15 0.3 0  0.175 0.3 0  0.2 0.3 0  0.225 0.3 0  0.25 0.3 0  0.275 0.3 0  0.3 0.3 0  0.325 0.3 0  0.35 0.3 0  0.375 0.3 0  0.4 0.3 0  0.425 0.3 0  0.45 0.3 0  0.475 0.3 0  0.5 0.3 0  0.525 0.3 0  0.55 0.3 0  0.575 0.3 0  0.6 0.3 0  0.625 0.3 0  0.65 0.3 0  0.675 0.3 0  0.7 0.3 0  0.725 0.3 0  0.75 0.3 0  0.775 0.3 0  0.8 0.3 0  0.825 0.3 0  0.85 0.3 0  0.875 0.3 0  0.9 0.3 0  0.925 0.3 0  0.95 0.3 0  0.975 0.3 0  1 0.3 0  0 0.325 0  0.025 0.325 0  0.05 0.325 0  0.075 0.325 0  0.1 0.325 0  0.125 0.325 0  0.15 0.325 0  0.175 0.325 0  0.2 0.325 0  0.225 0.325 0  0.25 0.325 0  0.275 0.325 0  0.3 0.325 0  0.325 0.325 0  0.35 0.325 0  0.375 0.325 0  0.4 0.325 0  0.425 0.325 0  0.45 0.325 0  0.475 0.325 0  0.5 0.325 0  0.525 0.325 0  0.55 0.325 0  0.575 0.325 0  0.6 0.325 0  0.625 0.325 0  0.65 0.325 0  0.675 0.325 0  0.7 0.325 0  0.725 0.325 0  0.75 0.325 0  0.775 0.325 0  0.8 0.325 0  0.825 0.325 0  0.85 0.325 0  0.875 0.325 0  0.9 0.325 0  0.925 0.325 0  0.95 0.325 0  0.975 0.325 0  1 0.325 0  0 0.35 0  0.025 0.35 0  0.05 0.35 0  0.075 0.35 0  0.1 0.35 0  0.125 0.35 0  0.15 0.35 0  0.175 0.35 0  0.2 0.35 0  0.225 0.35 0  0.25 0.35 0  0.275 0.35 0  0.3 0.35 0  0.325 0.35 0  0.35 0.35 0  0.375 0.35 0  0.4 0.35 0  0.425 0.35 0  0.45 0.35 0  0.475 0.35 0  0.5 0.35 0  0.525 0.35 0  0.55 0.35 0  0.575 0.35 0  0.6 0.35 0  0.625 0.35 0  0.65 0.35 0  0.675 0.35 0  0.7 0.35 0  0.725 0.35 0  0.75 0.35 0  0.775 0.35 0  0.8 0.35 0  0.825 0.35 0  0.85 0.35 0  0.875 0.35 0  0.9 0.35 0  0.925 0.35 0  0.95 0.35 0  0.975 0.35 0  1 0.35 0  0 0.375 0  0.025 0.375 0  0.05 0.375 0  0.075 0.375 0  0.1 0.375 0  0.125 0.375 0  0.15 0.375 0  0.175 0.375 0  0.2 0.375 0  0.225 0.375 0  0.25 0.375 0  0.275 0.375 0  0.3 0.375 0  0.325 0.375 0  0.35 0.375 0  0.375 0.375 0  0.4 0.375 0  0.425 0.375 0  0.45 0.375 0  0.475 0.375 0  0.5 0.375 0  0.525 0.375 0  0.55 0.375 0  0.575 0.375 0  0.6 0.375 0  0.625 0.375 0  0.65 0.375 0  0.675 0.375 0  0.7 0.375 0  0.725 0.375 0  0.75 0.375 0  0.775 0.375 0  0.8 0.375 0  0.825 0.375 0  0.85 0.375 0  0.875 0.375 0  0.9 0.375 0  0.925 0.375 0  0.95 0.375 0  0.975 0.375 0  1 0.375 0  0 0.4 0  0.025 0.4 0  0.05 0.4 0  0.075 0.4 0  0.1 0.4 0  0.125 0.4 0  0.15 0.4 0  0.175 0.4 0  0.2 0.4 0  0.225 0.4 0  0.25 0.4 0  0.275 0.4 0  0.3 0.4 0  0.325 0.4 0  0.35 0.4 0  0.375 0.4 0  0.4 0.4 0  0.425 0.4 0  0.45 0.4 0  0.475 0.4 0  0.5 0.4 0  0.525 0.4 0  0.55 0.4 0  0.575 0.4 0  0.6 0.4 0  0.625 0.4 0  0.65 0.4 0  0.675 0.4 0  0.7 0.4 0  0.725 0.4 0  0.75 0.4 0  0.775 0.4 0  0.8 0.4 0  0.825 0.4 0  0.85 0.4 0  0.875 0.4 0  0.9 0.4 0  0.925 0.4 0  0.95 0.4 0  0.975 0.4 0  1 0.4 0  0 0.425 0  0.025 0.425 0  0.05 0.425 0  0.075 0.425 0  0.1 0.425 0  0.125 0.425 0  0.15 0.425 0  0.175 0.425 0  0.2 0.425 0  0.225 0.425 0  0.25 0.425 0  0.275 0.425 0  0.3 0.425 0  0.325 0.425 0  0.35 0.425 0  0.375 0.425 0  0.4 0.425 0  0.425 0.425 0  0.45 0.425 0  0.475 0.425 0  0.5 0.425 0  0.525 0.425 0  0.55 0.425 0  0.575 0.425 0  0.6 0.425 0  0.625 0.425 0  0.65 0.425 0  0.675 0.425 0  0.7 0.425 0  0.725 0.425 0  0.75 0.425 0  0.775 0.425 0  0.8 0.425 0  0.825 0.425 0  0.85 0.425 0  0.875 0.425 0  0.9 0.425 0  0.925 0.425 0  0.95 0.425 0  0.975 0.425 0  1 0.425 0  0 0.45 0  0.02
[...]
<PointData  Scalars="ControlVisualisation"> 
<DataArray  type="Float64"  Name="ControlVisualisation"  format="ascii">1.6421256819190080e-01  1.1745006790485936e-01  1.1826915346337506e-01  1.1920727326622783e-01  1.2008841907509706e-01  1.2110370644040591e-01  1.2208302878123457e-01  1.2311691719393873e-01  1.2417606652356837e-01  1.2506698076441955e-01  1.2584851284595666e-01  1.2630101856451711e-01  1.2609800268229310e-01  1.2665028387034080e-01  1.2764627014276719e-01  1.2781478450091380e-01  1.2823913683996618e-01  1.2853508276059161e-01  1.2856380694622427e-01  1.2888914063938745e-01  1.2941887335611968e-01  1.2968157564456062e-01  1.2960263791218135e-01  1.3020366980417711e-01  1.3063912422258400e-01  1.3063146321379149e-01  1.3037194714410982e-01  1.3057738494464571e-01  1.3057167376731502e-01  1.3023980870310856e-01  1.2933472451158060e-01  1.2865046211067852e-01  1.2803538421096849e-01  1.2675206814517076e-01  1.2508713037996427e-01  1.2378614279088904e-01  1.2245673852765007e-01  1.2071468734306408e-01  1.1918018087337266e-01  1.1763904306018870e-01  2.6386367384660880e-01  1.1691881996673789e-01  6.2834592956269517e-02  6.2815502257829725e-02  6.3049423316667144e-02  6.3550674552765710e-02  6.4176346426916803e-02  6.4968083088061512e-02  6.6114264843235585e-02  6.7040088621702826e-02  6.7618428453862470e-02  6.8672247201708350e-02  6.9375487383018464e-02  6.8735887645805960e-02  6.9206482345005538e-02  6.9670827207446107e-02  7.0103834410953955e-02  7.0148352383060539e-02  7.0495882047635738e-02  7.0311931542633710e-02  7.0757702962441285e-02  7.1264291936240606e-02  7.1985397318240954e-02  7.1961675925451593e-02  7.2779757957747632e-02  7.3209545041782703e-02  7.2860129863787468e-02  7.2836975935254983e-02  7.2755329842640715e-02  7.3447042277695260e-02  7.3508614261373909e-02  7.2472295848704266e-02  7.1509497478458930e-02  7.0960458457259221e-02  6.9856829270851101e-02  6.8188055995962005e-02  6.6889899503030981e-02  6.5961801879128340e-02  6.4701663458079484e-02  6.3653928383238467e-02  6.3044374527835387e-02  1.1761342982882560e-01  1.1632535342702420e-01  6.3203525507478667e-02  6.3374171463465107e-02  6.3422069452567856e-02  6.3879878548837116e-02  6.4327964589899145e-02  6.5190020037822274e-02  6.6740394693495145e-02  6.7561965913549488e-02  6.8256307822695025e-02  6.9550113238010761e-02  7.0724773105641556e-02  7.0085204649693103e-02  7.1199951484968341e-02  7.2051266797671765e-02  7.2549084128504818e-02  7.2860236116687710e-02  7.3168298559558628e-02  7.2936834252022603e-02  7.3088220752999034e-02  7.3513784174908600e-02  7.4136200512434622e-02  7.4619133843525240e-02  7.5684183817821896e-02  7.6048529769850728e-02  7.5802289909672291e-02  7.6081600604643959e-02  7.6095859574195970e-02  7.6037240725269364e-02  7.6526328608661306e-02  7.5508311380454080e-02  7.4039808262346948e-02  7.3561427454960235e-02  7.1948117274672332e-02  6.9741388084624267e-02  6.8308500998516139e-02  6.6838493107597818e-02  6.5296000678898236e-02  6.4086742170559319e-02  6.3558114631996968e-02  1.1908884159239234e-01  1.1589511606820650e-01  6.3689944649080524e-02  6.4512498423125494e-02  6.4648535573924248e-02  6.5167574770529188e-02  6.6104998323318009e-02  6.7129281918815564e-02  6.8128280990357962e-02  6.9030572496651774e-02  6.9814622803800658e-02  7.1369315552440790e-02  7.2080495191433031e-02  7.1834585930879991e-02  7.2787157483553397e-02  7.3019996376316426e-02  7.4152994302432496e-02  7.4850044118372636e-02  7.3951826138953833e-02  7.5146137603425908e-02  7.5116866931203813e-02  7.6362750516220046e-02  7.5772912571843876e-02  7.5967901451032646e-02  7.6668833207199416e-02  7.7682485441816496e-02  7.8292966589080679e-02  7.8887860812092606e-02  7.8945796769134241e-02  7.8767888748260323e-02  7.9671985496221703e-02  7.8984568949725664e-02  7.7300059370142241e-02  7.6096243598058610e-02  7.5107577210890952e-02  7.3039914300524089e-02  7.1359568914930241e-02  6.9556807809285151e-02  6.7419042694988399e-02  6.5728492717457385e-02  6.4737486772502337e-02  1.2081241657241699e-01  1.1563839961965044e-01  6.3778298507345885e-02  6.5792523781564610e-02  6.7172010637549046e-02  6.7763981658785194e-02  6.8795664319816013e-02  7.0806375055099013e-02  7.1524197379168306e-02  7.2434949731996420e-02  7.3386809253442403e-02  7.4699688212658169e-02  7.4672017552702377e-02  7.4642239634343355e-02  7.6064076876633413e-02  7.5455159569444166e-02  7.5167518417598875e-02  7.6255093626426601e-02  7.5544582332000412e-02  7.5486288550113204e-02  7.6815854728061614e-02  7.7920377423002549e-02  7.7595307396087693e-02  7.8031903052790355e-02  7.9457276748482686e-02  8.0431986257944316e-02  8.1332672753285387e-02  8.1892169796669079e-02  8.3806012113911976e-02  8.4034649700819058e-02  8.3853975914870149e-02  8.3432139366923772e-02  8.1869962923254852e-02  8.0811717006498904e-02  7.9818888852565106e-02  7.8807044477435542e-02  7.6537007240857588e-02  7.3729458710659737e-02  7.0462702012133269e-02  6.8490049274469597e-02  6.6408589874759727e-02  1.2302665875489391e-01  1.1614158253782758e-01  6.5841765169081162e-02  7.2352304028377307e-02  7.7320561859558573e-02  7.9564292338305878e-02  8.0396437225200817e-02  8.2836505574191796e-02  8.3814873345679455e-02  8.3986104673871270e-02  8.4876743877053587e-02  8.5610798625762527e-02  8.4082188416430045e-02  8.2637179434216418e-02  8.3616947617114440e-02  8.2066910541023316e-02  8.1888061758450939e-02  8.2125990833949850e-02  8.2395368402775088e-02  8.2022248304415180e-02  8.1840375546807259e-02  8.4432269735822671e-02  8.6337415785389143e-02  8.8821504684312366e-02  9.2379661557369652e-02  9.5206059054733227e-02  9.5984433718569462e-02  9.8701579883411689e-02  1.0286119148151857e-01  1.0387628762666293e-01  1.0343264443880988e-01  1.0221128497365087e-01  1.0237593636540168e-01  1.0088797665991628e-01  9.7014301726331534e-02  9.3680332359648094e-02  9.0389404213479921e-02  8.5065719702983669e-02  7.9135770284528756e-02  7.4429361050782794e-02  6.9023495947188901e-02  1.2473643499737902e-01  1.2556107301192282e-01  8.5703750744859281e-02  1.3123116257520070e-01  1.7867578483913926e-01  1.9515536691786875e-01  1.9231678905501798e-01  1.8028933178836171e-01  1.6532604197784190e-01  1.5007228390304395e-01  1.4293572407212818e-01  1.3801599057804273e-01  1.2768482236532577e-01  1.1622454804741286e-01  1.1600002286377031e-01  1.1236720292232651e-01  1.1133672990383767e-01  1.1165097264165234e-01  1.1023079198451716e-01  1.1650411025043883e-01  1.2029860550622024e-01  1.2765787565935055e-01  1.3781307741936538e-01  1.5175732278319545e-01  1.6287969682429398e-01  1.7524293618700892e-01  1.9000116564653599e-01  1.9989999742372710e-01  2.1966707395601393e-01  2.2063641817545382e-01  2.1714763069677256e-01  2.1343154606495224e-01  2.0761566314913599e-01  1.9896623072060229e-01  1.8290309276400230e-01  1.6874626342087035e-01  1.5741313070872462e-01  1.4360165390516172e-01  1.2735314618451429e-01  1.1030905748203999e-01  8.7018232909996607e-02  1.3047558460446335e-01  6.5890254626005118e-01  6.3260275488161233e-01  7.5040742669314131e-01  7.5971109391842129e-01  7.3483608655970234e-01  6.9287146165545999e-01  6.5000959981035511e-01  6.0303235910914821e-01  5.4868489740124315e-01  4.9032577432100199e-01  4.4294154943986247e-01  4.0410089372192576e-01  3.6684806770089384e-01  3.4942309967487623e-01  3.4628161850137484e-01  3.3531536162065045e-01  3.1967603011753004e-01  3.1033601211985140e-01  3.2182364249981865e-01  3.4140735685533274e-01  3.5941325028996551e-01  3.9670912127749414e-01  4.1769921539794508e-01  4.3166998685947988e-01  4.4746668978733445e-01  4.7451457751297055e-01  5.0235991123665880e-01  5.2112424640679389e-01  5.2857156367175129e-01  5.2820385885433074e-01  5.2883992150898607e-01  5.2416119705984676e-01  5.1440383356669062e-01  4.8674077706677549e-01  4.8144644816100346e-01  4.7219445504521290e-01  4.5358872462309646e-01  4.2317204224753574e-01  3.6676325887311939e-01  2.8725593853282944e-01  2.3541859759331582e-01  9.5422360852718568e-01  9.6728500658195093e-01  9.5950008171302437e-01  9.4899983229098406e-01  9.3599322871362622e-01  9.2229524111590355e-01  9.0710975664691684e-01  8.8780116090893679e-01  8.6770694533381276e-01  8.4105168236601113e-01  8.1586254313047413e-01  7.8909044751879975e-01  7.6214111615714208e-01  7.4082306897448968e-01  7.2023419816318801e-01  7.1233513773508539e-01  6.9768364605627486e-01  6.7546766808681691e-01  6.7649413869867847e-01  6.7359478637476955e-01  6.7740867925778225e-01  7.0483397254117242e-01  7.0936911262512836e-01  6.9927797364680067e-01  7.1054253745702534e-01  7.2459102070203396e-01  7.3361836059488827e-01  7.3930409902047800e-01  7.4488283249278386e-01  7.3957283810290642e-01  7.4316013234695188e-01  7.4220962696253545e-01  7.4139734625567166e-01  7.3040172019439364e-01  7.3107375890034421e-01  7.3514855830104997e-01  7.4075189483919590e-01  7.4899213383989027e-01  7.6549489370399959e-01  7.9804886630726413e-01  7.2529985160491850e-01  9.7587548460474161e-01  9.8477552568146187e-01  9.8034302614034208e-01  9.7472720293198922e-01  9.6811272756511313e-01  9.6149518019503011e-01  9.5533922614352751e-01  9.4897898069750408e-01  9.4139039195647201e-01  9.3504922920976019e-01  9.2673891965209887e-01  9.1546809757855074e-01  9.0375111238624173e-01  8.9326520747907856e-01  8.7792556170773561e-01  8.7460093486059132e-01  8.7380615442619736e-01  8.6370936341408266e-01  8.5649026558042252e-01  8.4268211639084345e-01  8.3529468836232834e-01  8.3548539016854717e-01  8.3708605290399740e-01  8.3615340984139741e-01  8.3864104237238968e-01  8.4317806756977920e-01  8.4772884892217581e-01  8.4554555568576750e-01  8.4436963454799996e-01  8.4171933869457238e-01  8.4367787601871946e-01  8.4378791843162759e-01  8.4276439258202274e-01  8.3983726880565690e-01  8.4343259471206711e-01  8.5204138730350087e-01  8.6352644449312255e-01  8.7895100427851536e-01  8.9775583414839333e-01  9.1545651559057351e-01  8.6365639461302768e-01  9.7865035686033774e-01  9.8782527034807877e-01  9.8460498819053632e-01  9.8022800539245836e-01  9.7529031427422130e-01  9.7041244155526885e-01  9.6622069418046319e-01  9.6298780045446375e-01  9.5899835084005136e-01  9.5603983440321083e-01  9.5224954391328276e-01  9.4584887135330253e-01  9.3958648889821272e-01  9.3270374152352475e-01  9.2526259984194625e-01  9.2144933127824180e-01  9.2120315790063545e-01  9.1881888945106105e-01  9.1328926235426733e-01  9.0457796209851238e-01  8.9526176407108227e-01  8.8862374576958070e-01  8.8653487387649399e-01  8.8258311225881203e-01  8.8531224559458366e-01  8.8304951481087735e-01  8.8278296673710122e-01  8.7756053770680131e-01  8.7392202826890120e-01  8.7047920425439063e-01  8.6811525368699560e-01  8.6735738689760178e-01  8.6618004054721753e-01  8.6450280756049491e-01  8.6723198574791727e-01  8.7564130832402065e-01  8.8600025151806050e-01  9.0032262413580422e-01  9.1914740767923908e-01  9.3352495964762150e-01  8.9574035665094942e-01  9.7237072255807444e-01  9.8559629624605649e-01  9.8263680502774353e-01  9.7879810232626585e-01  9.7450733697006020e-01  9.7034158079937038e-01  9.6690747193344251e-01  9.6449762315981058e-01  9.6223514847486891e-01  9.5986959077303335e-01  9.5746808838773023e-01  9.5368459936073136e-01  9.4901836630879743e-01  9.4454142803448782e-01  9.3913969285465548e-01  9.3433148239899133e-01  9.3226034598104934e-01  9.3096057338063121e-01  9.2758556537063497e-01  9.2021453973365686e-01  9.1162795600564883e-01  9.0273121420232971e-01  8.9733365563918666e-01  8.9524606528643857e-01  8.8945647903114522e-01  8.8586147302695806e-01  8.7904114828664015e-01  8.7043821155684153e-01  8.6174043739594375e-01  8.5323440577875898e-01  8.5314611024576403e-01  8.4851948913430131e-01  8.4391380813028671e-01  8.3811831107367218e-01  8.3993795222587897e-01  8.4202858160722616e-01  8.5061481792091009e-01  8.6542085902261567e-01  8.8835042170011491e-01  9.1034479974212545e-01  8.7655768815302249e-01  9.3795273248469768e-01  9.7176742974367902e-01  9.6939367312574565e-01  9.6691282296220415e-01  9.6428616653403021e-01  9.6179814049326029e-01  9.5942383122037567e-01  9.5812462560467337e-01  9.5688179333486389e-01  9.5486483645895237e-01  9.5265160230619828e-01  9.5112166053210545e-01  9.4763565769503966e-01  9.4442351527614743e-01  9.3834300203602339e-01  9.3008602087718650e-01  9.2482563939364981e-01  9.1874643559136837e-01  9.1569837083707140e-01  9.1052953859247154e-01  8.9848125797443112e-01  8.8978595196504096e-01  8.8246234069019502e-01  8.7571609485469670e-01  8.6481581168480137e-01  8.5308581455359245e-01  8.4332937732998292e-01  8.2871498507838148e-01  8.0726014290274117e-01  7.9000648507651527e-01  7.8397288972052148e-01  7.6803508571955603e-01  7.4827032811648164e-01  7.3858294037339633e-01  7.3094523956460278e-01  7.3281359250316946e-01  7.2149264570407423e-01  7.1444823274509350e-01  7.2710789791126995e-01  7.5520144901834618e-01  7.5672528755821644e-01  4.3844888496084156e-01  8.2294889594442067e-01  8.8442240478814682e-01  9.0834773395755264e-01  9.2162639573755267e-01  9.2856035289525973e-01  9.3206489577359020e-01  9.3355752060342057e-01  9.3449236948494729e-01  9.3487068570545873e-01  9.3356471848217781e-01  9.3361083619339535e-01  9.3292091427603863e-01  9.2939684839558512e-01  9.2188250563977603e-01  9.0874584465009800e-01  8.8983970612445140e-01  8.7262517845401355e-01  8.7044706419872808e-01  8.6947807303468083e-01  8.6285846664206300e-01  8.5104751301661874e-01  8.3069433115861224e-01  8.0793992036928863e-01  7.7488353019531164e-01  7.3295464667747667e-01  6.9935011032353678e-01  6.5696355753579927e-01  6.1408448494842649e-01  5.6135612732591256e-01  5.2063716652591818e-01  4.7939369706536189e-01  4.3760228605264756e-01  4.1175477154865853e-01  3.7532221776690833e-01  3.4832006271666432e-01  3.1816938065483191e-01  2.9149712924596438e-01  2.4845672713982825e-01  1.8420534376353775e-01  2.6654869597945929e-01  1.3020512468125112e-01  1.2098965180451951e-01  3.3291482113838988e-01  5.6049113875699308e-01  6.9129454545450419e-01  7.6849545881021186e-01  8.1580529518494160e-01  8.3414200911077607e-01  8.4705669214702173e-01  8.5248893447069929e-01  8.6066776459055583e-01  8.7090027846912299e-01  8.7940813925575356e-01  8.8685251409840415e-01  8.8135093218448501e-01  8.7423108072553413e-01  8.6280005845794872e-01  8.5189659140754026e-01  8.3625804466522968e-01  8.2222472792474766e-01  8.0682679287857662e-01  7.6765073186711630e-01  6.9158738382552731e-01  6.2583015337041892e-01  5.4705857203996844e-01  4.8267168630634422e-01  4.2195469914341177e-01  3.6908216982434905e-01  3.2791778488340551e-01  2.8524409098006104e-01  2.4658400681040549e-01  2.1408489530118724e-01  1.8880504983616725e-01  1.6585220349459046e-01  1.4426886375501413e-01  1.2276160316068942e-01  1.0627853021020461e-01  9.3534312669520253e-02  8.0574046031711935e-02  7.1122055574137602e-02  1.2275787701988054e-01  1.2668256179658574e-01  7.5002969929425151e-02  1.1128276863430292e-01  1.6941073198180390e-01  2.1787583551441153e-01  2.9589903295060654e-01  3.9869431958564949e-01  4.7806834115784586e-01  5.2556203955201242e-01  5.5451424000229732e-01  5.7710118644247166e-01  6.1101091107284655e-01  6.4315136998573574e-01  6.8913515335184505e-01  7.1724691426869891e-01  7.3312874760553481e-01  7.4679019096708910e-01  7.5240875204283375e-01  7.6411851846916135e-01  7.4271157477459127e-01  6.6643265615064817e-01  5.7234942034095859e-01  4.8262027998890628e-01  4.1983026998702100e-01  3.5870994875806361e-01  3.1397555952981993e-01  2.7923045232258670e-01  2.4539416190544894e-01  2.1753799193294193e-01  1.8060325232225796e-01  1.5843784043067172e-01  1.4115936639557095e-01  1.2544117128683493e-01  1.1210882457653615e-01  9.6097067885160634e-02  8.5292378152831666e-02  7.6412646564832681e-02  6.9793096304288038e-02  6.5492093651931357e-02  6.2830538837495412e-02  1.2014908324861424e-01  1.2984800400692098e-01  7.5115520805325464e-02  8.7945715313882358e-02  1.0336339352545997e-01  1.1730456958144952e-01  1.3985634762439575e-01  1.4486554611050645e-01  1.5111679888789786e-01  1.6215116203541036e-01  1.8314977424861772e-01  2.1410983722481508e-01  2.6105890751880989e-01  3.3231704597803324e-01  3.9149540894958101e-01  4.4994654246668853e-01  4.7833681633971048e-01  5.4181381620522284e-01  5.7311932297056134e-01  5.8950116416172071e-01  5.6540893376025692e-01  4.9045643504467756e-01  4.1940988419995945e-01  3.7739781782284160e-01  3.5841917263594503e-01  3.3399490291910416e-01  2.9887011033592903e-01  2.6330822854583885e-01  2.2759235036466544e-01  2.0220459773837324e-01  1.7067236588243337e-01  1.5069037989868103e-01  1.3318565370062369e-01  1.1649724967407694e-01  1.0410212523603815e-01  9.2188605627486597e-02  8.2951260699430762e-02  7.4445483191821149e-02  7.0191016814672477e-02  6.6936846333982128e-02  6.5028027254145138e-02  1.2329351503967485e-01  1.3146120211798462e-01  7.5961802985534538e-02  8.4304317842958845e-02  9.1601758967965477e-02  9.6334991164728642e-02  1.0087911747981804e-01  1.1366529998410116e-01  1.2162184515421014e-01  1.3611650741859252e-01  1.4876308946055067e-01  1.8492440394499615e-01  1.7400941545380325e-01  9.6283733906673108e-02  1.2660983790322122e-01  2.2794697586276472e-01  2.4761242772424044e-01  3.0976205212509494e-01  3.4868312683501329e-01  3.6342374951444595e-01  3.6781816466875822e-01  3.6792683059701464e-01  3.7209258440774712e-01  3.8551354857019521e-01  3.9359280208000191e-01  3.6445852581853055e-01  3.1714637149271707e-01  2.7760498193230559e-01  2.3445554647385322e-01  2.0595912077828107e-01  1.8106257317352575e-01  1.5381072314353328e-01  1.3595133714672841e-01  1.1642467724135674e-01  1.0370040156830304e-01  9.3571615470859848e-02  8.5073904058221711e-02  7.6927431121710618e-02  7.2906878309184575e-02  7.1295552773909088e-02  6.8182014899794932e-02  1.2628804042421132e-01  1.3203643935868356e-01  7.7273923509088849e-02  8.5563192968268517e-02  8.9400287824430935e-02  9.0460936645323606e-02  9.1047945409149220e-02  9.4503880765830633e-02  9.7933716617763927e-02  1.0691478406899593e-01  1.2302700892516688e-01  1.2950821960764780e-01  1.2937672552537727e-01  1.3942611039251951e-01  1.4989592861804660e-01  1.5277391096138720e-01  1.5425043187780729e-01  1.7586382518284388e-01  1.9981558942882355e-01  2.3773312224474372e-01  2.8431611837710058e-01  3.3271954731336040e-01  3.7984932584284870e-01  4.1670937220757054e-01  4.2512734980880063e-01  3.9163886620288002e-01  3.4474409608698359e-01  3.0860885059178905e-01  2.6086675959834693e-01  2.2293138326151818e-01  1.9619500706073784e-01  1.6879936895557526e-01  1.4622007154565511e-01  1.2463027626874532e-01  1.1340862042653180e-01  1.0030817291173283e-01  8.7713444100056964e-02  8.1318421838580679e-02  7.8221582918303112e-02  7.7065901496293665e-02  7.2550029214546910e-02  1.2920890950377933e-01  1.3130481158247090e-01  7.5764865543045776e-02  8.3040564412041148e-02  8.6101557233678946e-02  8.6860478252930889e-02  8.7480130000809453e-02  8.9305791617214900e-02  9.1485464566157859e-02  9.2955093035631833e-02  9.6143306279492025e-02  9.8895999906363302e-02  9.8588447543391064e-02  9.8438983241085964e-02  1.0050681575424987e-01  1.0516282724408139e-01  1.1318544006583109e-01  1.3421851537350771e-01  1.6267806994599324e-01  2.0591051486767231e-01  2.5893557682863205e-01  3.2000639545940368e-01  3.7733577672654367e-01  4.1386618265458619e-01  4.2079868775697093e-01  3.9318784278447766e-01  3.6152696239459670e-01  3.3033260510645496e-01  2.8339677931972340e-01  2.4585140146578563e-01  2.1310861002092960e-01  1.8020841029107570e-01  1.5879047230731264e-01  1.3377360974072749e-01  1.1869214253523998e-01  1.0637001039883272e-01  9.9132159193344796e-02  8.9521615980661357e-02  8.6319470311205640e-02  8.3131749156680521e-02  7.6497832924034337e-02  1.3301795004281292e-01  1.3113828665772947e-01  7.4519461430922460e-02  7.9986917553968431e-02  8.4062764122361397e-02  8.4645620963631624e-02  8.5772727661441187e-02  8.7236545184120134e-02  8.8626295535356350e-02  9.095152363