<?xml version="1.0"?>
<VTKFile type="UnstructuredGrid"  version="0.1"  >
<UnstructuredGrid>
<Piece  NumberOfPoints="1681" NumberOfCells="3200">
<Points>
<DataArray  type="Float64"  NumberOfComponents="3"  format="ascii">0 0 0  0.025 0 0  0.05 0 0  0.075 0 0  0.1 0 0  0.125 0 0  0.15 0 0  0.175 0 0  0.2 0 0  0.225 0 0  0.25 0 0  0.275 0 0  0.3 0 0  0.325 0 0  0.35 0 0  0.375 0 0  0.4 0 0  0.425 0 0  0.45 0 0  0.475 0 0  0.5 0 0  0.525 0 0  0.55 0 0  0.575 0 0  0.6 0 0  0.625 0 0  0.65 0 0  0.675 0 0  0.7 0 0  0.725 0 0  0.75 0 0  0.775 0 0  0.8 0 0  0.825 0 0  0.85 0 0  0.875 0 0  0.9 0 0  0.925 0 0  0.95 0 0  0.975 0 0  1 0 0  0 0.025 0  0.025 0.025 0  0.05 0.025 0  0.075 0.025 0  0.1 0.025 0  0.125 0.025 0  0.15 0.025 0  0.175 0.025 0  0.2 0.025 0  0.225 0.025 0  0.25 0.025 0  0.275 0.025 0  0.3 0.025 0  0.325 0.025 0  0.35 0.025 0  0.375 0.025 0  0.4 0.025 0  0.425 0.025 0  0.45 0.025 0  0.475 0.025 0  0.5 0.025 0  0.525 0.025 0  0.55 0.025 0  0.575 0.025 0  0.6 0.025 0  0.625 0.025 0  0.65 0.025 0  0.675 0.025 0  0.7 0.025 0  0.725 0.025 0  0.75 0.025 0  0.775 0.025 0  0.8 0.025 0  0.825 0.025 0  0.85 0.025 0  0.875 0.025 0  0.9 0.025 0  0.925 0.025 0  0.95 0.025 0  0.975 0.025 0  1 0.025 0  0 0.05 0  0.025 0.05 0  0.05 0.05 0  0.075 0.05 0  0.1 0.05 0  0.125 0.05 0  0.15 0.05 0  0.175 0.05 0  0.2 0.05 0  0.225 0.05 0  0.25 0.05 0  0.275 0.05 0  0.3 0.05 0  0.325 0.05 0  0.35 0.05 0  0.375 0.05 0  0.4 0.05 0  0.425 0.05 0  0.45 0.05 0  0.475 0.05 0  0.5 0.05 0  0.525 0.05 0  0.55 0.05 0  0.575 0.05 0  0.6 0.05 0  0.625 0.05 0  0.65 0.05 0  0.675 0.05 0  0.7 0.05 0  0.725 0.05 0  0.75 0.05 0  0.775 0.05 0  0.8 0.05 0  0.825 0.05 0  0.85 0.05 0  0.875 0.05 0  0.9 0.05 0  0.925 0.05 0  0.95 0.05 0  0.975 0.05 0  1 0.05 0  0 0.075 0  0.025 0.075 0  0.05 0.075 0  0.075 0.075 0  0.1 0.075 0  0.125 0.075 0  0.15 0.075 0  0.175 0.075 0  0.2 0.075 0  0.225 0.075 0  0.25 0.075 0  0.275 0.075 0  0.3 0.075 0  0.325 0.075 0  0.35 0.075 0  0.375 0.075 0  0.4 0.075 0  0.425 0.075 0  0.45 0.075 0  0.475 0.075 0  0.5 0.075 0  0.525 0.075 0  0.55 0.075 0  0.575 0.075 0  0.6 0.075 0  0.625 0.075 0  0.65 0.075 0  0.675 0.075 0  0.7 0.075 0  0.725 0.075 0  0.75 0.075 0  0.775 0.075 0  0.8 0.075 0  0.825 0.075 0  0.85 0.075 0  0.875 0.075 0  0.9 0.075 0  0.925 0.075 0  0.95 0.075 0  0.975 0.075 0  1 0.075 0  0 0.1 0  0.025 0.1 0  0.05 0.1 0  0.075 0.1 0  0.1 0.1 0  0.125 0.1 0  0.15 0.1 0  0.175 0.1 0  0.2 0.1 0  0.225 0.1 0  0.25 0.1 0  0.275 0.1 0  0.3 0.1 0  0.325 0.1 0  0.35 0.1 0  0.375 0.1 0  0.4 0.1 0  0.425 0.1 0  0.45 0.1 0  0.475 0.1 0  0.5 0.1 0  0.525 0.1 0  0.55 0.1 0  0.575 0.1 0  0.6 0.1 0  0.625 0.1 0  0.65 0.1 0  0.675 0.1 0  0.7 0.1 0  0.725 0.1 0  0.75 0.1 0  0.775 0.1 0  0.8 0.1 0  0.825 0.1 0  0.85 0.1 0  0.875 0.1 0  0.9 0.1 0  0.925 0.1 0  0.95 0.1 0  0.975 0.1 0  1 0.1 0  0 0.125 0  0.025 0.125 0  0.05 0.125 0  0.075 0.125 0  0.1 0.125 0  0.125 0.125 0  0.15 0.125 0  0.175 0.125 0  0.2 0.125 0  0.225 0.125 0  0.25 0.125 0  0.275 0.125 0  0.3 0.125 0  0.325 0.125 0  0.35 0.125 0  0.375 0.125 0  0.4 0.125 0  0.425 0.125 0  0.45 0.125 0  0.475 0.125 0  0.5 0.125 0  0.525 0.125 0  0.55 0.125 0  0.575 0.125 0  0.6 0.125 0  0.625 0.125 0  0.65 0.125 0  0.675 0.125 0  0.7 0.125 0  0.725 0.125 0  0.75 0.125 0  0.775 0.125 0  0.8 0.125 0  0.825 0.125 0  0.85 0.125 0  0.875 0.125 0  0.9 0.125 0  0.925 0.125 0  0.95 0.125 0  0.975 0.125 0  1 0.125 0  0 0.15 0  0.025 0.15 0  0.05 0.15 0  0.075 0.15 0  0.1 0.15 0  0.125 0.15 0  0.15 0.15 0  0.175 0.15 0  0.2 0.15 0  0.225 0.15 0  0.25 0.15 0  0.275 0.15 0  0.3 0.15 0  0.325 0.15 0  0.35 0.15 0  0.375 0.15 0  0.4 0.15 0  0.425 0.15 0  0.45 0.15 0  0.475 0.15 0  0.5 0.15 0  0.525 0.15 0  0.55 0.15 0  0.575 0.15 0  0.6 0.15 0  0.625 0.15 0  0.65 0.15 0  0.675 0.15 0  0.7 0.15 0  0.725 0.15 0  0.75 0.15 0  0.775 0.15 0  0.8 0.15 0  0.825 0.15 0  0.85 0.15 0  0.875 0.15 0  0.9 0.15 0  0.925 0.15 0  0.95 0.15 0  0.975 0.15 0  1 0.15 0  0 0.175 0  0.025 0.175 0  0.05 0.175 0  0.075 0.175 0  0.1 0.175 0  0.125 0.175 0  0.15 0.175 0  0.175 0.175 0  0.2 0.175 0  0.225 0.175 0  0.25 0.175 0  0.275 0.175 0  0.3 0.175 0  0.325 0.175 0  0.35 0.175 0  0.375 0.175 0  0.4 0.175 0  0.425 0.175 0  0.45 0.175 0  0.475 0.175 0  0.5 0.175 0  0.525 0.175 0  0.55 0.175 0  0.575 0.175 0  0.6 0.175 0  0.625 0.175 0  0.65 0.175 0  0.675 0.175 0  0.7 0.175 0  0.725 0.175 0  0.75 0.175 0  0.775 0.175 0  0.8 0.175 0  0.825 0.175 0  0.85 0.175 0  0.875 0.175 0  0.9 0.175 0  0.925 0.175 0  0.95 0.175 0  0.975 0.175 0  1 0.175 0  0 0.2 0  0.025 0.2 0  0.05 0.2 0  0.075 0.2 0  0.1 0.2 0  0.125 0.2 0  0.15 0.2 0  0.175 0.2 0  0.2 0.2 0  0.225 0.2 0  0.25 0.2 0  0.275 0.2 0  0.3 0.2 0  0.325 0.2 0  0.35 0.2 0  0.375 0.2 0  0.4 0.2 0  0.425 0.2 0  0.45 0.2 0  0.475 0.2 0  0.5 0.2 0  0.525 0.2 0  0.55 0.2 0  0.575 0.2 0  0.6 0.2 0  0.625 0.2 0  0.65 0.2 0  0.675 0.2 0  0.7 0.2 0  0.725 0.2 0  0.75 0.2 0  0.775 0.2 0  0.8 0.2 0  0.825 0.2 0  0.85 0.2 0  0.875 0.2 0  0.9 0.2 0  0.925 0.2 0  0.95 0.2 0  0.975 0.2 0  1 0.2 0  0 0.225 0  0.025 0.225 0  0.05 0.225 0  0.075 0.225 0  0.1 0.225 0  0.125 0.225 0  0.15 0.225 0  0.175 0.225 0  0.2 0.225 0  0.225 0.225 0  0.25 0.225 0  0.275 0.225 0  0.3 0.225 0  0.325 0.225 0  0.35 0.225 0  0.375 0.225 0  0.4 0.225 0  0.425 0.225 0  0.45 0.225 0  0.475 0.225 0  0.5 0.225 0  0.525 0.225 0  0.55 0.225 0  0.575 0.225 0  0.6 0.225 0  0.625 0.225 0  0.65 0.225 0  0.675 0.225 0  0.7 0.225 0  0.725 0.225 0  0.75 0.225 0  0.775 0.225 0  0.8 0.225 0  0.825 0.225 0  0.85 0.225 0  0.875 0.225 0  0.9 0.225 0  0.925 0.225 0  0.95 0.225 0  0.975 0.225 0  1 0.225 0  0 0.25 0  0.025 0.25 0  0.05 0.25 0  0.075 0.25 0  0.1 0.25 0  0.125 0.25 0  0.15 0.25 0  0.175 0.25 0  0.2 0.25 0  0.225 0.25 0  0.25 0.25 0  0.275 0.25 0  0.3 0.25 0  0.325 0.25 0  0.35 0.25 0  0.375 0.25 0  0.4 0.25 0  0.425 0.25 0  0.45 0.25 0  0.475 0.25 0  0.5 0.25 0  0.525 0.25 0  0.55 0.25 0  0.575 0.25 0  0.6 0.25 0  0.625 0.25 0  0.65 0.25 0  0.675 0.25 0  0.7 0.25 0  0.725 0.25 0  0.75 0.25 0  0.775 0.25 0  0.8 0.25 0  0.825 0.25 0  0.85 0.25 0  0.875 0.25 0  0.9 0.25 0  0.925 0.25 0  0.95 0.25 0  0.975 0.25 0  1 0.25 0  0 0.275 0  0.025 0.275 0  0.05 0.275 0  0.075 0.275 0  0.1 0.275 0  0.125 0.275 0  0.15 0.275 0  0.175 0.275 0  0.2 0.275 0  0.225 0.275 0  0.25 0.275 0  0.275 0.275 0  0.3 0.275 0  0.325 0.275 0  0.35 0.275 0  0.375 0.275 0  0.4 0.275 0  0.425 0.275 0  0.45 0.275 0  0.475 0.275 0  0.5 0.275 0  0.525 0.275 0  0.55 0.275 0  0.575 0.275 0  0.6 0.275 0  0.625 0.275 0  0.65 0.275 0  0.675 0.275 0  0.7 0.275 0  0.725 0.275 0  0.75 0.275 0  0.775 0.275 0  0.8 0.275 0  0.825 0.275 0  0.85 0.275 0  0.875 0.275 0  0.9 0.275 0  0.925 0.275 0  0.95 0.275 0  0.975 0.275 0  1 0.275 0  0 0.3 0  0.025 0.3 0  0.05 0.3 0  0.075 0.3 0  0.1 0.3 0  0.125 0.3 0  0.15 0.3 0  0.175 0.3 0  0.2 0.3 0  0.225 0.3 0  0.25 0.3 0  0.275 0.3 0  0.3 0.3 0  0.325 0.3 0  0.35 0.3 0  0.375 0.3 0  0.4 0.3 0  0.425 0.3 0  0.45 0.3 0  0.475 0.3 0  0.5 0.3 0  0.525 0.3 0  0.55 0.3 0  0.575 0.3 0  0.6 0.3 0  0.625 0.3 0  0.65 0.3 0  0.675 0.3 0  0.7 0.3 0  0.725 0.3 0  0.75 0.3 0  0.775 0.3 0  0.8 0.3 0  0.825 0.3 0  0.85 0.3 0  0.875 0.3 0  0.9 0.3 0  0.925 0.3 0  0.95 0.3 0  0.975 0.3 0  1 0.3 0  0 0.325 0  0.025 0.325 0  0.05 0.325 0  0.075 0.325 0  0.1 0.325 0  0.125 0.325 0  0.15 0.325 0  0.175 0.325 0  0.2 0.325 0  0.225 0.325 0  0.25 0.325 0  0.275 0.325 0  0.3 0.325 0  0.325 0.325 0  0.35 0.325 0  0.375 0.325 0  0.4 0.325 0  0.425 0.325 0  0.45 0.325 0  0.475 0.325 0  0.5 0.325 0  0.525 0.325 0  0.55 0.325 0  0.575 0.325 0  0.6 0.325 0  0.625 0.325 0  0.65 0.325 0  0.675 0.325 0  0.7 0.325 0  0.725 0.325 0  0.75 0.325 0  0.775 0.325 0  0.8 0.325 0  0.825 0.325 0  0.85 0.325 0  0.875 0.325 0  0.9 0.325 0  0.925 0.325 0  0.95 0.325 0  0.975 0.325 0  1 0.325 0  0 0.35 0  0.025 0.35 0  0.05 0.35 0  0.075 0.35 0  0.1 0.35 0  0.125 0.35 0  0.15 0.35 0  0.175 0.35 0  0.2 0.35 0  0.225 0.35 0  0.25 0.35 0  0.275 0.35 0  0.3 0.35 0  0.325 0.35 0  0.35 0.35 0  0.375 0.35 0  0.4 0.35 0  0.425 0.35 0  0.45 0.35 0  0.475 0.35 0  0.5 0.35 0  0.525 0.35 0  0.55 0.35 0  0.575 0.35 0  0.6 0.35 0  0.625 0.35 0  0.65 0.35 0  0.675 0.35 0  0.7 0.35 0  0.725 0.35 0  0.75 0.35 0  0.775 0.35 0  0.8 0.35 0  0.825 0.35 0  0.85 0.35 0  0.875 0.35 0  0.9 0.35 0  0.925 0.35 0  0.95 0.35 0  0.975 0.35 0  1 0.35 0  0 0.375 0  0.025 0.375 0  0.05 0.375 0  0.075 0.375 0  0.1 0.375 0  0.125 0.375 0  0.15 0.375 0  0.175 0.375 0  0.2 0.375 0  0.225 0.375 0  0.25 0.375 0  0.275 0.375 0  0.3 0.375 0  0.325 0.375 0  0.35 0.375 0  0.375 0.375 0  0.4 0.375 0  0.425 0.375 0  0.45 0.375 0  0.475 0.375 0  0.5 0.375 0  0.525 0.375 0  0.55 0.375 0  0.575 0.375 0  0.6 0.375 0  0.625 0.375 0  0.65 0.375 0  0.675 0.375 0  0.7 0.375 0  0.725 0.375 0  0.75 0.375 0  0.775 0.375 0  0.8 0.375 0  0.825 0.375 0  0.85 0.375 0  0.875 0.375 0  0.9 0.375 0  0.925 0.375 0  0.95 0.375 0  0.975 0.375 0  1 0.375 0  0 0.4 0  0.025 0.4 0  0.05 0.4 0  0.075 0.4 0  0.1 0.4 0  0.125 0.4 0  0.15 0.4 0  0.175 0.4 0  0.2 0.4 0  0.225 0.4 0  0.25 0.4 0  0.275 0.4 0  0.3 0.4 0  0.325 0.4 0  0.35 0.4 0  0.375 0.4 0  0.4 0.4 0  0.425 0.4 0  0.45 0.4 0  0.475 0.4 0  0.5 0.4 0  0.525 0.4 0  0.55 0.4 0  0.575 0.4 0  0.6 0.4 0  0.625 0.4 0  0.65 0.4 0  0.675 0.4 0  0.7 0.4 0  0.725 0.4 0  0.75 0.4 0  0.775 0.4 0  0.8 0.4 0  0.825 0.4 0  0.85 0.4 0  0.875 0.4 0  0.9 0.4 0  0.925 0.4 0  0.95 0.4 0  0.975 0.4 0  1 0.4 0  0 0.425 0  0.025 0.425 0  0.05 0.425 0  0.075 0.425 0  0.1 0.425 0  0.125 0.425 0  0.15 0.425 0  0.175 0.425 0  0.2 0.425 0  0.225 0.425 0  0.25 0.425 0  0.275 0.425 0  0.3 0.425 0  0.325 0.425 0  0.35 0.425 0  0.375 0.425 0  0.4 0.425 0  0.425 0.425 0  0.45 0.425 0  0.475 0.425 0  0.5 0.425 0  0.525 0.425 0  0.55 0.425 0  0.575 0.425 0  0.6 0.425 0  0.625 0.425 0  0.65 0.425 0  0.675 0.425 0  0.7 0.425 0  0.725 0.425 0  0.75 0.425 0  0.775 0.425 0  0.8 0.425 0  0.825 0.425 0  0.85 0.425 0  0.875 0.425 0  0.9 0.425 0  0.925 0.425 0  0.95 0.425 0  0.975 0.425 0  1 0.425 0  0 0.45 0  0.02
[...]
<PointData  Scalars="ControlVisualisation"> 
<DataArray  type="Float64"  Name="ControlVisualisation"  format="ascii">1.8592607802919389e-01  1.2946477605666726e-01  1.2962601161119233e-01  1.2996080079723235e-01  1.3045500568564655e-01  1.3106503536049027e-01  1.3173450103168535e-01  1.3241577495127643e-01  1.3307965504126704e-01  1.3371296695752710e-01  1.3431142260163823e-01  1.3487335153554805e-01  1.3539657137112171e-01  1.3587816336214326e-01  1.3631543035410265e-01  1.3670764078570133e-01  1.3705726926364609e-01  1.3736905872925731e-01  1.3764784753482998e-01  1.3789538467668425e-01  1.3810751020376480e-01  1.3827330258675835e-01  1.3837663374966794e-01  1.3839963184704032e-01  1.3832652651304134e-01  1.3814715506442582e-01  1.3785832346307403e-01  1.3746301460491711e-01  1.3696796407690548e-01  1.3638127001571382e-01  1.3571049741183602e-01  1.3496220395486216e-01  1.3414304224759205e-01  1.3326369330471910e-01  1.3234691318628816e-01  1.3143821257777163e-01  1.3061153937912337e-01  1.2995868605885313e-01  1.2955750246880129e-01  1.2942999826856474e-01  2.9915819474291117e-01  1.2946188137561990e-01  6.7785291732780834e-02  6.8212379811929957e-02  6.9038719530671810e-02  7.0285754115733040e-02  7.1883983831290521e-02  7.3719909858739996e-02  7.5680671601916188e-02  7.7679430720643927e-02  7.9659743537701416e-02  8.1586601398294087e-02  8.3435052000303045e-02  8.5183439260974367e-02  8.6812450930998028e-02  8.8307167147359950e-02  8.9662020221393787e-02  9.0883376786548856e-02  9.1987595925888288e-02  9.2992491554908061e-02  9.3905479670235839e-02  9.4711631696953694e-02  9.5368799354425951e-02  9.5811880882900560e-02  9.5966990423259263e-02  9.5769110381168088e-02  9.5178736955394458e-02  9.4189986859755437e-02  9.2828004295371011e-02  9.1139286591065086e-02  8.9178472825079139e-02  8.6997725114092594e-02  8.4640297839265480e-02  8.2140197135936399e-02  7.9530841716483128e-02  7.6866087247522585e-02  7.4247386566756307e-02  7.1842387814558026e-02  6.9869601633663306e-02  6.8520661056713186e-02  6.7789966526272616e-02  1.2942964160620193e-01  1.2958708432612751e-01  6.8172989655383112e-02  6.9047629581597825e-02  7.0484188194317801e-02  7.2669174130241224e-02  7.5521225828039870e-02  7.8876636141011786e-02  8.2560311732238129e-02  8.6425536570210376e-02  9.0365603152147103e-02  9.4305568955185048e-02  9.8187558614412168e-02  1.0195931547115017e-01  1.0557109734211442e-01  1.0897771135976973e-01  1.1214780705289761e-01  1.1507029443516967e-01  1.1775190732209409e-01  1.2020138311697177e-01  1.2240486619461921e-01  1.2430312693171808e-01  1.2578534690202611e-01  1.2670452425024134e-01  1.2690976712760543e-01  1.2628157616338656e-01  1.2476000940070098e-01  1.2235723711738529e-01  1.1915447156899472e-01  1.1528739651596327e-01  1.1092087519719500e-01  1.0621741815129834e-01  1.0130948849291564e-01  9.6284278617013816e-02  9.1195521816423306e-02  8.6111758694277563e-02  8.1180521242856810e-02  7.6679429572034025e-02  7.2978647510538258e-02  7.0367447406665659e-02  6.8525620564058018e-02  1.2955086934767990e-01  1.2978420708089761e-01  6.8861695094022374e-02  7.0440376976509289e-02  7.2612098268636141e-02  7.5727260236871985e-02  7.9666297871436892e-02  8.4209812285060567e-02  8.9148079521105109e-02  9.4317107414597395e-02  9.9603818648289627e-02  1.0493161233675838e-01  1.1023909264002849e-01  1.1546455860070641e-01  1.2053793978493446e-01  1.2537779547855427e-01  1.2989778049939901e-01  1.3401717283032843e-01  1.3767199434615759e-01  1.4081519764125516e-01  1.4340290864484892e-01  1.4538866325348515e-01  1.4672072575085210e-01  1.4734641381692168e-01  1.4720666047998407e-01  1.4623417265715735e-01  1.4435776454180310e-01  1.4151376471307400e-01  1.3766644587588886e-01  1.3284662399960781e-01  1.2719175976423300e-01  1.2094490372329814e-01  1.1439295021107938e-01  1.0777061434269494e-01  1.0119939496201330e-01  9.4708466453217052e-02  8.8351234738334894e-02  8.2368989371465265e-02  7.7212987985694315e-02  7.3352910489486139e-02  6.9963152001058418e-02  1.2993347889551712e-01  1.2989672251229717e-01  6.9740609624224334e-02  7.3347748727277368e-02  7.7536566458453249e-02  8.2738009796918505e-02  8.8692693865937394e-02  9.5138621495696726e-02  1.0186817655798829e-01  1.0872269878313741e-01  1.1558165598452291e-01  1.2236371559831556e-01  1.2902339642563493e-01  1.3551862587324010e-01  1.4173941998707401e-01  1.4745451785902339e-01  1.5235632036338334e-01  1.5619100882567646e-01  1.5887681850666949e-01  1.6052376867556037e-01  1.6136012617509513e-01  1.6164764384933980e-01  1.6162327428254231e-01  1.6145044437888870e-01  1.6117407484197671e-01  1.6071513370128057e-01  1.5991294694992816e-01  1.5856765435314982e-01  1.5644185118131837e-01  1.5323995145058172e-01  1.4865937231824375e-01  1.4255521684894734e-01  1.3511297306334052e-01  1.2682210862578253e-01  1.1823228402433054e-01  1.0969066721677152e-01  1.0130826310248425e-01  9.3162391891478333e-02  8.5595089737880159e-02  7.9282147761228938e-02  7.2573223132269757e-02  1.3060354613798217e-01  1.3052222130560101e-01  7.3198304210277593e-02  8.4176435551552325e-02  9.5884521130968833e-02  1.0791782788992617e-01  1.1947157300919507e-01  1.3009598510868992e-01  1.3953540817716173e-01  1.4772494791418575e-01  1.5490562542522143e-01  1.6163417003796351e-01  1.6843211933625565e-01  1.7524906771015369e-01  1.8137746851924361e-01  1.8596490381348135e-01  1.8856694077322975e-01  1.8936229818993736e-01  1.8907593973316761e-01  1.8864237503851125e-01  1.8876601018118705e-01  1.8968642602261174e-01  1.9126418453749788e-01  1.9320214672942729e-01  1.9518204362836178e-01  1.9691527655209140e-01  1.9819183003139393e-01  1.9892975495952334e-01  1.9914523163348982e-01  1.9879091942143376e-01  1.9750386359604216e-01  1.9446158914878706e-01  1.8863669467845612e-01  1.7940125447738436e-01  1.6693759917309189e-01  1.5205120189900023e-01  1.3601681256967399e-01  1.2024092940541187e-01  1.0551677598986722e-01  9.2148743032872474e-02  7.6905305351668188e-02  1.3121315276244561e-01  1.4424892794048949e-01  1.0105484094650213e-01  1.7605050369226302e-01  2.2504424250948274e-01  2.5841092830197909e-01  2.7695342431599296e-01  2.7110383389342052e-01  2.4887716583980909e-01  2.2241351955748753e-01  2.0046369016369148e-01  1.8509606977587656e-01  1.7568773517511993e-01  1.7189772092736430e-01  1.7266372104731983e-01  1.7492918848457459e-01  1.7490864540333742e-01  1.7068764177383483e-01  1.6360266066852094e-01  1.5725639601094488e-01  1.5509200861520520e-01  1.5848340220588528e-01  1.6640584416557791e-01  1.7633229241029558e-01  1.8543654342773522e-01  1.9158288473925938e-01  1.9397329496502147e-01  1.9336194415464789e-01  1.9172803483571424e-01  1.9149145141486057e-01  1.9469757407064106e-01  2.0263435196246612e-01  2.1604508640585263e-01  2.3514398121015623e-01  2.5750456209256400e-01  2.7335852669278138e-01  2.6650850692542033e-01  2.3351036042755965e-01  1.8995448031309708e-01  1.4531531146508722e-01  9.7419852527734677e-02  1.3497907214442553e-01  6.2595591027112041e-01  7.0788431448235811e-01  8.2263040957416611e-01  8.1378761689850965e-01  7.7375398349272295e-01  7.1126692854241713e-01  6.3737303305355963e-01  5.7546957846171909e-01  5.3497170459244958e-01  5.0523193509619058e-01  4.7513490938316033e-01  4.4206125934666929e-01  4.1217497539318276e-01  3.9392158265947519e-01  3.9008413144154441e-01  3.9609956415603764e-01  4.0474085162881707e-01  4.1230345925685707e-01  4.2049784431359916e-01  4.3297994231177950e-01  4.5116533543698872e-01  4.7287592810281048e-01  4.9360453321370212e-01  5.0882950958065487e-01  5.1596234215241366e-01  5.1512617411400852e-01  5.0861976846230461e-01  4.9952296153188286e-01  4.9030200728189094e-01  4.8227581344351111e-01  4.7594785663438943e-01  4.7106869876640400e-01  4.6530272046748872e-01  4.5273128568209642e-01  4.2630460592853203e-01  3.8527303802989105e-01  3.3951276120373047e-01  2.9952937907332944e-01  2.7565197095733979e-01  2.7270150032645490e-01  2.4090339597392271e-01  9.5044669310339669e-01  9.6368980502092694e-01  9.5483582092518737e-01  9.4333898772977409e-01  9.3109312620433171e-01  9.1793193382607008e-01  8.9980340527869196e-01  8.7190104033422322e-01  8.3360019564949250e-01  7.8988141795031785e-01  7.4703506853636248e-01  7.0954738623638525e-01  6.8041638246205116e-01  6.6185039056005401e-01  6.5455809609021032e-01  6.5591886484627404e-01  6.6078307124576330e-01  6.6607192059459597e-01  6.7240287014220568e-01  6.8069098934510563e-01  6.9017241427976295e-01  6.9938885536081252e-01  7.0709107160271012e-01  7.1242720844570151e-01  7.1496221574414165e-01  7.1461260100190394e-01  7.1160571348767487e-01  7.0656905060810060e-01  7.0062837920360765e-01  6.9525105352785244e-01  6.9177149988785858e-01  6.9086698235188582e-01  6.9278434369402320e-01  6.9812932481300305e-01  7.0703018074933810e-01  7.2144109301338688e-01  7.4089869857605828e-01  7.6338191571119285e-01  7.8969086198180050e-01  8.3807320027759291e-01  7.1349145412007520e-01  9.7212014234366639e-01  9.8233283361225676e-01  9.7620107855560212e-01  9.6755047741327016e-01  9.5704191434219332e-01  9.4703436877510994e-01  9.3906973216773937e-01  9.3026747303647961e-01  9.1758370620756080e-01  9.0045701394664901e-01  8.8033517113088666e-01  8.5941935915369672e-01  8.3970812429444319e-01  8.2303713884240837e-01  8.1075752031902737e-01  8.0276238273525402e-01  7.9785018797209784e-01  7.9558880742670790e-01  7.9600891592677869e-01  7.9800081080731755e-01  8.0024963756010947e-01  8.0212292485735348e-01  8.0295607082610010e-01  8.0208241924747536e-01  7.9913807521732694e-01  7.9412198350584118e-01  7.8765933085486706e-01  7.8113967716257926e-01  7.7631392453922665e-01  7.7471144437320394e-01  7.7730672781567334e-01  7.8421023606197782e-01  7.9468564747901482e-01  8.0809035045599409e-01  8.2506320569710645e-01  8.4638838619718826e-01  8.6827113377413656e-01  8.8649379253648863e-01  9.0285760255006875e-01  9.2183010873699078e-01  8.8211481203758635e-01  9.7552377292284664e-01  9.8586523370173773e-01  9.8137495063623503e-01  9.7452645472080290e-01  9.6547774298682354e-01  9.5572518189420308e-01  9.4842814537165676e-01  9.4390095727251178e-01  9.3849011412626215e-01  9.3005913626079750e-01  9.1866641100910851e-01  9.0537755309385992e-01  8.9164380543590371e-01  8.7891657575062254e-01  8.6835068710824193e-01  8.6040347060812650e-01  8.5454206833465096e-01  8.4944637988956284e-01  8.4358408343767888e-01  8.3660074004792850e-01  8.3030843299183665e-01  8.2636706911876590e-01  8.2387592749672345e-01  8.2076211609370175e-01  8.1579672192573915e-01  8.0878565044952155e-01  8.0040220465593559e-01  7.9206137479411620e-01  7.8550801094401390e-01  7.8243334251789376e-01  7.8431536192701667e-01  7.9173028789097932e-01  8.0336734699968471e-01  8.1749656312704244e-01  8.3619711357579130e-01  8.6109146155421368e-01  8.8545216738070565e-01  9.0352304642398773e-01  9.1810126655510449e-01  9.3463477842917575e-01  9.0585002318515306e-01  9.6872959430138683e-01  9.8333383599468738e-01  9.7918678877883891e-01  9.7298401107458876e-01  9.6486404274713644e-01  9.5596255938425001e-01  9.4900652338707980e-01  9.4556179189524803e-01  9.4292333478673118e-01  9.3809019808536309e-01  9.3025531679601070e-01  9.1989452303598429e-01  9.0811735466334997e-01  8.9622244959867048e-01  8.8524495852345075e-01  8.7582615033906486e-01  8.6812261716050587e-01  8.6098374146518686e-01  8.5202440162226389e-01  8.4063273907515534e-01  8.2960298577265423e-01  8.2141186596589943e-01  8.1485379668985125e-01  8.0726230910676178e-01  7.9737305218803056e-01  7.8515293789254825e-01  7.7102155750602952e-01  7.5575335362126106e-01  7.4055210331801447e-01  7.2724316400980449e-01  7.1834658342760527e-01  7.1668407589029126e-01  7.2459616465035770e-01  7.4173986009402704e-01  7.6564002853538449e-01  7.9901768129221740e-01  8.3824504112569809e-01  8.7123897501957626e-01  8.9584114696201345e-01  9.1800245347508469e-01  8.9190274528207480e-01  9.3675125011130367e-01  9.6954981735593970e-01  9.6633627364823615e-01  9.6161859707130315e-01  9.5498828192821472e-01  9.4781114176810954e-01  9.4240853923082246e-01  9.3985593706438864e-01  9.3814240576864760e-01  9.3457897130943279e-01  9.2793308917865069e-01  9.1816661862860505e-01  9.0605432640831352e-01  8.9285853998128351e-01  8.7976120491667087e-01  8.6746577273174164e-01  8.5572899855818707e-01  8.4251967304877928e-01  8.2560540993152909e-01  8.0556524404480079e-01  7.8586285874329798e-01  7.6794067488113393e-01  7.4956415550550803e-01  7.2953070744417770e-01  7.0759337409045608e-01  6.8257936033120292e-01  6.5468596011418123e-01  6.2667901846526586e-01  6.0180467322212139e-01  5.8201712926806504e-01  5.6784082840478989e-01  5.5898959473844190e-01  5.5462136815539431e-01  5.5153792300971605e-01  5.4425200755401293e-01  5.4118199993672333e-01  5.7565062373118203e-01  6.4729493771182278e-01  7.3886836519347954e-01  8.0549545410540335e-01  7.7760749738808532e-01  4.2847117872185986e-01  8.8171817429219868e-01  9.1685640120509404e-01  9.2618376420422044e-01  9.2748693166412299e-01  9.2591698486021867e-01  9.2434300738719433e-01  9.2350776543095059e-01  9.2213252216459096e-01  9.1835573327889253e-01  9.1094183324096045e-01  8.9948392253715459e-01  8.8442569748666178e-01  8.6699149114614960e-01  8.4865430818543897e-01  8.2994480579170238e-01  8.0930829035690888e-01  7.8489648449854044e-01  7.5437857634477579e-01  7.1619097709527491e-01  6.7984803190711329e-01  6.5535178843584274e-01  6.4336631706796277e-01  6.2757388650252988e-01  5.8894651973148704e-01  5.2839856290198872e-01  4.6311393552579166e-01  4.0996885500584052e-01  3.7580765039922220e-01  3.5816358649559887e-01  3.5076829060244896e-01  3.4774909317792796e-01  3.4492505595427192e-01  3.3983765128457866e-01  3.3086004918131123e-01  3.1375086129844093e-01  2.8623930545572102e-01  2.5820656529387298e-01  2.2932840415083652e-01  2.0132559141420533e-01  3.1381471258115484e-01  1.4205914736109795e-01  1.6672293787846473e-01  3.9600659264199378e-01  7.4176268434809056e-01  8.2778561655807503e-01  8.5962532011995441e-01  8.7379382442238951e-01  8.8010044005538435e-01  8.8095759599937606e-01  8.7638956992587513e-01  8.6583969941034111e-01  8.4892765038373030e-01  8.2599914772344041e-01  7.9872293795957683e-01  7.7050952103782089e-01  7.4620173768220899e-01  7.2668129167335316e-01  6.9553318310780421e-01  6.3643172152027827e-01  5.6808618505638397e-01  5.1683713826905986e-01  4.8700788588646798e-01  4.6339479028673447e-01  4.2949844999501319e-01  3.8431479861261492e-01  3.4196349252432351e-01  3.1343460192678790e-01  2.9468465460498783e-01  2.7753178649178528e-01  2.5895459012527766e-01  2.3925982061829715e-01  2.1941808278923816e-01  2.0015174314713471e-01  1.8181844063382849e-01  1.6462128117754646e-01  1.4873546394807843e-01  1.3388450327256196e-01  1.1905005189719522e-01  1.0320299257099558e-01  8.5041714284121508e-02  1.3909417155946874e-01  1.3376392448159383e-01  9.2393032255429317e-02  1.7995581675505551e-01  1.9640950798420412e-01  3.7271542268612950e-01  5.5594986997573681e-01  6.6791043256497784e-01  7.2655531339554336e-01  7.5125854364352895e-01  7.5409341101563077e-01  7.4027605617379677e-01  7.1212760677204467e-01  6.7263448050414987e-01  6.2960241265256500e-01  5.9517241459256376e-01  5.7071738228100000e-01  5.3830490114399332e-01  4.8454068801087719e-01  4.2214658370832381e-01  3.7879782481587621e-01  3.7214734346711992e-01  3.9596237181598221e-01  4.2197433043046018e-01  4.2046598339769042e-01  3.8562471610217053e-01  3.3577157862077511e-01  2.8834588506268721e-01  2.4869325898411496e-01  2.1648944113192864e-01  1.9042036214823521e-01  1.6928306017990380e-01  1.5196768320627788e-01  1.3744635221617330e-01  1.2491121298316266e-01  1.1384268483783608e-01  1.0390067231004009e-01  9.4755772820861395e-02  8.6205452228707999e-02  7.8696420674467471e-02  7.2092236742468299e-02  1.3022061087423842e-01  1.3401493098025130e-01  8.4703495879485211e-02  1.1661864499821603e-01  1.6723307398514550e-01  1.7486301872263901e-01  1.5594408552547431e-01  2.7991375376440025e-01  3.7582941782650092e-01  4.0804516683494962e-01  4.1603872322979851e-01  4.0245935087694290e-01  3.6793091932098915e-01  3.2359799380734283e-01  2.8541545400648960e-01  2.6607576667157412e-01  2.6693937662164169e-01  2.7473105254155744e-01  2.7930985589441448e-01  2.9131379235259663e-01  3.3102963035022781e-01  4.0250194730013428e-01  4.8042186302815054e-01  5.2049998191727553e-01  4.9169993963744207e-01  4.0895225385944106e-01  3.1875715598876786e-01  2.5050818133107072e-01  2.0593335200751070e-01  1.7702418739272746e-01  1.5699119785829629e-01  1.4183532918273248e-01  1.2940801411235398e-01  1.1863318309644121e-01  1.0899217390423863e-01  1.0021834346380970e-01  9.2159359078663822e-02  8.4784494378533720e-02  7.8355513137636904e-02  7.3519986143747995e-02  6.9870294759437263e-02  1.2942402216169285e-01  1.3410397497628387e-01  8.2797233477770266e-02  1.0190311445745444e-01  1.2389742723322827e-01  1.5437396664174213e-01  1.7451109817075025e-01  1.0679885397345069e-01  5.7140998321798267e-02  8.7159587475932887e-02  9.3625375574155525e-02  6.7138766053233614e-02  2.9341115204099343e-02  5.3931522752825789e-03  1.3418352729926747e-02  5.5890347683682638e-02  1.1541758436522308e-01  1.7298644302956726e-01  2.2744420207105806e-01  2.9413930185059256e-01  3.8498742217022042e-01  4.8831271392092213e-01  5.6521364442434241e-01  5.6931022845430868e-01  4.8828198467571798e-01  3.6702798437514567e-01  2.6531105416207507e-01  2.0529753973976492e-01  1.7512368613870397e-01  1.5790760093653838e-01  1.4470208707385981e-01  1.3276961765491307e-01  1.2183748860521035e-01  1.1201511093922829e-01  1.0320308675872183e-01  9.5215282375045202e-02  8.7955549073423803e-02  8.1511759037213222e-02  7.6196729027359536e-02  7.2417283569737270e-02  6.9517503048101226e-02  1.2924968016360960e-01  1.3417726354073745e-01  8.2330527270460488e-02  9.7381532307145510e-02  1.1009015775942148e-01  1.2604616858736142e-01  1.4506565480480335e-01  1.6381248322779463e-01  1.6987310465815705e-01  1.4225984936310523e-01  9.1154916080013512e-02  5.2276195360303521e-02  3.7457806082102522e-02  4.7154064657817241e-02  7.6536106304788271e-02  1.1509545846208163e-01  1.5455222172273345e-01  1.9529601394605617e-01  2.4736833491364485e-01  3.2226937468406780e-01  4.1761981251356844e-01  5.0781450162321828e-01  5.5113858972831098e-01  5.1753304492752039e-01  4.2051675486180751e-01  3.1021374756408782e-01  2.2814186150369009e-01  1.8270155232553720e-01  1.6217391252383775e-01  1.5214426430307984e-01  1.4289607545153932e-01  1.3193940328165735e-01  1.2092433668303525e-01  1.1112250522489203e-01  1.0256532250628848e-01  9.4912890162026878e-02  8.7998913242064686e-02  8.1933237536075731e-02  7.7011682892968766e-02  7.3499345063412616e-02  7.0329980250662921e-02  1.2953960998265376e-01  1.3411962995784893e-01  8.1810748214548618e-02  9.4757317273028163e-02  1.0345960157722341e-01  1.1339607621879540e-01  1.2510028538431453e-01  1.3848888584091196e-01  1.5277704775894183e-01  1.6650233546628440e-01  1.7813876947918297e-01  1.8720147641721283e-01  1.9424652038389528e-01  1.9985826184968786e-01  2.0397811959576292e-01  2.0638582878582443e-01  2.0914594084369700e-01  2.1954115935791968e-01  2.4861719089022935e-01  3.0282049741815281e-01  3.7350608595535584e-01  4.3380067444765069e-01  4.5153248909757071e-01  4.1520858894325319e-01  3.4615346314870005e-01  2.7724739885737437e-01  2.2390290612838720e-01  1.8355347348457773e-01  1.5601097907188696e-01  1.4488683499027147e-01  1.4118891716856954e-01  1.3390471821119743e-01  1.2379103182902997e-01  1.1415723533969026e-01  1.0573087062047730e-01  9.8148244381328256e-02  9.1191688821333175e-02  8.5014706995747147e-02  7.9966946215286258e-02  7.6264148493992878e-02  7.2086701044215190e-02  1.3016739333817232e-01  1.3395997713193059e-01  8.1157866004010981e-02  9.2682966112435219e-02  9.9178720864726261e-02  1.0597301406586436e-01  1.1373708778259892e-01  1.2280718791922780e-01  1.3313336725150748e-01  1.443880981