<?xml version="1.0"?>
<VTKFile type="UnstructuredGrid"  version="0.1"  >
<UnstructuredGrid>
<Piece  NumberOfPoints="1681" NumberOfCells="3200">
<Points>
<DataArray  type="Float64"  NumberOfComponents="3"  format="ascii">0 0 0  0.025 0 0  0.05 0 0  0.075 0 0  0.1 0 0  0.125 0 0  0.15 0 0  0.175 0 0  0.2 0 0  0.225 0 0  0.25 0 0  0.275 0 0  0.3 0 0  0.325 0 0  0.35 0 0  0.375 0 0  0.4 0 0  0.425 0 0  0.45 0 0  0.475 0 0  0.5 0 0  0.525 0 0  0.55 0 0  0.575 0 0  0.6 0 0  0.625 0 0  0.65 0 0  0.675 0 0  0.7 0 0  0.725 0 0  0.75 0 0  0.775 0 0  0.8 0 0  0.825 0 0  0.85 0 0  0.875 0 0  0.9 0 0  0.925 0 0  0.95 0 0  0.975 0 0  1 0 0  0 0.025 0  0.025 0.025 0  0.05 0.025 0  0.075 0.025 0  0.1 0.025 0  0.125 0.025 0  0.15 0.025 0  0.175 0.025 0  0.2 0.025 0  0.225 0.025 0  0.25 0.025 0  0.275 0.025 0  0.3 0.025 0  0.325 0.025 0  0.35 0.025 0  0.375 0.025 0  0.4 0.025 0  0.425 0.025 0  0.45 0.025 0  0.475 0.025 0  0.5 0.025 0  0.525 0.025 0  0.55 0.025 0  0.575 0.025 0  0.6 0.025 0  0.625 0.025 0  0.65 0.025 0  0.675 0.025 0  0.7 0.025 0  0.725 0.025 0  0.75 0.025 0  0.775 0.025 0  0.8 0.025 0  0.825 0.025 0  0.85 0.025 0  0.875 0.025 0  0.9 0.025 0  0.925 0.025 0  0.95 0.025 0  0.975 0.025 0  1 0.025 0  0 0.05 0  0.025 0.05 0  0.05 0.05 0  0.075 0.05 0  0.1 0.05 0  0.125 0.05 0  0.15 0.05 0  0.175 0.05 0  0.2 0.05 0  0.225 0.05 0  0.25 0.05 0  0.275 0.05 0  0.3 0.05 0  0.325 0.05 0  0.35 0.05 0  0.375 0.05 0  0.4 0.05 0  0.425 0.05 0  0.45 0.05 0  0.475 0.05 0  0.5 0.05 0  0.525 0.05 0  0.55 0.05 0  0.575 0.05 0  0.6 0.05 0  0.625 0.05 0  0.65 0.05 0  0.675 0.05 0  0.7 0.05 0  0.725 0.05 0  0.75 0.05 0  0.775 0.05 0  0.8 0.05 0  0.825 0.05 0  0.85 0.05 0  0.875 0.05 0  0.9 0.05 0  0.925 0.05 0  0.95 0.05 0  0.975 0.05 0  1 0.05 0  0 0.075 0  0.025 0.075 0  0.05 0.075 0  0.075 0.075 0  0.1 0.075 0  0.125 0.075 0  0.15 0.075 0  0.175 0.075 0  0.2 0.075 0  0.225 0.075 0  0.25 0.075 0  0.275 0.075 0  0.3 0.075 0  0.325 0.075 0  0.35 0.075 0  0.375 0.075 0  0.4 0.075 0  0.425 0.075 0  0.45 0.075 0  0.475 0.075 0  0.5 0.075 0  0.525 0.075 0  0.55 0.075 0  0.575 0.075 0  0.6 0.075 0  0.625 0.075 0  0.65 0.075 0  0.675 0.075 0  0.7 0.075 0  0.725 0.075 0  0.75 0.075 0  0.775 0.075 0  0.8 0.075 0  0.825 0.075 0  0.85 0.075 0  0.875 0.075 0  0.9 0.075 0  0.925 0.075 0  0.95 0.075 0  0.975 0.075 0  1 0.075 0  0 0.1 0  0.025 0.1 0  0.05 0.1 0  0.075 0.1 0  0.1 0.1 0  0.125 0.1 0  0.15 0.1 0  0.175 0.1 0  0.2 0.1 0  0.225 0.1 0  0.25 0.1 0  0.275 0.1 0  0.3 0.1 0  0.325 0.1 0  0.35 0.1 0  0.375 0.1 0  0.4 0.1 0  0.425 0.1 0  0.45 0.1 0  0.475 0.1 0  0.5 0.1 0  0.525 0.1 0  0.55 0.1 0  0.575 0.1 0  0.6 0.1 0  0.625 0.1 0  0.65 0.1 0  0.675 0.1 0  0.7 0.1 0  0.725 0.1 0  0.75 0.1 0  0.775 0.1 0  0.8 0.1 0  0.825 0.1 0  0.85 0.1 0  0.875 0.1 0  0.9 0.1 0  0.925 0.1 0  0.95 0.1 0  0.975 0.1 0  1 0.1 0  0 0.125 0  0.025 0.125 0  0.05 0.125 0  0.075 0.125 0  0.1 0.125 0  0.125 0.125 0  0.15 0.125 0  0.175 0.125 0  0.2 0.125 0  0.225 0.125 0  0.25 0.125 0  0.275 0.125 0  0.3 0.125 0  0.325 0.125 0  0.35 0.125 0  0.375 0.125 0  0.4 0.125 0  0.425 0.125 0  0.45 0.125 0  0.475 0.125 0  0.5 0.125 0  0.525 0.125 0  0.55 0.125 0  0.575 0.125 0  0.6 0.125 0  0.625 0.125 0  0.65 0.125 0  0.675 0.125 0  0.7 0.125 0  0.725 0.125 0  0.75 0.125 0  0.775 0.125 0  0.8 0.125 0  0.825 0.125 0  0.85 0.125 0  0.875 0.125 0  0.9 0.125 0  0.925 0.125 0  0.95 0.125 0  0.975 0.125 0  1 0.125 0  0 0.15 0  0.025 0.15 0  0.05 0.15 0  0.075 0.15 0  0.1 0.15 0  0.125 0.15 0  0.15 0.15 0  0.175 0.15 0  0.2 0.15 0  0.225 0.15 0  0.25 0.15 0  0.275 0.15 0  0.3 0.15 0  0.325 0.15 0  0.35 0.15 0  0.375 0.15 0  0.4 0.15 0  0.425 0.15 0  0.45 0.15 0  0.475 0.15 0  0.5 0.15 0  0.525 0.15 0  0.55 0.15 0  0.575 0.15 0  0.6 0.15 0  0.625 0.15 0  0.65 0.15 0  0.675 0.15 0  0.7 0.15 0  0.725 0.15 0  0.75 0.15 0  0.775 0.15 0  0.8 0.15 0  0.825 0.15 0  0.85 0.15 0  0.875 0.15 0  0.9 0.15 0  0.925 0.15 0  0.95 0.15 0  0.975 0.15 0  1 0.15 0  0 0.175 0  0.025 0.175 0  0.05 0.175 0  0.075 0.175 0  0.1 0.175 0  0.125 0.175 0  0.15 0.175 0  0.175 0.175 0  0.2 0.175 0  0.225 0.175 0  0.25 0.175 0  0.275 0.175 0  0.3 0.175 0  0.325 0.175 0  0.35 0.175 0  0.375 0.175 0  0.4 0.175 0  0.425 0.175 0  0.45 0.175 0  0.475 0.175 0  0.5 0.175 0  0.525 0.175 0  0.55 0.175 0  0.575 0.175 0  0.6 0.175 0  0.625 0.175 0  0.65 0.175 0  0.675 0.175 0  0.7 0.175 0  0.725 0.175 0  0.75 0.175 0  0.775 0.175 0  0.8 0.175 0  0.825 0.175 0  0.85 0.175 0  0.875 0.175 0  0.9 0.175 0  0.925 0.175 0  0.95 0.175 0  0.975 0.175 0  1 0.175 0  0 0.2 0  0.025 0.2 0  0.05 0.2 0  0.075 0.2 0  0.1 0.2 0  0.125 0.2 0  0.15 0.2 0  0.175 0.2 0  0.2 0.2 0  0.225 0.2 0  0.25 0.2 0  0.275 0.2 0  0.3 0.2 0  0.325 0.2 0  0.35 0.2 0  0.375 0.2 0  0.4 0.2 0  0.425 0.2 0  0.45 0.2 0  0.475 0.2 0  0.5 0.2 0  0.525 0.2 0  0.55 0.2 0  0.575 0.2 0  0.6 0.2 0  0.625 0.2 0  0.65 0.2 0  0.675 0.2 0  0.7 0.2 0  0.725 0.2 0  0.75 0.2 0  0.775 0.2 0  0.8 0.2 0  0.825 0.2 0  0.85 0.2 0  0.875 0.2 0  0.9 0.2 0  0.925 0.2 0  0.95 0.2 0  0.975 0.2 0  1 0.2 0  0 0.225 0  0.025 0.225 0  0.05 0.225 0  0.075 0.225 0  0.1 0.225 0  0.125 0.225 0  0.15 0.225 0  0.175 0.225 0  0.2 0.225 0  0.225 0.225 0  0.25 0.225 0  0.275 0.225 0  0.3 0.225 0  0.325 0.225 0  0.35 0.225 0  0.375 0.225 0  0.4 0.225 0  0.425 0.225 0  0.45 0.225 0  0.475 0.225 0  0.5 0.225 0  0.525 0.225 0  0.55 0.225 0  0.575 0.225 0  0.6 0.225 0  0.625 0.225 0  0.65 0.225 0  0.675 0.225 0  0.7 0.225 0  0.725 0.225 0  0.75 0.225 0  0.775 0.225 0  0.8 0.225 0  0.825 0.225 0  0.85 0.225 0  0.875 0.225 0  0.9 0.225 0  0.925 0.225 0  0.95 0.225 0  0.975 0.225 0  1 0.225 0  0 0.25 0  0.025 0.25 0  0.05 0.25 0  0.075 0.25 0  0.1 0.25 0  0.125 0.25 0  0.15 0.25 0  0.175 0.25 0  0.2 0.25 0  0.225 0.25 0  0.25 0.25 0  0.275 0.25 0  0.3 0.25 0  0.325 0.25 0  0.35 0.25 0  0.375 0.25 0  0.4 0.25 0  0.425 0.25 0  0.45 0.25 0  0.475 0.25 0  0.5 0.25 0  0.525 0.25 0  0.55 0.25 0  0.575 0.25 0  0.6 0.25 0  0.625 0.25 0  0.65 0.25 0  0.675 0.25 0  0.7 0.25 0  0.725 0.25 0  0.75 0.25 0  0.775 0.25 0  0.8 0.25 0  0.825 0.25 0  0.85 0.25 0  0.875 0.25 0  0.9 0.25 0  0.925 0.25 0  0.95 0.25 0  0.975 0.25 0  1 0.25 0  0 0.275 0  0.025 0.275 0  0.05 0.275 0  0.075 0.275 0  0.1 0.275 0  0.125 0.275 0  0.15 0.275 0  0.175 0.275 0  0.2 0.275 0  0.225 0.275 0  0.25 0.275 0  0.275 0.275 0  0.3 0.275 0  0.325 0.275 0  0.35 0.275 0  0.375 0.275 0  0.4 0.275 0  0.425 0.275 0  0.45 0.275 0  0.475 0.275 0  0.5 0.275 0  0.525 0.275 0  0.55 0.275 0  0.575 0.275 0  0.6 0.275 0  0.625 0.275 0  0.65 0.275 0  0.675 0.275 0  0.7 0.275 0  0.725 0.275 0  0.75 0.275 0  0.775 0.275 0  0.8 0.275 0  0.825 0.275 0  0.85 0.275 0  0.875 0.275 0  0.9 0.275 0  0.925 0.275 0  0.95 0.275 0  0.975 0.275 0  1 0.275 0  0 0.3 0  0.025 0.3 0  0.05 0.3 0  0.075 0.3 0  0.1 0.3 0  0.125 0.3 0  0.15 0.3 0  0.175 0.3 0  0.2 0.3 0  0.225 0.3 0  0.25 0.3 0  0.275 0.3 0  0.3 0.3 0  0.325 0.3 0  0.35 0.3 0  0.375 0.3 0  0.4 0.3 0  0.425 0.3 0  0.45 0.3 0  0.475 0.3 0  0.5 0.3 0  0.525 0.3 0  0.55 0.3 0  0.575 0.3 0  0.6 0.3 0  0.625 0.3 0  0.65 0.3 0  0.675 0.3 0  0.7 0.3 0  0.725 0.3 0  0.75 0.3 0  0.775 0.3 0  0.8 0.3 0  0.825 0.3 0  0.85 0.3 0  0.875 0.3 0  0.9 0.3 0  0.925 0.3 0  0.95 0.3 0  0.975 0.3 0  1 0.3 0  0 0.325 0  0.025 0.325 0  0.05 0.325 0  0.075 0.325 0  0.1 0.325 0  0.125 0.325 0  0.15 0.325 0  0.175 0.325 0  0.2 0.325 0  0.225 0.325 0  0.25 0.325 0  0.275 0.325 0  0.3 0.325 0  0.325 0.325 0  0.35 0.325 0  0.375 0.325 0  0.4 0.325 0  0.425 0.325 0  0.45 0.325 0  0.475 0.325 0  0.5 0.325 0  0.525 0.325 0  0.55 0.325 0  0.575 0.325 0  0.6 0.325 0  0.625 0.325 0  0.65 0.325 0  0.675 0.325 0  0.7 0.325 0  0.725 0.325 0  0.75 0.325 0  0.775 0.325 0  0.8 0.325 0  0.825 0.325 0  0.85 0.325 0  0.875 0.325 0  0.9 0.325 0  0.925 0.325 0  0.95 0.325 0  0.975 0.325 0  1 0.325 0  0 0.35 0  0.025 0.35 0  0.05 0.35 0  0.075 0.35 0  0.1 0.35 0  0.125 0.35 0  0.15 0.35 0  0.175 0.35 0  0.2 0.35 0  0.225 0.35 0  0.25 0.35 0  0.275 0.35 0  0.3 0.35 0  0.325 0.35 0  0.35 0.35 0  0.375 0.35 0  0.4 0.35 0  0.425 0.35 0  0.45 0.35 0  0.475 0.35 0  0.5 0.35 0  0.525 0.35 0  0.55 0.35 0  0.575 0.35 0  0.6 0.35 0  0.625 0.35 0  0.65 0.35 0  0.675 0.35 0  0.7 0.35 0  0.725 0.35 0  0.75 0.35 0  0.775 0.35 0  0.8 0.35 0  0.825 0.35 0  0.85 0.35 0  0.875 0.35 0  0.9 0.35 0  0.925 0.35 0  0.95 0.35 0  0.975 0.35 0  1 0.35 0  0 0.375 0  0.025 0.375 0  0.05 0.375 0  0.075 0.375 0  0.1 0.375 0  0.125 0.375 0  0.15 0.375 0  0.175 0.375 0  0.2 0.375 0  0.225 0.375 0  0.25 0.375 0  0.275 0.375 0  0.3 0.375 0  0.325 0.375 0  0.35 0.375 0  0.375 0.375 0  0.4 0.375 0  0.425 0.375 0  0.45 0.375 0  0.475 0.375 0  0.5 0.375 0  0.525 0.375 0  0.55 0.375 0  0.575 0.375 0  0.6 0.375 0  0.625 0.375 0  0.65 0.375 0  0.675 0.375 0  0.7 0.375 0  0.725 0.375 0  0.75 0.375 0  0.775 0.375 0  0.8 0.375 0  0.825 0.375 0  0.85 0.375 0  0.875 0.375 0  0.9 0.375 0  0.925 0.375 0  0.95 0.375 0  0.975 0.375 0  1 0.375 0  0 0.4 0  0.025 0.4 0  0.05 0.4 0  0.075 0.4 0  0.1 0.4 0  0.125 0.4 0  0.15 0.4 0  0.175 0.4 0  0.2 0.4 0  0.225 0.4 0  0.25 0.4 0  0.275 0.4 0  0.3 0.4 0  0.325 0.4 0  0.35 0.4 0  0.375 0.4 0  0.4 0.4 0  0.425 0.4 0  0.45 0.4 0  0.475 0.4 0  0.5 0.4 0  0.525 0.4 0  0.55 0.4 0  0.575 0.4 0  0.6 0.4 0  0.625 0.4 0  0.65 0.4 0  0.675 0.4 0  0.7 0.4 0  0.725 0.4 0  0.75 0.4 0  0.775 0.4 0  0.8 0.4 0  0.825 0.4 0  0.85 0.4 0  0.875 0.4 0  0.9 0.4 0  0.925 0.4 0  0.95 0.4 0  0.975 0.4 0  1 0.4 0  0 0.425 0  0.025 0.425 0  0.05 0.425 0  0.075 0.425 0  0.1 0.425 0  0.125 0.425 0  0.15 0.425 0  0.175 0.425 0  0.2 0.425 0  0.225 0.425 0  0.25 0.425 0  0.275 0.425 0  0.3 0.425 0  0.325 0.425 0  0.35 0.425 0  0.375 0.425 0  0.4 0.425 0  0.425 0.425 0  0.45 0.425 0  0.475 0.425 0  0.5 0.425 0  0.525 0.425 0  0.55 0.425 0  0.575 0.425 0  0.6 0.425 0  0.625 0.425 0  0.65 0.425 0  0.675 0.425 0  0.7 0.425 0  0.725 0.425 0  0.75 0.425 0  0.775 0.425 0  0.8 0.425 0  0.825 0.425 0  0.85 0.425 0  0.875 0.425 0  0.9 0.425 0  0.925 0.425 0  0.95 0.425 0  0.975 0.425 0  1 0.425 0  0 0.45 0  0.02
[...]
<PointData  Scalars="ControlVisualisation"> 
<DataArray  type="Float64"  Name="ControlVisualisation"  format="ascii">3.9804974488066558e-01  3.6957540062938293e-01  3.6960407213706953e-01  3.6983074278925843e-01  3.7030102065116127e-01  3.7096319156471136e-01  3.7172026633923216e-01  3.7247628984789205e-01  3.7316250245115046e-01  3.7374199409092951e-01  3.7420311543353879e-01  3.7455030510710041e-01  3.7479643048292804e-01  3.7495758075402208e-01  3.7504997234904625e-01  3.7508833892683641e-01  3.7508525097285628e-01  3.7505096327090071e-01  3.7499352691274984e-01  3.7491900473323081e-01  3.7483169730312466e-01  3.7473432886359315e-01  3.7462816700953488e-01  3.7451306339506824e-01  3.7438741085600896e-01  3.7424802030482701e-01  3.7408993432898763e-01  3.7390622220655750e-01  3.7368785410538513e-01  3.7342384932424039e-01  3.7310204984122902e-01  3.7271106560739420e-01  3.7224417338054661e-01  3.7170572953286768e-01  3.7111967891395881e-01  3.7053752539832968e-01  3.7003686439222550e-01  3.6970214254687189e-01  3.6957638762382522e-01  3.6959138344473619e-01  4.2711946743424328e-01  3.6957141541535399e-01  2.8953820004681419e-01  2.9057402627267603e-01  2.9331436377867792e-01  2.9811875815078864e-01  3.0459477960669928e-01  3.1193682871608241e-01  3.1932314394392758e-01  3.2613689710405069e-01  3.3201957095552193e-01  3.3682983722258830e-01  3.4057432542880811e-01  3.4334482532983790e-01  3.4527243048849432e-01  3.4649810814847820e-01  3.4715578459312940e-01  3.4736387684619230e-01  3.4722203143367647e-01  3.4681077342899236e-01  3.4619255189537146e-01  3.4541323951209801e-01  3.4450352817790691e-01  3.4347990379740273e-01  3.4234502930575639e-01  3.4108745871998614e-01  3.3968068869508428e-01  3.3808167476012885e-01  3.3622916204189368e-01  3.3404259018238414e-01  3.3142307109940639e-01  3.2825908883988503e-01  3.2444122482429888e-01  3.1989200530580297e-01  3.1461636550206828e-01  3.0877428985495892e-01  3.0275624130572443e-01  2.9720312830686085e-01  2.9288789187221487e-01  2.9033890412124536e-01  2.8942232319363675e-01  3.6959098958280601e-01  3.6955236725232704e-01  2.9042702479824595e-01  2.9447526719410483e-01  3.0209185894132984e-01  3.1371511158301513e-01  3.2842601411265782e-01  3.4451987440034038e-01  3.6036118809921930e-01  3.7478764269116305e-01  3.8715882514949551e-01  3.9724677313858531e-01  4.0509623961925451e-01  4.1090695412602057e-01  4.1494979925007741e-01  4.1751310160001470e-01  4.1887129741251938e-01  4.1926872789411035e-01  4.1891293942979030e-01  4.1797347900232784e-01  4.1658347922417277e-01  4.1484228734518869e-01  4.1281805589418574e-01  4.1054964713877740e-01  4.0804747931758917e-01  4.0529312733345102e-01  4.0223765298759701e-01  3.9879885883342020e-01  3.9485804391207691e-01  3.9025753333434987e-01  3.8480149654835960e-01  3.7826451741665057e-01  3.7041549715976707e-01  3.6106768277170592e-01  3.5016793029529164e-01  3.3793473777820349e-01  3.2501607830146201e-01  3.1258418815640149e-01  3.0212405156199224e-01  2.9465269570606067e-01  2.9030471942875974e-01  3.6956650814107023e-01  3.6960254225063960e-01  2.9281200030605070e-01  3.0269492352910071e-01  3.1710327717322451e-01  3.3544368170443561e-01  3.5617086928855057e-01  3.7717475121381633e-01  3.9677050398254105e-01  4.1394789136766236e-01  4.2826428791751653e-01  4.3966208890237740e-01  4.4831652485203155e-01  4.5452678869509083e-01  4.5864290479632708e-01  4.6101908575917855e-01  4.6198604488693307e-01  4.6183640832843781e-01  4.6081872239832711e-01  4.5913668281260916e-01  4.5695115479074772e-01  4.5438330648053638e-01  4.5151774621439172e-01  4.4840495714626205e-01  4.4506259649950314e-01  4.4147541686789182e-01  4.3759372820554110e-01  4.3333051841322207e-01  4.2855768095284830e-01  4.2310238174207165e-01  4.1674565894824750e-01  4.0922704204349047e-01  4.0026204924724429e-01  3.8958276436485778e-01  3.7701903999493408e-01  3.6263475969323761e-01  3.4691477225575329e-01  3.3093120742343485e-01  3.1608425810636520e-01  3.0325216200348848e-01  2.9295242249557746e-01  3.6964992744790842e-01  3.6974356078584614e-01  2.9780434936047273e-01  3.2086017295965008e-01  3.4754907404962554e-01  3.7398194856514427e-01  3.9848535297988841e-01  4.2010100395994787e-01  4.3841946332838361e-01  4.5341846600898061e-01  4.6527285826634507e-01  4.7425048938680026e-01  4.8066874207820920e-01  4.8486995986453774e-01  4.8720082321187141e-01  4.8799430510752728e-01  4.8755597968308922e-01  4.8615548340273412e-01  4.8402262657964673e-01  4.8134697555919642e-01  4.7827960184491169e-01  4.7493586428757778e-01  4.7139835565052174e-01  4.6771939935575829e-01  4.6392268579616414e-01  4.6000378828890021e-01  4.5592941522772823e-01  4.5163536857984260e-01  4.4702333246652293e-01  4.4195686241490473e-01  4.3625740413518288e-01  4.2970187659069758e-01  4.2202506643203119e-01  4.1293191946969487e-01  4.0213288883131393e-01  3.8940972403508212e-01  3.7473839593989117e-01  3.5835258064008341e-01  3.4041752529551084e-01  3.2031115245183217e-01  2.9876893334794763e-01  3.6993841779402564e-01  3.7024330265808619e-01  3.1385714090293887e-01  3.6705433881409361e-01  4.1394460642777647e-01  4.4631836824240839e-01  4.6805926670042264e-01  4.8288581406631226e-01  4.9321494732454019e-01  5.0046405741885314e-01  5.0541203593081929e-01  5.0849586513423428e-01  5.1000071061882268e-01  5.1015742828929922e-01  5.0918071330771619e-01  5.0727715553621677e-01  5.0464178121900738e-01  5.0145234061170740e-01  4.9786497035363431e-01  4.9401206585848356e-01  4.9000205877967795e-01  4.8592046330282185e-01  4.8183156508230929e-01  4.7778025144842151e-01  4.7379362165345595e-01  4.6988213335779072e-01  4.6604012513657855e-01  4.6224560238258983e-01  4.5845917883581566e-01  4.5462201096952082e-01  4.5065241599024752e-01  4.4644050480648051e-01  4.4183997799118563e-01  4.3665478033956928e-01  4.3062080855583162e-01  4.2336633870249168e-01  4.1433773861386880e-01  4.0238669308110042e-01  3.8474094276618948e-01  3.5478748493018458e-01  3.1038760804639365e-01  3.7035220680146158e-01  3.8739285105889049e-01  3.9153886461200071e-01  4.9707412107138171e-01  5.5067745774846089e-01  5.7007180164425919e-01  5.7325899920506418e-01  5.6950064749561591e-01  5.6337731479140485e-01  5.5687297894072330e-01  5.5064445378085991e-01  5.4477421923995817e-01  5.3915887650483407e-01  5.3367837798916928e-01  5.2825189048138443e-01  5.2284447420079572e-01  5.1745698077009339e-01  5.1211310093082363e-01  5.0684849026616796e-01  5.0170307861522789e-01  4.9671629250982785e-01  4.9192455363177034e-01  4.8736042404802621e-01  4.8305289655859796e-01  4.7902848035191342e-01  4.7531287342608614e-01  4.7193313001052206e-01  4.6892031258342243e-01  4.6631264125840804e-01  4.6415907014095148e-01  4.6252290638965776e-01  4.6148434545484324e-01  4.6113930031685935e-01  4.6158771295784118e-01  4.6289969670240660e-01  4.6501118806681202e-01  4.6744869828602686e-01  4.6837952494450530e-01  4.6227597988328051e-01  4.3264021991844182e-01  3.5258647487817907e-01  3.7295762921431841e-01  6.2187302367666009e-01  7.1303832155099911e-01  7.5775883757419649e-01  7.5437704099812253e-01  7.3339953898035537e-01  7.0396532426654423e-01  6.7275809485407478e-01  6.4406253442126549e-01  6.1952822785455997e-01  5.9915963639771408e-01  5.8229405263573852e-01  5.6815695978618919e-01  5.5608079665441201e-01  5.4555478323947981e-01  5.3621058290324397e-01  5.2779140979150441e-01  5.2012234994740292e-01  5.1308678330823576e-01  5.0660914158894343e-01  5.0064296364382610e-01  4.9516309823852928e-01  4.9016111302330478e-01  4.8564323204691012e-01  4.8163037857636670e-01  4.7816013982365235e-01  4.7529070458699274e-01  4.7310706520418583e-01  4.7173002851507767e-01  4.7132883312670931e-01  4.7213833851060705e-01  4.7448164010412364e-01  4.7879765152181897e-01  4.8566875628872075e-01  4.9583044860291259e-01  5.1008881699856834e-01  5.2898143669890463e-01  5.5159405595138633e-01  5.7293856829100898e-01  5.7615190437620512e-01  5.3139662845621671e-01  4.2640581809732997e-01  9.2623240467906287e-01  9.6715697978076198e-01  9.4115811047127473e-01  9.0830410008937612e-01  8.7031445428067677e-01  8.2337938702639812e-01  7.7211690766082830e-01  7.2336653774065307e-01  6.8118598551670684e-01  6.4641637826669629e-01  6.1822262770047987e-01  5.9531981727873651e-01  5.7650835148498858e-01  5.6082381719292740e-01  5.4753725555838118e-01  5.3611278914195992e-01  5.2616184624568252e-01  5.1740528499005423e-01  5.0964488231330363e-01  5.0274289186956767e-01  4.9660800920293868e-01  4.9118637335846743e-01  4.8645663819288776e-01  4.8242853910675543e-01  4.7914476093858177e-01  4.7668631460332384e-01  4.7518210452002396e-01  4.7482398364040329e-01  4.7588942663927086e-01  4.7877506262448749e-01  4.8404555749246020e-01  4.9250261573381365e-01  5.0527493448081107e-01  5.2390530338167851e-01  5.5033077428620669e-01  5.8646132653616667e-01  6.3264986743646523e-01  6.8527815251437696e-01  7.3098411965573018e-01  7.8296976455089806e-01  6.3544122491760702e-01  9.8422262425038654e-01  9.9618313777235934e-01  9.8448993551662456e-01  9.6233078116906212e-01  9.3695243129511829e-01  8.9804620188457196e-01  8.4533308441413335e-01  7.8728374130345724e-01  7.3296931159468270e-01  6.8666156341066498e-01  6.4878374645330661e-01  6.1817923284618292e-01  5.9338723493920464e-01  5.7310920141420729e-01  5.5631416833111202e-01  5.4222040979709840e-01  5.3024713762005826e-01  5.1996751929488028e-01  5.1107097943179280e-01  5.0333518731919480e-01  4.9660623991216768e-01  4.9078545176371824e-01  4.8582154153547935e-01  4.8170747577963113e-01  4.7848172363280855e-01  4.7623422301599361e-01  4.7511804063842950e-01  4.7536865144158913e-01  4.7733414911107269e-01  4.8152174067565179e-01  4.8866857535058683e-01  4.9984724089095911e-01  5.1661234804935963e-01  5.4116026002922735e-01  5.7635382607179864e-01  6.2509412581159030e-01  6.8807162529407739e-01  7.6008334040001069e-01  8.2366873775747607e-01  8.8255305021655261e-01  7.7829121364580456e-01  9.9150538821200307e-01  9.9934415242261121e-01  9.9172467456356272e-01  9.7446055977174484e-01  9.5726775151229904e-01  9.2904344809246808e-01  8.8432324220798053e-01  8.2696558322470115e-01  7.6782851364156990e-01  7.1479290184577438e-01  6.7041292231200933e-01  6.3428726674252844e-01  6.0505922616940944e-01  5.8130753678939651e-01  5.6182781176824070e-01  5.4567517120117259e-01  5.3213213806082138e-01  5.2066237477693478e-01  5.1086925817495032e-01  5.0246351229233810e-01  4.9523956197966384e-01  4.8905925855219207e-01  4.8384173057915464e-01  4.7955852851808833e-01  4.7623374440196681e-01  4.7394938596097608e-01  4.7285704788087790e-01  4.7319800186656419e-01  4.7533545619533180e-01  4.7980522077534871e-01  4.8739453549583045e-01  4.9926249958597230e-01  5.1711296053471345e-01  5.4339748939256460e-01  5.8138334544060888e-01  6.3446739255988027e-01  7.0355094315495537e-01  7.8175644733411587e-01  8.4890180922499414e-01  9.0241119217268895e-01  8.1406902177572471e-01  9.7292451007890202e-01  9.9803048051455734e-01  9.8796593988239279e-01  9.7073958871684285e-01  9.5580358266252741e-01  9.3209228014866508e-01  8.9374442926629305e-01  8.4089467245801819e-01  7.8251211516255303e-01  7.2773166302917391e-01  6.8069151663291816e-01  6.4187317662247967e-01  6.1026857011147029e-01  5.8454452670766321e-01  5.6347958940860798e-01  5.4607661134129404e-01  5.3155909418227487e-01  5.1933539927045491e-01  5.0896043129137092e-01  5.0010349499479767e-01  4.9252380803931839e-01  4.8605302921755933e-01  4.8058380201712664e-01  4.7606353010860714e-01  4.7249301262651655e-01  4.6993008987161944e-01  4.6849912663797560e-01  4.6840811379148284e-01  4.6997660558414273e-01  4.7367991887845057e-01  4.8021825287054692e-01  4.9062311954127980e-01  5.0641332254587912e-01  5.2979078897733956e-01  5.6375473195764803e-01  6.1167028710499560e-01  6.7521574903153248e-01  7.4946980073569436e-01  8.1940777125591868e-01  8.7833503895846965e-01  7.8910767762560041e-01  8.8428375836012274e-01  9.7355202205815794e-01  9.6406341249059624e-01  9.4830377243293174e-01  9.3528542021377026e-01  9.1373985933444757e-01  8.7914485808024456e-01  8.3136353015926989e-01  7.7715774344936450e-01  7.2480596040612499e-01  6.7881371681534497e-01  6.4023303071196591e-01  6.0846400531482003e-01  5.8241067385965684e-01  5.6097632177655388e-01  5.4322331559769665e-01  5.2839858327442946e-01  5.1591433608754078e-01  5.0531877173190687e-01  4.9626870710455856e-01  4.8850745140966295e-01  4.8184825404261961e-01  4.7616281795890730e-01  4.7137429973159495e-01  4.6745443118733754e-01  4.6442474040050430e-01  4.6236230652035581e-01  4.6141111089833003e-01  4.6180096049714103e-01  4.6387732088641553e-01  4.6814734179985401e-01  4.7534959414963385e-01  4.8655535812767120e-01  5.0329752767731539e-01  5.2766223256610245e-01  5.6208663690589478e-01  6.0812311872818392e-01  6.6342308983414389e-01  7.1945853912507030e-01  7.5829366295485723e-01  6.7805939881994970e-01  5.2910903900980910e-01  8.1317917177657217e-01  8.6701167841393501e-01  8.8737876878876709e-01  8.8735722711489118e-01  8.7220906736229842e-01  8.4288673302926631e-01  8.0155144660008670e-01  7.5412593044657672e-01  7.0745035222098784e-01  6.6558948997964185e-01  6.2981382089200921e-01  5.9989285162664208e-01  5.7504710350763732e-01  5.5440550599671179e-01  5.3717908310563178e-01  5.2270830340222385e-01  5.1046172893150343e-01  5.0001917702784893e-01  4.9105239815745216e-01  4.8330786562183103e-01  4.7659297415793223e-01  4.7076574618878475e-01  4.6572778970320949e-01  4.6142023388450254e-01  4.5782249115624485e-01  4.5495388944569826e-01  4.5287847424940963e-01  4.5171360970629970e-01  4.5164342465478063e-01  4.5293861028276522e-01  4.5598429571103416e-01  4.6131649393391311e-01  4.6965976452683378e-01  4.8192634892006120e-01  4.9901528459808481e-01  5.2086183418653231e-01  5.4358592544222561e-01  5.5192352331272776e-01  5.0312035749700734e-01  4.7145072854948056e-01  3.8387936449074317e-01  4.9308775865716425e-01  6.9860805013574367e-01  7.8189749152027577e-01  8.0939976537177705e-01  8.0809240456083542e-01  7.8818306148275130e-01  7.5584247773268998e-01  7.1742380469223022e-01  6.7869679416791784e-01  6.4312681125918081e-01  6.1203408339400955e-01  5.8550441235761574e-01  5.6309597828475577e-01  5.4421206528059685e-01  5.2826422755506852e-01  5.1473204118357363e-01  5.0317733496277350e-01  4.9324024512744846e-01  4.8462919854836101e-01  4.7710993675426616e-01  4.7049559004829294e-01  4.6463846815269355e-01  4.5942367468881484e-01  4.5476444002764771e-01  4.5059900238030737e-01  4.4688885614326862e-01  4.4361817735766285e-01  4.4079418707501766e-01  4.3844806927996260e-01  4.3663572882184376e-01  4.3543697329975101e-01  4.3495013696768647e-01  4.3527482644475091e-01  4.3645922368009049e-01  4.3831464032603001e-01  4.3973108536680633e-01  4.3638745511457638e-01  4.1486322712963802e-01  3.5454588937324238e-01  3.7936072971286405e-01  3.7620155580026199e-01  3.9270813902901486e-01  5.6656374286250788e-01  6.7036535149705834e-01  7.1822954993910137e-01  7.3122085250828717e-01  7.2246547684816931e-01  7.0059060065781487e-01  6.7227890514805766e-01  6.4253310980075806e-01  6.1430991666797186e-01  5.8892485267715555e-01  5.6671753496453314e-01  5.4755286951471083e-01  5.3110437269143906e-01  5.1699464984534937e-01  5.0485866443375949e-01  4.9436865866792301e-01  4.8524084742858326e-01  4.7723390550175587e-01  4.7014413919131559e-01  4.6379967589027887e-01  4.5805473154828508e-01  4.5278437925523413e-01  4.4787992161164769e-01  4.4324480135015815e-01  4.3879088057032400e-01  4.3443482665340544e-01  4.3009422685438148e-01  4.2568289441734558e-01  4.2110464971431888e-01  4.1624479097759415e-01  4.1095891945843804e-01  4.0506025592904393e-01  3.9830652520544141e-01  3.9036541149173326e-01  3.8061508156282586e-01  3.6726488943764590e-01  3.4549493488524680e-01  3.1220850750850920e-01  3.7106156228357240e-01  3.7558878691909187e-01  3.6799300758291598e-01  4.9548646732662877e-01  5.8508908414559035e-01  6.3505423411091488e-01  6.5523114870478849e-01  6.5525523856805867e-01  6.4291481303826448e-01  6.2414475903374056e-01  6.0307931227718803e-01  5.8218216274076695e-01  5.6269922650593018e-01  5.4513103227188053e-01  5.2957432763608148e-01  5.1592585294248250e-01  5.0399463536641831e-01  4.9356096032616475e-01  4.8440584573669543e-01  4.7632439900960827e-01  4.6913049005559027e-01  4.6265683910481958e-01  4.5675276723391056e-01  4.5128081823513572e-01  4.4611287535249572e-01  4.4112606980465224e-01  4.3619860181482123e-01  4.3120551128296286e-01  4.2601441924798544e-01  4.2048131789743831e-01  4.1444667284790837e-01  4.0773257077115149e-01  4.0014278382223906e-01  3.9147027293249448e-01  3.8152195805850930e-01  3.7017825236080104e-01  3.5750275045489621e-01  3.4385056950151782e-01  3.2970121203534597e-01  3.1489206725009655e-01  2.9899178511919167e-01  3.7033234126435727e-01  3.7487764091265519e-01  3.5444655494443295e-01  4.5381903264450052e-01  5.2515979865792539e-01  5.6813977919225078e-01  5.8891995612450709e-01  5.9381785890119498e-01  5.8851036375015975e-01  5.7746995632847509e-01  5.6379229220111571e-01  5.4939797781017496e-01  5.3537038150508331e-01  5.2225885841463171e-01  5.1029505809588382e-01  4.9952843741065894e-01  4.8990827122565922e-01  4.8133225060692209e-01  4.7367467846813743e-01  4.6680210627016316e-01  4.6058124404718964e-01  4.5488212292663482e-01  4.4957834708788164e-01  4.4454555476652380e-01  4.3965876791811348e-01  4.3478905880639701e-01  4.2979985063033260e-01  4.2454318024269883e-01  4.1885639355579840e-01  4.1256006388851801e-01  4.0545851771260860e-01  3.9734539906541938e-01  3.8801855632338650e-01  3.7731162421229147e-01  3.6515416031195314e-01  3.5167601115667796e-01  3.3736172569397088e-01  3.2320008005300432e-01  3.1060643322311648e-01  3.0068199536117479e-01  2.9335632524625721e-01  3.6990811418112679e-01  3.7430731063750139e-01  3.4573870728899297e-01  4.2706742384244173e-01  4.8272712391677636e-01  5.1663394360089254e-01  5.3473601081071320e-01  5.4141802288208052e-01  5.4051069446134270e-01  5.3501093835608460e-01  5.2701667846061628e-01  5.1789958454265406e-01  5.0850976159952832e-01  4.9934935185128576e-01  4.9069430880408998e-01  4.8267473221936036e-01  4.7532803955199820e-01  4.6863399155738183e-01  4.6253749132969457e-01  4.5696290941952145e-01  4.5182252826380870e-01  4.4702091185271514e-01  4.4245645636365460e-01  4.3802098462204592e-01  4.3359798920894538e-01  4.2905999268204104e-01  4.2426547975409895e-01  4.1905598280724882e-01  4.1325420769691601e-01  4.0666463982364665e-01  3.9907895767605128e-01  3.9028991990379386e-01  3.8011924007879255e-01  3.6846696656871541e-01  3.5539099466755569e-01  3.4122101079418304e-01  3.2669094102025453e-01  3.1302179806962960e-01  3.0178681142158187e-01  2.9431717552242237e-01  2.9065598568549206e-01  3.6968965268463294e-01  3.7374913904753321e-01  3.3836185205579933e-01  4.0644062459923858e-01  4.5058360258539570e-01  4.7683199870674597e-01  4.9151245921985259e-01  4.9828482026028231e-01  4.9979025828530310e-01  4.9791644721584871e-01  4.9397497543514973e-01  4.8885932223271161e-01  4.8317062727522969e-01  4.7730792470433930e-01  4.7152701080552550e-01  4.6598102525026319e-01  4.6074975408996344e-01  4.5586116763167450e-01  4.5130705645844227e-01  4.4705391696952579e-01  4.4305004874043641e-01  4.3922967518168354e-01  4.3551475747623741e-01  4.3181503735660359e-01  4.2802675005507029e-01  4.2403042294404719e-01  4.1968825048481723e-01  4.1484175416367125e-01  4.0931085721580812e-01  4.0289620486387751e-01  3.9538761238062203e-01  3.8658297484118581e-01  3.7632353205853375e-01  3.6455230067860445e-01  3.5140059668026380e-01  3.3729690722695421e-01  3.2306839870329335e-01  3.0996137270685631e-01  2.9946049172542250e-01  2.9277517753833437e-01  2.8996120539644560e-01  3.6962008812478264e-01  3.7321396204728635e-01  3.3184517258876173e-01  3.8951746455339664e-01  4.2511684453514986e-01  4.4542189810429977e-01  4.5701612650222379e-01  4.6320299364589174e-01  4.6588508055971301e-01  4.662396516