<?xml version="1.0"?>
<VTKFile type="UnstructuredGrid"  version="0.1"  >
<UnstructuredGrid>
<Piece  NumberOfPoints="1681" NumberOfCells="3200">
<Points>
<DataArray  type="Float64"  NumberOfComponents="3"  format="ascii">0 0 0  0.025 0 0  0.05 0 0  0.075 0 0  0.1 0 0  0.125 0 0  0.15 0 0  0.175 0 0  0.2 0 0  0.225 0 0  0.25 0 0  0.275 0 0  0.3 0 0  0.325 0 0  0.35 0 0  0.375 0 0  0.4 0 0  0.425 0 0  0.45 0 0  0.475 0 0  0.5 0 0  0.525 0 0  0.55 0 0  0.575 0 0  0.6 0 0  0.625 0 0  0.65 0 0  0.675 0 0  0.7 0 0  0.725 0 0  0.75 0 0  0.775 0 0  0.8 0 0  0.825 0 0  0.85 0 0  0.875 0 0  0.9 0 0  0.925 0 0  0.95 0 0  0.975 0 0  1 0 0  0 0.025 0  0.025 0.025 0  0.05 0.025 0  0.075 0.025 0  0.1 0.025 0  0.125 0.025 0  0.15 0.025 0  0.175 0.025 0  0.2 0.025 0  0.225 0.025 0  0.25 0.025 0  0.275 0.025 0  0.3 0.025 0  0.325 0.025 0  0.35 0.025 0  0.375 0.025 0  0.4 0.025 0  0.425 0.025 0  0.45 0.025 0  0.475 0.025 0  0.5 0.025 0  0.525 0.025 0  0.55 0.025 0  0.575 0.025 0  0.6 0.025 0  0.625 0.025 0  0.65 0.025 0  0.675 0.025 0  0.7 0.025 0  0.725 0.025 0  0.75 0.025 0  0.775 0.025 0  0.8 0.025 0  0.825 0.025 0  0.85 0.025 0  0.875 0.025 0  0.9 0.025 0  0.925 0.025 0  0.95 0.025 0  0.975 0.025 0  1 0.025 0  0 0.05 0  0.025 0.05 0  0.05 0.05 0  0.075 0.05 0  0.1 0.05 0  0.125 0.05 0  0.15 0.05 0  0.175 0.05 0  0.2 0.05 0  0.225 0.05 0  0.25 0.05 0  0.275 0.05 0  0.3 0.05 0  0.325 0.05 0  0.35 0.05 0  0.375 0.05 0  0.4 0.05 0  0.425 0.05 0  0.45 0.05 0  0.475 0.05 0  0.5 0.05 0  0.525 0.05 0  0.55 0.05 0  0.575 0.05 0  0.6 0.05 0  0.625 0.05 0  0.65 0.05 0  0.675 0.05 0  0.7 0.05 0  0.725 0.05 0  0.75 0.05 0  0.775 0.05 0  0.8 0.05 0  0.825 0.05 0  0.85 0.05 0  0.875 0.05 0  0.9 0.05 0  0.925 0.05 0  0.95 0.05 0  0.975 0.05 0  1 0.05 0  0 0.075 0  0.025 0.075 0  0.05 0.075 0  0.075 0.075 0  0.1 0.075 0  0.125 0.075 0  0.15 0.075 0  0.175 0.075 0  0.2 0.075 0  0.225 0.075 0  0.25 0.075 0  0.275 0.075 0  0.3 0.075 0  0.325 0.075 0  0.35 0.075 0  0.375 0.075 0  0.4 0.075 0  0.425 0.075 0  0.45 0.075 0  0.475 0.075 0  0.5 0.075 0  0.525 0.075 0  0.55 0.075 0  0.575 0.075 0  0.6 0.075 0  0.625 0.075 0  0.65 0.075 0  0.675 0.075 0  0.7 0.075 0  0.725 0.075 0  0.75 0.075 0  0.775 0.075 0  0.8 0.075 0  0.825 0.075 0  0.85 0.075 0  0.875 0.075 0  0.9 0.075 0  0.925 0.075 0  0.95 0.075 0  0.975 0.075 0  1 0.075 0  0 0.1 0  0.025 0.1 0  0.05 0.1 0  0.075 0.1 0  0.1 0.1 0  0.125 0.1 0  0.15 0.1 0  0.175 0.1 0  0.2 0.1 0  0.225 0.1 0  0.25 0.1 0  0.275 0.1 0  0.3 0.1 0  0.325 0.1 0  0.35 0.1 0  0.375 0.1 0  0.4 0.1 0  0.425 0.1 0  0.45 0.1 0  0.475 0.1 0  0.5 0.1 0  0.525 0.1 0  0.55 0.1 0  0.575 0.1 0  0.6 0.1 0  0.625 0.1 0  0.65 0.1 0  0.675 0.1 0  0.7 0.1 0  0.725 0.1 0  0.75 0.1 0  0.775 0.1 0  0.8 0.1 0  0.825 0.1 0  0.85 0.1 0  0.875 0.1 0  0.9 0.1 0  0.925 0.1 0  0.95 0.1 0  0.975 0.1 0  1 0.1 0  0 0.125 0  0.025 0.125 0  0.05 0.125 0  0.075 0.125 0  0.1 0.125 0  0.125 0.125 0  0.15 0.125 0  0.175 0.125 0  0.2 0.125 0  0.225 0.125 0  0.25 0.125 0  0.275 0.125 0  0.3 0.125 0  0.325 0.125 0  0.35 0.125 0  0.375 0.125 0  0.4 0.125 0  0.425 0.125 0  0.45 0.125 0  0.475 0.125 0  0.5 0.125 0  0.525 0.125 0  0.55 0.125 0  0.575 0.125 0  0.6 0.125 0  0.625 0.125 0  0.65 0.125 0  0.675 0.125 0  0.7 0.125 0  0.725 0.125 0  0.75 0.125 0  0.775 0.125 0  0.8 0.125 0  0.825 0.125 0  0.85 0.125 0  0.875 0.125 0  0.9 0.125 0  0.925 0.125 0  0.95 0.125 0  0.975 0.125 0  1 0.125 0  0 0.15 0  0.025 0.15 0  0.05 0.15 0  0.075 0.15 0  0.1 0.15 0  0.125 0.15 0  0.15 0.15 0  0.175 0.15 0  0.2 0.15 0  0.225 0.15 0  0.25 0.15 0  0.275 0.15 0  0.3 0.15 0  0.325 0.15 0  0.35 0.15 0  0.375 0.15 0  0.4 0.15 0  0.425 0.15 0  0.45 0.15 0  0.475 0.15 0  0.5 0.15 0  0.525 0.15 0  0.55 0.15 0  0.575 0.15 0  0.6 0.15 0  0.625 0.15 0  0.65 0.15 0  0.675 0.15 0  0.7 0.15 0  0.725 0.15 0  0.75 0.15 0  0.775 0.15 0  0.8 0.15 0  0.825 0.15 0  0.85 0.15 0  0.875 0.15 0  0.9 0.15 0  0.925 0.15 0  0.95 0.15 0  0.975 0.15 0  1 0.15 0  0 0.175 0  0.025 0.175 0  0.05 0.175 0  0.075 0.175 0  0.1 0.175 0  0.125 0.175 0  0.15 0.175 0  0.175 0.175 0  0.2 0.175 0  0.225 0.175 0  0.25 0.175 0  0.275 0.175 0  0.3 0.175 0  0.325 0.175 0  0.35 0.175 0  0.375 0.175 0  0.4 0.175 0  0.425 0.175 0  0.45 0.175 0  0.475 0.175 0  0.5 0.175 0  0.525 0.175 0  0.55 0.175 0  0.575 0.175 0  0.6 0.175 0  0.625 0.175 0  0.65 0.175 0  0.675 0.175 0  0.7 0.175 0  0.725 0.175 0  0.75 0.175 0  0.775 0.175 0  0.8 0.175 0  0.825 0.175 0  0.85 0.175 0  0.875 0.175 0  0.9 0.175 0  0.925 0.175 0  0.95 0.175 0  0.975 0.175 0  1 0.175 0  0 0.2 0  0.025 0.2 0  0.05 0.2 0  0.075 0.2 0  0.1 0.2 0  0.125 0.2 0  0.15 0.2 0  0.175 0.2 0  0.2 0.2 0  0.225 0.2 0  0.25 0.2 0  0.275 0.2 0  0.3 0.2 0  0.325 0.2 0  0.35 0.2 0  0.375 0.2 0  0.4 0.2 0  0.425 0.2 0  0.45 0.2 0  0.475 0.2 0  0.5 0.2 0  0.525 0.2 0  0.55 0.2 0  0.575 0.2 0  0.6 0.2 0  0.625 0.2 0  0.65 0.2 0  0.675 0.2 0  0.7 0.2 0  0.725 0.2 0  0.75 0.2 0  0.775 0.2 0  0.8 0.2 0  0.825 0.2 0  0.85 0.2 0  0.875 0.2 0  0.9 0.2 0  0.925 0.2 0  0.95 0.2 0  0.975 0.2 0  1 0.2 0  0 0.225 0  0.025 0.225 0  0.05 0.225 0  0.075 0.225 0  0.1 0.225 0  0.125 0.225 0  0.15 0.225 0  0.175 0.225 0  0.2 0.225 0  0.225 0.225 0  0.25 0.225 0  0.275 0.225 0  0.3 0.225 0  0.325 0.225 0  0.35 0.225 0  0.375 0.225 0  0.4 0.225 0  0.425 0.225 0  0.45 0.225 0  0.475 0.225 0  0.5 0.225 0  0.525 0.225 0  0.55 0.225 0  0.575 0.225 0  0.6 0.225 0  0.625 0.225 0  0.65 0.225 0  0.675 0.225 0  0.7 0.225 0  0.725 0.225 0  0.75 0.225 0  0.775 0.225 0  0.8 0.225 0  0.825 0.225 0  0.85 0.225 0  0.875 0.225 0  0.9 0.225 0  0.925 0.225 0  0.95 0.225 0  0.975 0.225 0  1 0.225 0  0 0.25 0  0.025 0.25 0  0.05 0.25 0  0.075 0.25 0  0.1 0.25 0  0.125 0.25 0  0.15 0.25 0  0.175 0.25 0  0.2 0.25 0  0.225 0.25 0  0.25 0.25 0  0.275 0.25 0  0.3 0.25 0  0.325 0.25 0  0.35 0.25 0  0.375 0.25 0  0.4 0.25 0  0.425 0.25 0  0.45 0.25 0  0.475 0.25 0  0.5 0.25 0  0.525 0.25 0  0.55 0.25 0  0.575 0.25 0  0.6 0.25 0  0.625 0.25 0  0.65 0.25 0  0.675 0.25 0  0.7 0.25 0  0.725 0.25 0  0.75 0.25 0  0.775 0.25 0  0.8 0.25 0  0.825 0.25 0  0.85 0.25 0  0.875 0.25 0  0.9 0.25 0  0.925 0.25 0  0.95 0.25 0  0.975 0.25 0  1 0.25 0  0 0.275 0  0.025 0.275 0  0.05 0.275 0  0.075 0.275 0  0.1 0.275 0  0.125 0.275 0  0.15 0.275 0  0.175 0.275 0  0.2 0.275 0  0.225 0.275 0  0.25 0.275 0  0.275 0.275 0  0.3 0.275 0  0.325 0.275 0  0.35 0.275 0  0.375 0.275 0  0.4 0.275 0  0.425 0.275 0  0.45 0.275 0  0.475 0.275 0  0.5 0.275 0  0.525 0.275 0  0.55 0.275 0  0.575 0.275 0  0.6 0.275 0  0.625 0.275 0  0.65 0.275 0  0.675 0.275 0  0.7 0.275 0  0.725 0.275 0  0.75 0.275 0  0.775 0.275 0  0.8 0.275 0  0.825 0.275 0  0.85 0.275 0  0.875 0.275 0  0.9 0.275 0  0.925 0.275 0  0.95 0.275 0  0.975 0.275 0  1 0.275 0  0 0.3 0  0.025 0.3 0  0.05 0.3 0  0.075 0.3 0  0.1 0.3 0  0.125 0.3 0  0.15 0.3 0  0.175 0.3 0  0.2 0.3 0  0.225 0.3 0  0.25 0.3 0  0.275 0.3 0  0.3 0.3 0  0.325 0.3 0  0.35 0.3 0  0.375 0.3 0  0.4 0.3 0  0.425 0.3 0  0.45 0.3 0  0.475 0.3 0  0.5 0.3 0  0.525 0.3 0  0.55 0.3 0  0.575 0.3 0  0.6 0.3 0  0.625 0.3 0  0.65 0.3 0  0.675 0.3 0  0.7 0.3 0  0.725 0.3 0  0.75 0.3 0  0.775 0.3 0  0.8 0.3 0  0.825 0.3 0  0.85 0.3 0  0.875 0.3 0  0.9 0.3 0  0.925 0.3 0  0.95 0.3 0  0.975 0.3 0  1 0.3 0  0 0.325 0  0.025 0.325 0  0.05 0.325 0  0.075 0.325 0  0.1 0.325 0  0.125 0.325 0  0.15 0.325 0  0.175 0.325 0  0.2 0.325 0  0.225 0.325 0  0.25 0.325 0  0.275 0.325 0  0.3 0.325 0  0.325 0.325 0  0.35 0.325 0  0.375 0.325 0  0.4 0.325 0  0.425 0.325 0  0.45 0.325 0  0.475 0.325 0  0.5 0.325 0  0.525 0.325 0  0.55 0.325 0  0.575 0.325 0  0.6 0.325 0  0.625 0.325 0  0.65 0.325 0  0.675 0.325 0  0.7 0.325 0  0.725 0.325 0  0.75 0.325 0  0.775 0.325 0  0.8 0.325 0  0.825 0.325 0  0.85 0.325 0  0.875 0.325 0  0.9 0.325 0  0.925 0.325 0  0.95 0.325 0  0.975 0.325 0  1 0.325 0  0 0.35 0  0.025 0.35 0  0.05 0.35 0  0.075 0.35 0  0.1 0.35 0  0.125 0.35 0  0.15 0.35 0  0.175 0.35 0  0.2 0.35 0  0.225 0.35 0  0.25 0.35 0  0.275 0.35 0  0.3 0.35 0  0.325 0.35 0  0.35 0.35 0  0.375 0.35 0  0.4 0.35 0  0.425 0.35 0  0.45 0.35 0  0.475 0.35 0  0.5 0.35 0  0.525 0.35 0  0.55 0.35 0  0.575 0.35 0  0.6 0.35 0  0.625 0.35 0  0.65 0.35 0  0.675 0.35 0  0.7 0.35 0  0.725 0.35 0  0.75 0.35 0  0.775 0.35 0  0.8 0.35 0  0.825 0.35 0  0.85 0.35 0  0.875 0.35 0  0.9 0.35 0  0.925 0.35 0  0.95 0.35 0  0.975 0.35 0  1 0.35 0  0 0.375 0  0.025 0.375 0  0.05 0.375 0  0.075 0.375 0  0.1 0.375 0  0.125 0.375 0  0.15 0.375 0  0.175 0.375 0  0.2 0.375 0  0.225 0.375 0  0.25 0.375 0  0.275 0.375 0  0.3 0.375 0  0.325 0.375 0  0.35 0.375 0  0.375 0.375 0  0.4 0.375 0  0.425 0.375 0  0.45 0.375 0  0.475 0.375 0  0.5 0.375 0  0.525 0.375 0  0.55 0.375 0  0.575 0.375 0  0.6 0.375 0  0.625 0.375 0  0.65 0.375 0  0.675 0.375 0  0.7 0.375 0  0.725 0.375 0  0.75 0.375 0  0.775 0.375 0  0.8 0.375 0  0.825 0.375 0  0.85 0.375 0  0.875 0.375 0  0.9 0.375 0  0.925 0.375 0  0.95 0.375 0  0.975 0.375 0  1 0.375 0  0 0.4 0  0.025 0.4 0  0.05 0.4 0  0.075 0.4 0  0.1 0.4 0  0.125 0.4 0  0.15 0.4 0  0.175 0.4 0  0.2 0.4 0  0.225 0.4 0  0.25 0.4 0  0.275 0.4 0  0.3 0.4 0  0.325 0.4 0  0.35 0.4 0  0.375 0.4 0  0.4 0.4 0  0.425 0.4 0  0.45 0.4 0  0.475 0.4 0  0.5 0.4 0  0.525 0.4 0  0.55 0.4 0  0.575 0.4 0  0.6 0.4 0  0.625 0.4 0  0.65 0.4 0  0.675 0.4 0  0.7 0.4 0  0.725 0.4 0  0.75 0.4 0  0.775 0.4 0  0.8 0.4 0  0.825 0.4 0  0.85 0.4 0  0.875 0.4 0  0.9 0.4 0  0.925 0.4 0  0.95 0.4 0  0.975 0.4 0  1 0.4 0  0 0.425 0  0.025 0.425 0  0.05 0.425 0  0.075 0.425 0  0.1 0.425 0  0.125 0.425 0  0.15 0.425 0  0.175 0.425 0  0.2 0.425 0  0.225 0.425 0  0.25 0.425 0  0.275 0.425 0  0.3 0.425 0  0.325 0.425 0  0.35 0.425 0  0.375 0.425 0  0.4 0.425 0  0.425 0.425 0  0.45 0.425 0  0.475 0.425 0  0.5 0.425 0  0.525 0.425 0  0.55 0.425 0  0.575 0.425 0  0.6 0.425 0  0.625 0.425 0  0.65 0.425 0  0.675 0.425 0  0.7 0.425 0  0.725 0.425 0  0.75 0.425 0  0.775 0.425 0  0.8 0.425 0  0.825 0.425 0  0.85 0.425 0  0.875 0.425 0  0.9 0.425 0  0.925 0.425 0  0.95 0.425 0  0.975 0.425 0  1 0.425 0  0 0.45 0  0.02
[...]
<PointData  Scalars="ControlVisualisation"> 
<DataArray  type="Float64"  Name="ControlVisualisation"  format="ascii">1.0020457942863439e-01  6.9688537331669187e-02  6.9969364527102160e-02  7.0315128025766310e-02  7.0677211095339115e-02  7.1099808105732243e-02  7.1525456948362265e-02  7.1963260011871449e-02  7.2393476227926273e-02  7.2765104314150286e-02  7.3091683397001991e-02  7.3309819982771043e-02  7.3342697420265446e-02  7.3551898707051117e-02  7.3854043164871486e-02  7.3926712623644406e-02  7.4044451018269147e-02  7.4112571311544445e-02  7.4102204263897672e-02  7.4160938004696322e-02  7.4267733020234872e-02  7.4305609202942921e-02  7.4262487180274769e-02  7.4388793606470674e-02  7.4472114168878500e-02  7.4448414857834114e-02  7.4364707582868589e-02  7.4393478002500041e-02  7.4367209308937365e-02  7.4246100455272773e-02  7.3964108205600315e-02  7.3710156381175021e-02  7.3438063538964135e-02  7.2968546241454324e-02  7.2376935023988953e-02  7.1852340644577573e-02  7.1323995091731207e-02  7.0721333108494294e-02  7.0210041840959594e-02  6.9734570531951659e-02  1.8443247697735887e-01  6.9528600032799162e-02  3.6307763862401317e-02  3.6424709814081024e-02  3.6659751511691818e-02  3.7017835182757662e-02  3.7464424022587359e-02  3.7969780624991470e-02  3.8513438639859635e-02  3.9015731193307444e-02  3.9459190927919240e-02  3.9888646098840477e-02  4.0244404619107749e-02  4.0467996148759934e-02  4.0732697952267687e-02  4.0960024637379827e-02  4.1146639803274675e-02  4.1261983475720528e-02  4.1374919234821672e-02  4.1403786338435306e-02  4.1490282396114721e-02  4.1570406335928796e-02  4.1654531618737931e-02  4.1670705489453605e-02  4.1738035027937950e-02  4.1754684279917846e-02  4.1716975689780389e-02  4.1669257479710273e-02  4.1589987653697903e-02  4.1498447063661764e-02  4.1316528635872755e-02  4.1069968537813889e-02  4.0725644019541610e-02  4.0283879027545905e-02  3.9725443863895774e-02  3.9066513367814075e-02  3.8355189458366502e-02  3.7655928582208342e-02  3.7047859071049793e-02  3.6602239480508045e-02  3.6339696053385773e-02  6.9727075672051206e-02  6.9376685743717970e-02  3.6433248935260301e-02  3.6648622771277013e-02  3.6971370070575486e-02  3.7457057586432654e-02  3.8023821151580012e-02  3.8689580032837428e-02  3.9472819314499794e-02  4.0116807195979022e-02  4.0696860793660736e-02  4.1335906263241434e-02  4.1894158402632109e-02  4.2098373648277364e-02  4.2578571582629010e-02  4.2955300861329551e-02  4.3224623054334409e-02  4.3411810670674504e-02  4.3553251080474004e-02  4.3550866552793409e-02  4.3603572829746334e-02  4.3708519293009125e-02  4.3848121307805812e-02  4.3955438591397319e-02  4.4155447542592860e-02  4.4207685775896392e-02  4.4134860165593162e-02  4.4126829207210554e-02  4.4047079377152305e-02  4.3926013831305635e-02  4.3830410759116430e-02  4.3468294466599167e-02  4.2949296107517555e-02  4.2450826003029719e-02  4.1668678117748562e-02  4.0685053648346362e-02  3.9704507461511482e-02  3.8702233950260796e-02  3.7794112997523568e-02  3.7106256768740770e-02  3.6606315076210684e-02  7.0185626914542748e-02  6.9279388891309135e-02  3.6632656069324428e-02  3.7004618532703884e-02  3.7475371684175730e-02  3.8069926647406216e-02  3.8761095112630747e-02  3.9470688744017317e-02  4.0151159183639984e-02  4.0772822276148257e-02  4.1325623161967487e-02  4.1940978910608495e-02  4.2386423326782961e-02  4.2635469456135180e-02  4.3044430555980305e-02  4.3287114428869934e-02  4.3639669719235601e-02  4.3872219689216688e-02  4.3803615082431149e-02  4.4056683093948362e-02  4.4088140079701903e-02  4.4319837674123411e-02  4.4278049856416354e-02  4.4363957333599005e-02  4.4534721471734068e-02  4.4713266010981613e-02  4.4787869082826386e-02  4.4843315388758964e-02  4.4813101593977313e-02  4.4712651403682399e-02  4.4682020201812091e-02  4.4445650027963093e-02  4.4023216816383416e-02  4.3525559016603460e-02  4.2880062602802402e-02  4.1967417742096905e-02  4.0934199246801736e-02  3.9829597209695859e-02  3.8784078445659599e-02  3.7934262148142460e-02  3.7104193154528162e-02  7.0752268834121210e-02  6.9193081137950155e-02  3.6812478512386997e-02  3.7769329998212399e-02  3.8733653724910395e-02  3.9619253563735808e-02  4.0407960772752195e-02  4.1161033980226691e-02  4.1707107901903150e-02  4.2174116724154512e-02  4.2598283826068534e-02  4.3023964068982616e-02  4.3287753718604487e-02  4.3513510587163150e-02  4.3887708504577343e-02  4.4000983362353419e-02  4.4125591359836160e-02  4.4436020174325276e-02  4.4427923769315050e-02  4.4456853500020641e-02  4.4767774489472945e-02  4.5033877917525313e-02  4.5100307493342130e-02  4.5315849594867508e-02  4.5726096101194415e-02  4.6017093794097845e-02  4.6224194634946834e-02  4.6397949790724369e-02  4.6705181920792489e-02  4.6737792582468664e-02  4.6683603016877039e-02  4.6574817389914230e-02  4.6235888885691939e-02  4.5853299115466463e-02  4.5325073448636531e-02  4.4538415608086197e-02  4.3416205077902330e-02  4.2117523831494766e-02  4.0771890752153178e-02  3.9569724650013086e-02  3.7960383793630453e-02  7.1498424619492879e-02  6.9371604235741097e-02  3.8188658357691155e-02  4.2397179148803150e-02  4.6255796338177196e-02  4.8621681896069559e-02  4.9528664579178878e-02  5.0202894755452365e-02  5.0013561003886681e-02  4.9349624760723243e-02  4.8743769253865844e-02  4.8276066245391262e-02  4.7825937625228299e-02  4.7500089813871112e-02  4.7633324497591237e-02  4.7523952945452287e-02  4.7710078346392279e-02  4.7990119866063718e-02  4.8259833564366472e-02  4.8329255852976816e-02  4.8368265993174717e-02  4.9323110619813246e-02  5.0155913917496561e-02  5.1111215422893735e-02  5.2246941190027520e-02  5.3254804435597686e-02  5.3627724052585160e-02  5.4536216049706931e-02  5.5562761270363907e-02  5.5718768368256510e-02  5.5689269443344548e-02  5.5639231928039927e-02  5.5806549541457383e-02  5.5420920376904687e-02  5.4363057831697856e-02  5.3230022378422240e-02  5.1674762396070655e-02  4.9374004090941295e-02  4.6714554292059028e-02  4.3706711120382928e-02  3.9248549326030495e-02  7.1973371980912179e-02  7.5527934690608076e-02  5.1689643962756458e-02  9.4613278044953009e-02  1.5500295184284771e-01  1.7545003656922686e-01  1.7666018417470117e-01  1.6762909317016328e-01  1.4769605512323442e-01  1.2098165861146638e-01  1.0983183015732370e-01  1.0016946079851252e-01  8.6104903007303030e-02  7.4373285601867165e-02  7.2781352800490959e-02  6.9716762030261462e-02  6.8496558243412234e-02  6.7324125819243602e-02  6.4565196630873317e-02  6.4659825253739589e-02  6.3498817154431078e-02  6.3935096726194851e-02  6.5412252974470023e-02  6.7141971072709389e-02  6.7672298229820668e-02  6.8889881052421192e-02  7.0970786732752283e-02  7.2128043518882912e-02  7.8684360259390171e-02  7.9858219874483369e-02  7.9861007952988478e-02  8.2377488175865987e-02  8.6667503590425660e-02  9.2447565228111872e-02  9.2361147729962678e-02  9.1414964178441332e-02  9.1887330887025595e-02  8.6782449505436066e-02  7.6767930460733838e-02  6.5233848817612822e-02  4.8254077742490770e-02  7.4630795592841415e-02  7.8722245702868743e-01  7.8696457893428540e-01  8.9102032218926908e-01  8.9983787345948951e-01  8.8366982781213343e-01  8.5043414285176611e-01  8.2318108865593276e-01  7.9489323760514785e-01  7.5392459338910434e-01  6.8575299615122132e-01  6.2080641662536018e-01  5.2298804201930849e-01  4.0020307146377349e-01  3.4794216732124156e-01  3.3498024276883553e-01  2.9036166050247536e-01  2.2938382574064090e-01  1.8041586619968528e-01  1.6527452051797675e-01  1.6091902850083975e-01  1.5143417363805947e-01  1.6997373122351334e-01  1.7625410764258639e-01  1.7709497220459450e-01  1.8012975999255151e-01  2.0575079982150665e-01  2.4781343962176744e-01  2.9142830123583918e-01  3.1751967940010306e-01  3.2574527937134701e-01  3.4868258237863647e-01  3.6726909300547250e-01  3.7946314320483210e-01  3.3005859261697545e-01  3.5539346862146970e-01  3.6706505952159296e-01  3.5977456613823466e-01  3.5175242202689433e-01  3.5765926448651136e-01  3.6603764030396563e-01  2.2936905595175439e-01  9.7584327852673802e-01  9.8326046176982274e-01  9.7956576389283356e-01  9.7509818564845696e-01  9.7056578449299724e-01  9.6534160789050893e-01  9.5934310785387578e-01  9.5296711414383306e-01  9.4611360629295971e-01  9.3803982758109627e-01  9.2815691256514998e-01  9.1474265385843934e-01  8.9556393998537620e-01  8.7187549011878740e-01  8.3973001194780172e-01  8.3070344395433282e-01  7.9879321456458652e-01  7.2273053835923184e-01  7.0830891471422153e-01  6.6208765568181038e-01  6.2662090615573218e-01  6.9184173760569767e-01  6.6077506341184356e-01  5.6306946292354088e-01  5.8478529554692271e-01  6.4294828441959972e-01  6.9097473755471628e-01  7.2677069309057829e-01  7.5974239828571877e-01  7.5107720121639909e-01  7.7979393577318834e-01  7.9303806450419290e-01  8.0570100531234778e-01  7.9475161824824947e-01  8.1973549687365876e-01  8.4521485950636099e-01  8.6330392975293069e-01  8.7869203135581786e-01  8.9702207049913429e-01  9.1228074085618238e-01  8.6815841189469622e-01  9.8706769053174115e-01  9.9202089674882399e-01  9.8978825358663702e-01  9.8696936962547865e-01  9.8394465426867117e-01  9.8085904670686641e-01  9.7772971905378214e-01  9.7463934630985294e-01  9.7159849997902914e-01  9.6849208972282275e-01  9.6511639592123755e-01  9.6121378344830710e-01  9.5653663402069389e-01  9.5072426242002650e-01  9.4386929974309630e-01  9.3782925073722945e-01  9.3393856610246595e-01  9.2648627063598232e-01  9.1937639566913210e-01  9.0419418155064857e-01  8.8909887509862118e-01  8.8252120269919998e-01  8.7658128939226976e-01  8.6787828641069464e-01  8.7031075194535867e-01  8.8031610342676714e-01  8.9138826407222438e-01  8.9178424681462753e-01  8.9375525146256740e-01  8.9450891750200023e-01  9.0246846631405464e-01  9.0811798932405485e-01  9.1176416274736483e-01  9.1384507864736786e-01  9.2038265146919696e-01  9.2785849227810069e-01  9.3432192852225904e-01  9.4173064330006762e-01  9.5070654413124445e-01  9.5997350689743532e-01  9.3324468274731820e-01  9.8869191445794136e-01  9.9360259302492548e-01  9.9192311030339675e-01  9.8971433026825528e-01  9.8731143887838646e-01  9.8497130032134161e-01  9.8279244388044029e-01  9.8078847705087613e-01  9.7889424058231589e-01  9.7714471013547310e-01  9.7539365675100576e-01  9.7350476406436748e-01  9.7154297316563087e-01  9.6932291803993198e-01  9.6671476523904554e-01  9.6363800564856172e-01  9.6119566823181357e-01  9.5816469320014186e-01  9.5377132452297719e-01  9.4753475612360183e-01  9.3978096265411626e-01  9.3364925442042024e-01  9.3117114071965856e-01  9.2766563246591183e-01  9.2922593718781243e-01  9.2910808921887322e-01  9.3047308567943521e-01  9.2821208630810381e-01  9.2709707556940568e-01  9.2790356517582351e-01  9.3036616187999910e-01  9.3335167538890473e-01  9.3562280363892425e-01  9.3749987330705520e-01  9.4037392896619121e-01  9.4398247581421468e-01  9.4791366340809091e-01  9.5361927608272956e-01  9.6094938302067645e-01  9.6804618631403161e-01  9.4794741679920935e-01  9.8538457094324838e-01  9.9239562522031688e-01  9.9076246949723135e-01  9.8871395075558510e-01  9.8660362084719377e-01  9.8468022719600656e-01  9.8301294527618066e-01  9.8157501483398035e-01  9.8029638098821825e-01  9.7910962716811167e-01  9.7798787018525768e-01  9.7687082328312858e-01  9.7581041125352241e-01  9.7458952818449807e-01  9.7318519393341296e-01  9.7159941299604236e-01  9.6994054613542191e-01  9.6796904947567486e-01  9.6510777557889149e-01  9.6097803403837689e-01  9.5622263167671584e-01  9.5192752814338977e-01  9.4875282338217126e-01  9.4639628799863751e-01  9.4344558006876189e-01  9.4152860553526629e-01  9.3879582762907909e-01  9.3473116579400362e-01  9.3043772283356496e-01  9.2838284142398297e-01  9.3020877481419484e-01  9.3059645107004307e-01  9.3106003278881355e-01  9.3146418844048606e-01  9.3345393230783646e-01  9.3521382444274292e-01  9.3773337657719380e-01  9.4242268453953826e-01  9.5019165561407637e-01  9.5888863867072271e-01  9.3901040992587326e-01  9.6731338154489244e-01  9.8531833897866739e-01  9.8389967381023768e-01  9.8246469094999633e-01  9.8106947739800243e-01  9.7988237551706836e-01  9.7891807067299019e-01  9.7813678823381056e-01  9.7745226487377823e-01  9.7676024292754382e-01  9.7615314352396620e-01  9.7552614749016597e-01  9.7502408963362652e-01  9.7445658753390285e-01  9.7392621818874958e-01  9.7332693664436387e-01  9.7251584854243345e-01  9.7100244359847432e-01  9.6866127531306401e-01  9.6515601783905747e-01  9.6085551227381427e-01  9.5640281655256931e-01  9.5216697264978989e-01  9.4726220893233259e-01  9.4043330471097741e-01  9.3265970199079140e-01  9.2557657905181911e-01  9.1727645255073520e-01  9.0681943582165103e-01  8.9921292769745531e-01  8.9969376737488060e-01  8.9587898619436046e-01  8.8719329775584788e-01  8.8272899695197871e-01  8.7645770042944293e-01  8.7860881309418148e-01  8.7282450219607910e-01  8.7815566837674308e-01  8.9138641582308464e-01  9.0188977269243820e-01  8.8254225338204817e-01  6.2665306802754017e-01  9.1549220529562580e-01  9.4371687296767492e-01  9.5448316117208420e-01  9.5983907249236944e-01  9.6310859491399903e-01  9.6515531702386304e-01  9.6640609953925494e-01  9.6724561348263194e-01  9.6774997074531233e-01  9.6830203994054043e-01  9.6861379963399696e-01  9.6865541424100643e-01  9.6874069760251857e-01  9.6907446286923016e-01  9.6964150320355080e-01  9.7009179820122327e-01  9.6898410239977373e-01  9.6582350117177451e-01  9.6113805256314966e-01  9.5456243894402193e-01  9.4833788395862173e-01  9.4246890639033643e-01  9.3485383344035067e-01  9.2387132812613459e-01  9.0494058489565987e-01  8.8638084209813450e-01  8.6241653070707447e-01  8.4216336260124558e-01  8.0337667565201709e-01  7.9122937551635930e-01  7.6516207567896688e-01  7.1227062838830135e-01  7.0606514681705013e-01  6.2777999536685225e-01  5.6061252495206060e-01  4.6014876411750555e-01  4.0257697322604991e-01  2.8608896965927627e-01  1.5011098332030268e-01  2.3698645501642884e-01  7.6235505879930415e-02  7.7967953318249836e-02  3.5954127791649099e-01  6.1298707493171234e-01  7.6786050094175340e-01  8.6751110268668785e-01  9.0847302303077004e-01  9.2152676887421947e-01  9.3058299226799346e-01  9.3606127910894643e-01  9.4080117737421720e-01  9.4468493547558119e-01  9.4779568069859921e-01  9.4969232866882203e-01  9.5185686993599916e-01  9.5405861365537514e-01  9.5568757649351077e-01  9.5451859858504451e-01  9.4922275346024554e-01  9.4040796648575498e-01  9.3162275832135000e-01  9.2924679969367352e-01  9.1479336740478734e-01  8.9376011101071440e-01  8.1861270147470011e-01  7.2197963055141634e-01  6.2906994480454903e-01  5.6052074147785569e-01  5.2311391479079394e-01  4.4541875566377265e-01  3.6750655621789369e-01  3.0257814026148899e-01  2.5367843670095275e-01  2.0250452624418230e-01  1.5259401407474704e-01  1.0913634364568955e-01  8.3057989678340258e-02  6.5583447369400930e-02  5.2114893349513330e-02  4.3813624092861880e-02  7.4949140051476293e-02  7.3139513538465928e-02  4.4606609892266572e-02  7.0331768166417591e-02  1.1717693661855436e-01  1.6711436373684971e-01  2.4351811698418147e-01  3.8152058144714696e-01  4.8489739770109314e-01  5.5188269655288469e-01  6.1310321439552240e-01  6.7494941832860289e-01  7.6848975117282536e-01  8.1409023443716078e-01  8.7026741597676138e-01  8.9112722650608045e-01  9.0356006942262568e-01  9.1129459019719627e-01  9.1072287751003533e-01  9.0234304543033672e-01  9.0224103300919856e-01  8.9269532480359393e-01  8.3609676419343493e-01  7.7876753158429513e-01  7.5234792998380684e-01  6.0649082702430823e-01  4.9544936169218012e-01  4.0501561950196774e-01  3.0160124377967323e-01  2.3129903376552977e-01  1.4664665594541773e-01  1.2218434452485491e-01  1.0620106274620472e-01  9.0381595008696164e-02  7.6700043455759773e-02  6.3543300342848233e-02  5.4877132509500097e-02  4.7783582510737249e-02  4.2275172095932081e-02  3.8305991632828773e-02  3.6372064208671881e-02  7.0700087775469739e-02  7.4961400761531155e-02  4.3883900661082213e-02  5.3224151593681629e-02  6.2053449899645778e-02  7.2013527222574578e-02  8.7673316296942042e-02  1.0877546924476389e-01  1.3254973475839268e-01  1.6079214899062605e-01  2.0510268591565525e-01  2.5233581108982012e-01  2.8225910539638166e-01  3.2398013245745144e-01  3.3977031467867413e-01  4.3357363308237151e-01  4.7716751943560842e-01  6.3122627624475358e-01  6.9762722699785473e-01  7.5518764648886605e-01  7.6758640723890359e-01  7.3629702066102909e-01  7.1753566268122682e-01  7.0949781445241578e-01  6.9865248432809268e-01  6.2715692162736369e-01  5.6319719316301220e-01  4.3552212220853209e-01  2.7241815896654853e-01  1.8531963519484743e-01  1.1419536634734032e-01  9.3547597225078688e-02  8.0336417523805673e-02  6.9181766773167799e-02  6.1446623199175439e-02  5.4813460922207943e-02  4.9266309285817579e-02  4.4404398203109693e-02  4.0822154233824848e-02  3.8232845812368479e-02  3.6618011389487622e-02  7.1499910731966196e-02  7.5693441250439267e-02  4.4094332123369870e-02  5.0465965629439440e-02  5.4222862316309212e-02  5.6706867347148950e-02  5.8319765760751839e-02  6.0203188564610120e-02  6.1320715810260523e-02  6.4108331185746492e-02  6.6606403795923239e-02  7.6267074860907988e-02  8.4851205123512144e-02  8.9995720851769559e-02  1.0396504379932005e-01  1.2491490575276332e-01  1.3980309642768238e-01  2.2504610558044580e-01  3.0125949163131144e-01  3.8020114808558869e-01  5.0190698399517464e-01  6.4453789079794077e-01  6.7916453761422457e-01  6.9471121359111299e-01  7.1812636489933057e-01  7.0545397887472883e-01  6.2321850473009399e-01  5.1296762751448322e-01  3.3273522837803443e-01  2.3093139272578822e-01  1.5862372181305684e-01  1.0563539036248698e-01  8.6707932825075495e-02  7.0985190216023036e-02  6.2667015004512966e-02  5.6031075660645462e-02  5.0590016150142449e-02  4.5857251244896487e-02  4.2541093799975324e-02  4.0067148263038921e-02  3.7614334505248898e-02  7.2418456576652093e-02  7.5849673919814412e-02  4.4098230561426338e-02  4.9560577198023113e-02  5.1684651473310153e-02  5.2910592457859361e-02  5.3472147297347089e-02  5.4272484499762359e-02  5.4458276923289695e-02  5.4968963234723119e-02  5.6041866604802003e-02  5.7742384163865956e-02  6.0803862965639416e-02  6.4505577728554336e-02  7.2074320636694070e-02  8.1733675293974628e-02  9.0780794988457050e-02  1.1127979136373264e-01  1.4490735244245007e-01  2.4416517891766504e-01  4.3556571671733874e-01  5.5714540812063251e-01  5.9757640172080684e-01  6.7298289253532095e-01  7.5873317721699696e-01  7.5983495083034436e-01  6.8324073411415931e-01  6.4290388322615588e-01  4.9642234586761103e-01  3.5711868530383578e-01  2.6299809212316982e-01  1.6743992827813839e-01  1.1307425857298407e-01  8.2057550383558386e-02  7.0623745377074609e-02  6.0814887933564613e-02  5.3367819539326261e-02  4.8697489825790842e-02  4.5387994495514311e-02  4.2540680752265164e-02  3.8805438452647223e-02  7.3544558370951724e-02  7.5471350563135531e-02  4.3709413451973315e-02  4.8347569172451962e-02  4.9777482889534867e-02  5.0637259349042903e-02  5.1232580743895521e-02  5.2078729797428350e-02  5.3100538791409281e-02  5.3923598393352992e-02  5.5167760784553772e-02  5.6646067531859440e-02  5.8199335871116760e-02  6.0928369443988419e-02  6.5198339395887497e-02  7.0356402817416591e-02  7.5938476081013659e-02  8.6820625842044877e-02  1.0369458567540990e-01  1.5938986541057854e-01  2.5255248413236098e-01  3.6515608929620552e-01  5.0254818119522671e-01  6.3145395099423451e-01  7.1306005852250065e-01  6.9159849171326893e-01  6.6895341230230643e-01  6.6048544868279246e-01  5.5594860271466229e-01  4.9157426156941630e-01  4.0372264421158488e-01  2.4425283522192270e-01  1.5989600557594474e-01  9.8177349437398476e-02  7.7892976539886652e-02  6.6494760660226665e-02  5.9538748918336472e-02  5.3259881345381010e-02  4.9223055422885013e-02  4.5770066195232682e-02  4.0510415240711854e-02  7.5068631089274196e-02  7.5210590871770205e-02  4.3096556079072298e-02  4.7012470406831479e-02  4.8239672598590438e-02  4.8953965540421959e-02  4.9660472978751556e-02  5.0404296007930401e-02  5.1190525848879807e-02  5.229579079