<?xml version="1.0"?>
<VTKFile type="UnstructuredGrid"  version="0.1"  >
<UnstructuredGrid>
<Piece  NumberOfPoints="1681" NumberOfCells="3200">
<Points>
<DataArray  type="Float64"  NumberOfComponents="3"  format="ascii">0 0 0  0.025 0 0  0.05 0 0  0.075 0 0  0.1 0 0  0.125 0 0  0.15 0 0  0.175 0 0  0.2 0 0  0.225 0 0  0.25 0 0  0.275 0 0  0.3 0 0  0.325 0 0  0.35 0 0  0.375 0 0  0.4 0 0  0.425 0 0  0.45 0 0  0.475 0 0  0.5 0 0  0.525 0 0  0.55 0 0  0.575 0 0  0.6 0 0  0.625 0 0  0.65 0 0  0.675 0 0  0.7 0 0  0.725 0 0  0.75 0 0  0.775 0 0  0.8 0 0  0.825 0 0  0.85 0 0  0.875 0 0  0.9 0 0  0.925 0 0  0.95 0 0  0.975 0 0  1 0 0  0 0.025 0  0.025 0.025 0  0.05 0.025 0  0.075 0.025 0  0.1 0.025 0  0.125 0.025 0  0.15 0.025 0  0.175 0.025 0  0.2 0.025 0  0.225 0.025 0  0.25 0.025 0  0.275 0.025 0  0.3 0.025 0  0.325 0.025 0  0.35 0.025 0  0.375 0.025 0  0.4 0.025 0  0.425 0.025 0  0.45 0.025 0  0.475 0.025 0  0.5 0.025 0  0.525 0.025 0  0.55 0.025 0  0.575 0.025 0  0.6 0.025 0  0.625 0.025 0  0.65 0.025 0  0.675 0.025 0  0.7 0.025 0  0.725 0.025 0  0.75 0.025 0  0.775 0.025 0  0.8 0.025 0  0.825 0.025 0  0.85 0.025 0  0.875 0.025 0  0.9 0.025 0  0.925 0.025 0  0.95 0.025 0  0.975 0.025 0  1 0.025 0  0 0.05 0  0.025 0.05 0  0.05 0.05 0  0.075 0.05 0  0.1 0.05 0  0.125 0.05 0  0.15 0.05 0  0.175 0.05 0  0.2 0.05 0  0.225 0.05 0  0.25 0.05 0  0.275 0.05 0  0.3 0.05 0  0.325 0.05 0  0.35 0.05 0  0.375 0.05 0  0.4 0.05 0  0.425 0.05 0  0.45 0.05 0  0.475 0.05 0  0.5 0.05 0  0.525 0.05 0  0.55 0.05 0  0.575 0.05 0  0.6 0.05 0  0.625 0.05 0  0.65 0.05 0  0.675 0.05 0  0.7 0.05 0  0.725 0.05 0  0.75 0.05 0  0.775 0.05 0  0.8 0.05 0  0.825 0.05 0  0.85 0.05 0  0.875 0.05 0  0.9 0.05 0  0.925 0.05 0  0.95 0.05 0  0.975 0.05 0  1 0.05 0  0 0.075 0  0.025 0.075 0  0.05 0.075 0  0.075 0.075 0  0.1 0.075 0  0.125 0.075 0  0.15 0.075 0  0.175 0.075 0  0.2 0.075 0  0.225 0.075 0  0.25 0.075 0  0.275 0.075 0  0.3 0.075 0  0.325 0.075 0  0.35 0.075 0  0.375 0.075 0  0.4 0.075 0  0.425 0.075 0  0.45 0.075 0  0.475 0.075 0  0.5 0.075 0  0.525 0.075 0  0.55 0.075 0  0.575 0.075 0  0.6 0.075 0  0.625 0.075 0  0.65 0.075 0  0.675 0.075 0  0.7 0.075 0  0.725 0.075 0  0.75 0.075 0  0.775 0.075 0  0.8 0.075 0  0.825 0.075 0  0.85 0.075 0  0.875 0.075 0  0.9 0.075 0  0.925 0.075 0  0.95 0.075 0  0.975 0.075 0  1 0.075 0  0 0.1 0  0.025 0.1 0  0.05 0.1 0  0.075 0.1 0  0.1 0.1 0  0.125 0.1 0  0.15 0.1 0  0.175 0.1 0  0.2 0.1 0  0.225 0.1 0  0.25 0.1 0  0.275 0.1 0  0.3 0.1 0  0.325 0.1 0  0.35 0.1 0  0.375 0.1 0  0.4 0.1 0  0.425 0.1 0  0.45 0.1 0  0.475 0.1 0  0.5 0.1 0  0.525 0.1 0  0.55 0.1 0  0.575 0.1 0  0.6 0.1 0  0.625 0.1 0  0.65 0.1 0  0.675 0.1 0  0.7 0.1 0  0.725 0.1 0  0.75 0.1 0  0.775 0.1 0  0.8 0.1 0  0.825 0.1 0  0.85 0.1 0  0.875 0.1 0  0.9 0.1 0  0.925 0.1 0  0.95 0.1 0  0.975 0.1 0  1 0.1 0  0 0.125 0  0.025 0.125 0  0.05 0.125 0  0.075 0.125 0  0.1 0.125 0  0.125 0.125 0  0.15 0.125 0  0.175 0.125 0  0.2 0.125 0  0.225 0.125 0  0.25 0.125 0  0.275 0.125 0  0.3 0.125 0  0.325 0.125 0  0.35 0.125 0  0.375 0.125 0  0.4 0.125 0  0.425 0.125 0  0.45 0.125 0  0.475 0.125 0  0.5 0.125 0  0.525 0.125 0  0.55 0.125 0  0.575 0.125 0  0.6 0.125 0  0.625 0.125 0  0.65 0.125 0  0.675 0.125 0  0.7 0.125 0  0.725 0.125 0  0.75 0.125 0  0.775 0.125 0  0.8 0.125 0  0.825 0.125 0  0.85 0.125 0  0.875 0.125 0  0.9 0.125 0  0.925 0.125 0  0.95 0.125 0  0.975 0.125 0  1 0.125 0  0 0.15 0  0.025 0.15 0  0.05 0.15 0  0.075 0.15 0  0.1 0.15 0  0.125 0.15 0  0.15 0.15 0  0.175 0.15 0  0.2 0.15 0  0.225 0.15 0  0.25 0.15 0  0.275 0.15 0  0.3 0.15 0  0.325 0.15 0  0.35 0.15 0  0.375 0.15 0  0.4 0.15 0  0.425 0.15 0  0.45 0.15 0  0.475 0.15 0  0.5 0.15 0  0.525 0.15 0  0.55 0.15 0  0.575 0.15 0  0.6 0.15 0  0.625 0.15 0  0.65 0.15 0  0.675 0.15 0  0.7 0.15 0  0.725 0.15 0  0.75 0.15 0  0.775 0.15 0  0.8 0.15 0  0.825 0.15 0  0.85 0.15 0  0.875 0.15 0  0.9 0.15 0  0.925 0.15 0  0.95 0.15 0  0.975 0.15 0  1 0.15 0  0 0.175 0  0.025 0.175 0  0.05 0.175 0  0.075 0.175 0  0.1 0.175 0  0.125 0.175 0  0.15 0.175 0  0.175 0.175 0  0.2 0.175 0  0.225 0.175 0  0.25 0.175 0  0.275 0.175 0  0.3 0.175 0  0.325 0.175 0  0.35 0.175 0  0.375 0.175 0  0.4 0.175 0  0.425 0.175 0  0.45 0.175 0  0.475 0.175 0  0.5 0.175 0  0.525 0.175 0  0.55 0.175 0  0.575 0.175 0  0.6 0.175 0  0.625 0.175 0  0.65 0.175 0  0.675 0.175 0  0.7 0.175 0  0.725 0.175 0  0.75 0.175 0  0.775 0.175 0  0.8 0.175 0  0.825 0.175 0  0.85 0.175 0  0.875 0.175 0  0.9 0.175 0  0.925 0.175 0  0.95 0.175 0  0.975 0.175 0  1 0.175 0  0 0.2 0  0.025 0.2 0  0.05 0.2 0  0.075 0.2 0  0.1 0.2 0  0.125 0.2 0  0.15 0.2 0  0.175 0.2 0  0.2 0.2 0  0.225 0.2 0  0.25 0.2 0  0.275 0.2 0  0.3 0.2 0  0.325 0.2 0  0.35 0.2 0  0.375 0.2 0  0.4 0.2 0  0.425 0.2 0  0.45 0.2 0  0.475 0.2 0  0.5 0.2 0  0.525 0.2 0  0.55 0.2 0  0.575 0.2 0  0.6 0.2 0  0.625 0.2 0  0.65 0.2 0  0.675 0.2 0  0.7 0.2 0  0.725 0.2 0  0.75 0.2 0  0.775 0.2 0  0.8 0.2 0  0.825 0.2 0  0.85 0.2 0  0.875 0.2 0  0.9 0.2 0  0.925 0.2 0  0.95 0.2 0  0.975 0.2 0  1 0.2 0  0 0.225 0  0.025 0.225 0  0.05 0.225 0  0.075 0.225 0  0.1 0.225 0  0.125 0.225 0  0.15 0.225 0  0.175 0.225 0  0.2 0.225 0  0.225 0.225 0  0.25 0.225 0  0.275 0.225 0  0.3 0.225 0  0.325 0.225 0  0.35 0.225 0  0.375 0.225 0  0.4 0.225 0  0.425 0.225 0  0.45 0.225 0  0.475 0.225 0  0.5 0.225 0  0.525 0.225 0  0.55 0.225 0  0.575 0.225 0  0.6 0.225 0  0.625 0.225 0  0.65 0.225 0  0.675 0.225 0  0.7 0.225 0  0.725 0.225 0  0.75 0.225 0  0.775 0.225 0  0.8 0.225 0  0.825 0.225 0  0.85 0.225 0  0.875 0.225 0  0.9 0.225 0  0.925 0.225 0  0.95 0.225 0  0.975 0.225 0  1 0.225 0  0 0.25 0  0.025 0.25 0  0.05 0.25 0  0.075 0.25 0  0.1 0.25 0  0.125 0.25 0  0.15 0.25 0  0.175 0.25 0  0.2 0.25 0  0.225 0.25 0  0.25 0.25 0  0.275 0.25 0  0.3 0.25 0  0.325 0.25 0  0.35 0.25 0  0.375 0.25 0  0.4 0.25 0  0.425 0.25 0  0.45 0.25 0  0.475 0.25 0  0.5 0.25 0  0.525 0.25 0  0.55 0.25 0  0.575 0.25 0  0.6 0.25 0  0.625 0.25 0  0.65 0.25 0  0.675 0.25 0  0.7 0.25 0  0.725 0.25 0  0.75 0.25 0  0.775 0.25 0  0.8 0.25 0  0.825 0.25 0  0.85 0.25 0  0.875 0.25 0  0.9 0.25 0  0.925 0.25 0  0.95 0.25 0  0.975 0.25 0  1 0.25 0  0 0.275 0  0.025 0.275 0  0.05 0.275 0  0.075 0.275 0  0.1 0.275 0  0.125 0.275 0  0.15 0.275 0  0.175 0.275 0  0.2 0.275 0  0.225 0.275 0  0.25 0.275 0  0.275 0.275 0  0.3 0.275 0  0.325 0.275 0  0.35 0.275 0  0.375 0.275 0  0.4 0.275 0  0.425 0.275 0  0.45 0.275 0  0.475 0.275 0  0.5 0.275 0  0.525 0.275 0  0.55 0.275 0  0.575 0.275 0  0.6 0.275 0  0.625 0.275 0  0.65 0.275 0  0.675 0.275 0  0.7 0.275 0  0.725 0.275 0  0.75 0.275 0  0.775 0.275 0  0.8 0.275 0  0.825 0.275 0  0.85 0.275 0  0.875 0.275 0  0.9 0.275 0  0.925 0.275 0  0.95 0.275 0  0.975 0.275 0  1 0.275 0  0 0.3 0  0.025 0.3 0  0.05 0.3 0  0.075 0.3 0  0.1 0.3 0  0.125 0.3 0  0.15 0.3 0  0.175 0.3 0  0.2 0.3 0  0.225 0.3 0  0.25 0.3 0  0.275 0.3 0  0.3 0.3 0  0.325 0.3 0  0.35 0.3 0  0.375 0.3 0  0.4 0.3 0  0.425 0.3 0  0.45 0.3 0  0.475 0.3 0  0.5 0.3 0  0.525 0.3 0  0.55 0.3 0  0.575 0.3 0  0.6 0.3 0  0.625 0.3 0  0.65 0.3 0  0.675 0.3 0  0.7 0.3 0  0.725 0.3 0  0.75 0.3 0  0.775 0.3 0  0.8 0.3 0  0.825 0.3 0  0.85 0.3 0  0.875 0.3 0  0.9 0.3 0  0.925 0.3 0  0.95 0.3 0  0.975 0.3 0  1 0.3 0  0 0.325 0  0.025 0.325 0  0.05 0.325 0  0.075 0.325 0  0.1 0.325 0  0.125 0.325 0  0.15 0.325 0  0.175 0.325 0  0.2 0.325 0  0.225 0.325 0  0.25 0.325 0  0.275 0.325 0  0.3 0.325 0  0.325 0.325 0  0.35 0.325 0  0.375 0.325 0  0.4 0.325 0  0.425 0.325 0  0.45 0.325 0  0.475 0.325 0  0.5 0.325 0  0.525 0.325 0  0.55 0.325 0  0.575 0.325 0  0.6 0.325 0  0.625 0.325 0  0.65 0.325 0  0.675 0.325 0  0.7 0.325 0  0.725 0.325 0  0.75 0.325 0  0.775 0.325 0  0.8 0.325 0  0.825 0.325 0  0.85 0.325 0  0.875 0.325 0  0.9 0.325 0  0.925 0.325 0  0.95 0.325 0  0.975 0.325 0  1 0.325 0  0 0.35 0  0.025 0.35 0  0.05 0.35 0  0.075 0.35 0  0.1 0.35 0  0.125 0.35 0  0.15 0.35 0  0.175 0.35 0  0.2 0.35 0  0.225 0.35 0  0.25 0.35 0  0.275 0.35 0  0.3 0.35 0  0.325 0.35 0  0.35 0.35 0  0.375 0.35 0  0.4 0.35 0  0.425 0.35 0  0.45 0.35 0  0.475 0.35 0  0.5 0.35 0  0.525 0.35 0  0.55 0.35 0  0.575 0.35 0  0.6 0.35 0  0.625 0.35 0  0.65 0.35 0  0.675 0.35 0  0.7 0.35 0  0.725 0.35 0  0.75 0.35 0  0.775 0.35 0  0.8 0.35 0  0.825 0.35 0  0.85 0.35 0  0.875 0.35 0  0.9 0.35 0  0.925 0.35 0  0.95 0.35 0  0.975 0.35 0  1 0.35 0  0 0.375 0  0.025 0.375 0  0.05 0.375 0  0.075 0.375 0  0.1 0.375 0  0.125 0.375 0  0.15 0.375 0  0.175 0.375 0  0.2 0.375 0  0.225 0.375 0  0.25 0.375 0  0.275 0.375 0  0.3 0.375 0  0.325 0.375 0  0.35 0.375 0  0.375 0.375 0  0.4 0.375 0  0.425 0.375 0  0.45 0.375 0  0.475 0.375 0  0.5 0.375 0  0.525 0.375 0  0.55 0.375 0  0.575 0.375 0  0.6 0.375 0  0.625 0.375 0  0.65 0.375 0  0.675 0.375 0  0.7 0.375 0  0.725 0.375 0  0.75 0.375 0  0.775 0.375 0  0.8 0.375 0  0.825 0.375 0  0.85 0.375 0  0.875 0.375 0  0.9 0.375 0  0.925 0.375 0  0.95 0.375 0  0.975 0.375 0  1 0.375 0  0 0.4 0  0.025 0.4 0  0.05 0.4 0  0.075 0.4 0  0.1 0.4 0  0.125 0.4 0  0.15 0.4 0  0.175 0.4 0  0.2 0.4 0  0.225 0.4 0  0.25 0.4 0  0.275 0.4 0  0.3 0.4 0  0.325 0.4 0  0.35 0.4 0  0.375 0.4 0  0.4 0.4 0  0.425 0.4 0  0.45 0.4 0  0.475 0.4 0  0.5 0.4 0  0.525 0.4 0  0.55 0.4 0  0.575 0.4 0  0.6 0.4 0  0.625 0.4 0  0.65 0.4 0  0.675 0.4 0  0.7 0.4 0  0.725 0.4 0  0.75 0.4 0  0.775 0.4 0  0.8 0.4 0  0.825 0.4 0  0.85 0.4 0  0.875 0.4 0  0.9 0.4 0  0.925 0.4 0  0.95 0.4 0  0.975 0.4 0  1 0.4 0  0 0.425 0  0.025 0.425 0  0.05 0.425 0  0.075 0.425 0  0.1 0.425 0  0.125 0.425 0  0.15 0.425 0  0.175 0.425 0  0.2 0.425 0  0.225 0.425 0  0.25 0.425 0  0.275 0.425 0  0.3 0.425 0  0.325 0.425 0  0.35 0.425 0  0.375 0.425 0  0.4 0.425 0  0.425 0.425 0  0.45 0.425 0  0.475 0.425 0  0.5 0.425 0  0.525 0.425 0  0.55 0.425 0  0.575 0.425 0  0.6 0.425 0  0.625 0.425 0  0.65 0.425 0  0.675 0.425 0  0.7 0.425 0  0.725 0.425 0  0.75 0.425 0  0.775 0.425 0  0.8 0.425 0  0.825 0.425 0  0.85 0.425 0  0.875 0.425 0  0.9 0.425 0  0.925 0.425 0  0.95 0.425 0  0.975 0.425 0  1 0.425 0  0 0.45 0  0.02
[...]
<PointData  Scalars="ControlVisualisation"> 
<DataArray  type="Float64"  Name="ControlVisualisation"  format="ascii">1.6175726638139018e-01  1.1554799782806964e-01  1.1554872814086148e-01  1.1555505121129898e-01  1.1559315581597601e-01  1.1568182414290748e-01  1.1580950638057760e-01  1.1594771980263528e-01  1.1607412585895438e-01  1.1617977703954956e-01  1.1626464837119936e-01  1.1633119966385118e-01  1.1638016313239948e-01  1.1641152176010187e-01  1.1642793648535858e-01  1.1643503882929201e-01  1.1643876813629947e-01  1.1644325201681915e-01  1.1645068931841744e-01  1.1646229411869652e-01  1.1647885921680579e-01  1.1650059478613053e-01  1.1652677575254149e-01  1.1655546814624107e-01  1.1658312974563347e-01  1.1660421398473526e-01  1.1661182744403252e-01  1.1660042203826283e-01  1.1656887136110101e-01  1.1652007322118441e-01  1.1645658382988136e-01  1.1637622486574221e-01  1.1627291367970428e-01  1.1614333554154385e-01  1.1599371450304803e-01  1.1584155316378261e-01  1.1570985958676965e-01  1.1561669829831303e-01  1.1556629119104775e-01  1.1554821827487122e-01  2.6047118087616566e-01  1.1555073673038599e-01  6.1725707971044749e-02  6.1731351808148864e-02  6.1750177086546149e-02  6.1821630365149163e-02  6.1977814375548126e-02  6.2201537988894877e-02  6.2442959003740126e-02  6.2664806314680827e-02  6.2856937437693189e-02  6.3023218761815075e-02  6.3166069693241858e-02  6.3280476764681778e-02  6.3359714612172921e-02  6.3405470930526939e-02  6.3429353883124415e-02  6.3445635615383036e-02  6.3464501835962792e-02  6.3490761003275831e-02  6.3526139122431796e-02  6.3571237736678360e-02  6.3625746518667883e-02  6.3687964782248280e-02  6.3754332314941320e-02  6.3818350167208673e-02  6.3868805036153095e-02  6.3889809328782812e-02  6.3866223181518689e-02  6.3792834481015484e-02  6.3678049419390495e-02  6.3534507656192230e-02  6.3365299419968366e-02  6.3162311152020201e-02  6.2918545614670043e-02  6.2641622583854917e-02  6.2356997338829115e-02  6.2100403019519024e-02  6.1906539688631981e-02  6.1789852644442630e-02  6.1735341927788817e-02  1.1554803680420205e-01  1.1558746880285650e-01  6.1763921867145632e-02  6.1782326659179841e-02  6.1842609925987967e-02  6.2034744313706716e-02  6.2400962797394710e-02  6.2867121097552783e-02  6.3303170270717968e-02  6.3642288402414315e-02  6.3886133517024629e-02  6.4064627715166036e-02  6.4202598085814924e-02  6.4315965416047755e-02  6.4408222521934691e-02  6.4477732232724239e-02  6.4531428247764061e-02  6.4582264342538484e-02  6.4637488146575661e-02  6.4697243145060784e-02  6.4760359063432624e-02  6.4826883708978308e-02  6.4896273255723558e-02  6.4966241795089710e-02  6.5034067106641252e-02  6.5097059040623892e-02  6.5149148314364649e-02  6.5175971334409583e-02  6.5155597381959141e-02  6.5069233085994826e-02  6.4913549129693021e-02  6.4694350962940933e-02  6.4415957934368356e-02  6.4074745431947577e-02  6.3669022719958779e-02  6.3221941799610909e-02  6.2777461578378907e-02  6.2381222466414622e-02  6.2075463646591493e-02  6.1878769103132128e-02  6.1772906120337423e-02  1.1555966102395290e-01  1.1581974807655744e-01  6.1947259991603068e-02  6.2021820789025288e-02  6.2893377773787312e-02  6.5121174224398740e-02  6.8078758726347430e-02  7.1037219913575922e-02  7.3310150167591223e-02  7.4357850395502315e-02  7.4193451367533733e-02  7.3185126652707391e-02  7.1865369694997711e-02  7.0590856522876055e-02  6.9529365268707871e-02  6.8741376355807862e-02  6.8242018942881552e-02  6.8001569200896894e-02  6.7935222970207765e-02  6.7950948341817988e-02  6.7988021322283793e-02  6.8017613061980356e-02  6.8024154994631603e-02  6.7995566785599718e-02  6.7928667617314462e-02  6.7833760680599348e-02  6.7722741342264067e-02  6.7586377053229313e-02  6.7395931395698230e-02  6.7156370394555381e-02  6.6928713594722217e-02  6.6734046236644987e-02  6.6522356509817776e-02  6.6171636856173027e-02  6.5544087551182850e-02  6.4675697408407978e-02  6.3773175277222330e-02  6.2998621150610237e-02  6.2407095821257627e-02  6.2015246133646285e-02  6.1804056876717105e-02  1.1557055198170438e-01  1.1672396729518411e-01  6.2929201724099715e-02  6.6451717353272668e-02  7.8002400816418266e-02  1.0902094729592560e-01  1.6832643042473563e-01  2.1886611160070130e-01  2.6121761684960776e-01  2.7606274770816203e-01  2.5769309546445335e-01  2.2437208508721460e-01  1.8781001631107880e-01  1.5873129144725706e-01  1.3706496652921485e-01  1.1847270892619538e-01  1.0370357708389485e-01  9.3611389895705638e-02  8.7085809811527096e-02  8.2842634865763404e-02  8.0114628345805697e-02  7.8447577707323718e-02  7.7530340390532693e-02  7.7154844386822977e-02  7.7220588644893021e-02  7.7707101985221377e-02  7.8576889022034510e-02  7.9613434312196404e-02  8.0335810147466255e-02  8.0338775059906678e-02  7.9895419177721597e-02  7.9553934560308986e-02  7.9631402841532611e-02  7.9826655659061704e-02  7.9006071205372688e-02  7.6470566766793951e-02  7.2631720236321889e-02  6.8211833636899769e-02  6.4620205846812495e-02  6.2683061715384542e-02  6.1912439190198537e-02  1.1555387128343432e-01  1.2023392207989410e-01  7.0338481024899799e-02  1.5980031145391424e-01  3.6240790828021979e-01  6.5082353893035305e-01  7.9458956764752708e-01  8.6894827412914211e-01  8.7375115666084813e-01  8.5792333007991151e-01  8.3379358899818734e-01  7.9210428587537407e-01  7.2989426070454244e-01  6.4557042959090905e-01  5.4104120425325675e-01  4.2959558919286722e-01  3.3971772358015728e-01  2.7966020637760652e-01  2.3531686438805297e-01  1.9811394320711245e-01  1.6815663806074554e-01  1.4730879590911886e-01  1.3424628640158262e-01  1.2639343088902838e-01  1.2215864246105208e-01  1.2097528848212045e-01  1.2263647834262945e-01  1.2691290414796111e-01  1.3335991389428900e-01  1.4114440737198003e-01  1.4889056965016798e-01  1.5396155681843587e-01  1.5543194966502438e-01  1.6591154516470430e-01  1.8695327172929807e-01  1.9002948421764679e-01  1.6983843845291219e-01  1.3509665485384401e-01  1.0116718740135260e-01  7.5112617465757828e-02  6.3051606664271856e-02  1.1600840652912404e-01  1.7295984374878784e-01  2.9720950993089723e-01  9.1529676386331116e-01  9.5588133707498346e-01  9.6508087914412977e-01  9.6764571347439265e-01  9.6823136333300275e-01  9.6741792404935090e-01  9.6503660588221130e-01  9.6132831050858536e-01  9.5607855574667400e-01  9.4887087816790205e-01  9.3933818283502934e-01  9.2687911957120406e-01  9.0991148726670856e-01  8.8503538938722581e-01  8.4712819419180529e-01  7.8981684171321875e-01  7.0609673763331315e-01  5.9500129086722775e-01  4.7104455096478559e-01  3.6048863076863380e-01  2.8289490496577552e-01  2.3925764584231982e-01  2.2174214241748377e-01  2.2465977841003670e-01  2.4705983875263998e-01  2.9116469468581274e-01  3.5735155804005186e-01  4.3811751086558509e-01  5.1881122413314518e-01  5.8583155563077960e-01  6.3494883642290123e-01  6.6429920955667643e-01  6.6837034815734131e-01  6.3563453466262310e-01  5.4645327898064033e-01  3.7046795661274817e-01  3.2655968519184619e-01  1.0413185270861625e-01  1.1970396514740116e-01  9.7166746205615662e-01  9.8425475825652708e-01  9.8744779414142214e-01  9.8794884244528847e-01  9.8775281219059108e-01  9.8711693016843360e-01  9.8620018892912820e-01  9.8504767660002168e-01  9.8364766021540773e-01  9.8198261599329961e-01  9.8000931628645926e-01  9.7765964525245430e-01  9.7484485167761192e-01  9.7144130737360224e-01  9.6726788976951983e-01  9.6208344622216113e-01  9.5561061068568065e-01  9.4755370024191909e-01  9.3761703786009132e-01  9.2559758983017038e-01  9.1157262464587485e-01  8.9611456641909060e-01  8.8046543726096715e-01  8.6668209606982782e-01  8.5746884548947377e-01  8.5506878387537200e-01  8.5979467371734963e-01  8.6980742377777742e-01  8.8234632409771718e-01  8.9509935114956041e-01  9.0672746289601858e-01  9.1669171090215618e-01  9.2486044519152799e-01  9.3120590506033285e-01  9.3569181190809803e-01  9.3827120580850787e-01  9.3869016125404525e-01  9.3589799552544606e-01  9.2574553655909020e-01  8.9437418975847549e-01  4.9719971106583266e-01  9.9397775389051413e-01  9.9614194410892076e-01  9.9552573488366214e-01  9.9467525938359702e-01  9.9371396319580585e-01  9.9270221435016925e-01  9.9167741186335701e-01  9.9064521649337622e-01  9.8958814265178308e-01  9.8848321682052476e-01  9.8730753559180706e-01  9.8603567737528830e-01  9.8463515657120926e-01  9.8306234493742295e-01  9.8126037337259342e-01  9.7916307029373639e-01  9.7670372466450961e-01  9.7382298690238411e-01  9.7047612488587209e-01  9.6664755428171723e-01  9.6237706315747173e-01  9.5779930063982277e-01  9.5319473114560793e-01  9.4902590009686949e-01  9.4589201576238480e-01  9.4434595848362479e-01  9.4464135963505336e-01  9.4659923847477445e-01  9.4971172325375586e-01  9.5338937807387247e-01  9.5716714182837226e-01  9.6077865984912325e-01  9.6412549748714138e-01  9.6721068441486724e-01  9.7009555507356049e-01  9.7288395196245891e-01  9.7568052542281192e-01  9.7850060508538994e-01  9.8118535279303287e-01  9.8347059140787840e-01  9.6246355541680539e-01  9.9663087194735855e-01  9.9798148120224528e-01  9.9742258891058466e-01  9.9663937393391155e-01  9.9573022373229614e-01  9.9477467978857792e-01  9.9382934262198919e-01  9.9291951765543496e-01  9.9204645859842933e-01  9.9119643893435316e-01  9.9034995507462364e-01  9.8948644807724695e-01  9.8858375731640868e-01  9.8761574824023424e-01  9.8655132916099919e-01  9.8535625426942031e-01  9.8399677240533789e-01  9.8244330489078735e-01  9.8067376969120346e-01  9.7867824685043947e-01  9.7646723162189308e-01  9.7408576842121530e-01  9.7163490248202222e-01  9.6929444990009717e-01  9.6732502420202837e-01  9.6601857732931617e-01  9.6559368955740366e-01  9.6609193562030338e-01  9.6735806864949914e-01  9.6912390795633341e-01  9.7112908348374427e-01  9.7320182624512686e-01  9.7527705562391165e-01  9.7737361627558195e-01  9.7956050149165574e-01  9.8191934178277096e-01  9.8448505537788955e-01  9.8716677554183851e-01  9.8969811001545638e-01  9.9163905780223294e-01  9.8379865536612332e-01  9.9702602349496794e-01  9.9833632673342554e-01  9.9785927336191238e-01  9.9716672503382942e-01  9.9634273383881744e-01  9.9547224545448154e-01  9.9461812371629466e-01  9.9381311089855195e-01  9.9306671444791927e-01  9.9237185598594113e-01  9.9171178201497989e-01  9.9106625252881453e-01  9.9041435254713228e-01  9.8973443460793320e-01  9.8900343719715822e-01  9.8819702585704017e-01  9.8729065201735855e-01  9.8626088753884156e-01  9.8508671024800809e-01  9.8375129509901493e-01  9.8224567199629276e-01  9.8057644035030078e-01  9.7878009893676365e-01  9.7694395192338768e-01  9.7522486292681054e-01  9.7384356975452635e-01  9.7302889852485219e-01  9.7291886256592430e-01  9.7348484961720783e-01  9.7455108342895780e-01  9.7589773267864455e-01  9.7736340839056302e-01  9.7888745646528885e-01  9.8049699826810777e-01  9.8227033555754373e-01  9.8429131457754626e-01  9.8658273016442211e-01  9.8902290649206770e-01  9.9131647203599460e-01  9.9305498656488034e-01  9.8755887679856569e-01  9.9618868185129872e-01  9.9804624356243599e-01  9.9757147651945277e-01  9.9689851760039783e-01  9.9612442274384660e-01  9.9532953857973905e-01  9.9456902596993180e-01  9.9387100525064986e-01  9.9324260773452144e-01  9.9267692028227172e-01  9.9215799648507619e-01  9.9166578453738696e-01  9.9117958758720293e-01  9.9067908619240030e-01  9.9014412994547529e-01  9.8955417120402500e-01  9.8888788136895722e-01  9.8812309764708683e-01  9.8723692508354399e-01  9.8620600162160854e-01  9.8500765783103661e-01  9.8362382952241101e-01  9.8205082107959041e-01  9.8031849658348569e-01  9.7851939547635247e-01  9.7683576317660548e-01  9.7552848604964237e-01  9.7484555800924899e-01  9.7487852130008223e-01  9.7549757012258986e-01  9.7645113328237099e-01  9.7753149587664490e-01  9.7865874647819140e-01  9.7986422599292022e-01  9.8124028781484185e-01  9.8290041891484392e-01  9.8492065194294731e-01  9.8723464546734740e-01  9.8958847179373710e-01  9.9152169100508625e-01  9.8582914268640942e-01  9.9155637240773431e-01  9.9648813427103744e-01  9.9611362543184956e-01  9.9556199028306358e-01  9.9493101653393634e-01  9.9429479514219588e-01  9.9369888215024738e-01  9.9316446645466683e-01  9.9269491648546326e-01  9.9228271295181869e-01  9.9191308749989326e-01  9.9156753889463622e-01  9.9122690263910540e-01  9.9087252068893639e-01  9.9048617055951693e-01  9.9004925092324303e-01  9.8954171063164764e-01  9.8894120305603861e-01  9.8822237387870160e-01  9.8735589670262214e-01  9.8630739934898681e-01  9.8503755196337905e-01  9.8350609579375337e-01  9.8168492141811214e-01  9.7958880586170682e-01  9.7733267958804770e-01  9.7519524354425369e-01  9.7358780533424105e-01  9.7282569675513841e-01  9.7285940561159689e-01  9.7332024858009947e-01  9.7385796469269104e-01  9.7434337581427577e-01  9.7482317277836550e-01  9.7539406908730841e-01  9.7616468868999762e-01  9.7728108423115156e-01  9.7885748767504488e-01  9.8091808151861815e-01  9.8291188895227222e-01  9.7375630190930318e-01  9.2434632372081427e-01  9.8630153400217235e-01  9.9013427501597329e-01  9.9137861427613883e-01  9.9171224467142405e-01  9.9170719975141930e-01  9.9157551969460711e-01  9.9140630735542101e-01  9.9123606015646337e-01  9.9107646203714905e-01  9.9092545322105385e-01  9.9077351549730652e-01  9.9060795392069045e-01  9.9041487916608950e-01  9.9017957523496414e-01  9.8988586190403904e-01  9.8951497545859901e-01  9.8904446127861145e-01  9.8844691784956307e-01  9.8768791987716709e-01  9.8672271342917028e-01  9.8549197714676340e-01  9.8391762512463532e-01  9.8190097222346295e-01  9.7933139333623820e-01  9.7614182110115477e-01  9.7249755426455498e-01  9.6900517075349912e-01  9.6645695959946809e-01  9.6509102601125929e-01  9.6424833623125206e-01  9.6315022236117886e-01  9.6150466608330443e-01  9.5938712377208513e-01  9.5687598491440451e-01  9.5392653412817918e-01  9.5014478066684349e-01  9.4519566077692296e-01  9.3228692067496743e-01  8.7977671100680022e-01  8.2303704575535108e-01  1.2807129256174402e-01  5.0268943825541590e-01  9.4858470546176399e-01  9.7481854107333732e-01  9.8223727037986197e-01  9.8524392288560325e-01  9.8675525002505871e-01  9.8762756962076581e-01  9.8818234087522405e-01  9.8856158100582325e-01  9.8883065008858517e-01  9.8901837756589139e-01  9.8913557476705471e-01  9.8918340921682546e-01  9.8915701579151016e-01  9.8904664907567508e-01  9.8883757345875090e-01  9.8850942941406283e-01  9.8803491295632317e-01  9.8737692651369047e-01  9.8648327929192636e-01  9.8527788167062647e-01  9.8364612482740232e-01  9.8140860008752751e-01  9.7826992919694156e-01  9.7375346621644421e-01  9.6740786957809777e-01  9.5952138615286153e-01  9.5220958911367970e-01  9.4658513817025913e-01  9.4023803294606545e-01  9.3357408134179698e-01  9.2385227693756578e-01  9.1003594210709260e-01  8.9169339674272641e-01  8.5445216563395809e-01  7.7596559547800559e-01  6.7918790375568738e-01  4.3179215676743143e-01  1.1441398579456874e-01  1.2917957564574975e-01  1.1761844452898279e-01  7.7133671750925212e-02  3.9901976702237185e-01  8.3322205699789675e-01  9.3916306987058285e-01  9.6374446462184404e-01  9.7353757540097785e-01  9.7846190391508758e-01  9.8134729448756719e-01  9.8322951235419720e-01  9.8454563513894278e-01  9.8550445298243661e-01  9.8621378457178166e-01  9.8673066958763900e-01  9.8708452192033491e-01  9.8728764935041657e-01  9.8733981803126669e-01  9.8723031713724041e-01  9.8693806361042369e-01  9.8642902963452894e-01  9.8564982710063476e-01  9.8451507533332894e-01  9.8288255931643331e-01  9.8050077839025906e-01  9.7688629277716554e-01  9.7102103484707436e-01  9.6096146815121286e-01  9.4378846994722720e-01  9.2055919361237226e-01  9.6137598237750854e-01  9.9984333278287107e-01  8.4942817105996127e-01  8.1244963182175711e-01  8.1142471271445371e-01  6.7782460702883285e-01  3.8711460593954700e-01  1.8614923682484688e-01  1.0442170886295254e-01  7.5505328313927991e-02  6.5060052277496921e-02  1.1809348014998711e-01  1.1545401244760917e-01  6.2839509275583683e-02  8.3307279672218598e-02  1.9407380336573271e-01  5.8705054903614562e-01  8.0445060184270267e-01  9.1423870784183825e-01  9.4604931130333547e-01  9.6102274095038109e-01  9.6930883214163222e-01  9.7436479178321977e-01  9.7772305151945293e-01  9.8008257476909177e-01  9.8179135013964491e-01  9.8303891727839010e-01  9.8393203786168193e-01  9.8452819386742929e-01  9.8485384940002452e-01  9.8491328064701000e-01  9.8469030422638837e-01  9.8414364177894598e-01  9.8319300976439150e-01  9.8168697583629594e-01  9.7933107288215426e-01  9.7552389711916287e-01  9.6893214051067089e-01  9.5639474017829518e-01  9.3024479088702405e-01  8.5901355447479444e-01  8.2508881403903578e-01  9.2313488749271189e-01  5.4170436824042711e-01  2.1263475925879388e-01  1.3015953459893109e-01  9.8278827221749090e-02  8.3171381550191173e-02  7.3206054318383382e-02  6.6830811150323272e-02  6.3655682088131993e-02  6.2558756942678470e-02  1.1594075359180429e-01  1.1548123905584759e-01  6.1893654288386099e-02  6.4208476123087665e-02  8.2128510644013941e-02  9.5244794473090422e-02  2.3460613664887620e-01  4.5907155768529678e-01  6.4154799125725859e-01  8.4399466205439089e-01  9.1051848195190754e-01  9.3896850583403380e-01  9.5453632101598174e-01  9.6398902402706599e-01  9.7006524445739506e-01  9.7418390059584759e-01  9.7706724571056303e-01  9.7909557288295790e-01  9.8048056630003422e-01  9.8134099526940599e-01  9.8173607806667107e-01  9.8167805845273481e-01  9.8112568251630272e-01  9.7995038972379767e-01  9.7785452842890974e-01  9.7421102392931158e-01  9.6774597332801759e-01  9.5575257435747052e-01  9.3161222166259294e-01  8.7257178572982919e-01  8.1335729839910276e-01  6.6850331215738001e-01  1.6521547149867791e-01  9.2697743160371632e-02  7.9012357102080696e-02  7.2768070400248949e-02  6.8976331943961425e-02  6.6420570349897276e-02  6.4814587701251258e-02  6.4007469530315719e-02  6.3057098802222822e-02  1.1603117790524074e-01  1.1574231853335716e-01  6.2175800030465175e-02  6.2963666258996021e-02  6.4953314068843401e-02  7.4909573994538972e-02  7.9321521478017007e-02  9.8006029165915776e-02  1.6936652954463510e-01  3.2517503214974891e-01  4.4549196020168486e-01  6.3773912200336969e-01  8.1992350617379162e-01  8.9498254719934500e-01  9.2930425642032655e-01  9.4823889467364064e-01  9.5965227181116952e-01  9.6683964451192761e-01  9.7151880157785153e-01  9.7457706757302642e-01  9.7649462495973383e-01  9.7753881343041393e-01  9.7783613769701205e-01  9.7737561353830427e-01  9.7595278547728570e-01  9.7306602686097143e-01  9.6783196203564614e-01  9.5893832347737962e-01  9.4436289319725486e-01  9.1692891971692225e-01  8.4819962912933455e-01  8.1912784075189504e-01  3.7344086430573903e-01  9.6083541825554175e-02  7.7558795823869014e-02  7.2280148012315387e-02  6.9477833671924144e-02  6.7492635740830462e-02  6.6132745331755755e-02  6.5254260985414925e-02  6.3774193362836851e-02  1.1625806810360055e-01  1.1594945214942327e-01  6.2485197531870984e-02  6.3043124502283998e-02  6.3470645540834134e-02  6.4511639032491047e-02  6.7739683362992034e-02  7.4376786592404973e-02  7.8510659065100269e-02  8.8223362119886517e-02  1.1711431074273736e-01  1.8551134100722549e-01  2.8493338261843087e-01  3.6726932804999957e-01  5.8914633133288363e-01  8.0054836265777529e-01  8.8852479460572420e-01  9.2747754697681861e-01  9.4782755471918512e-01  9.5922184453254911e-01  9.6591941504738943e-01  9.6993449591066339e-01  9.7226495542198177e-01  9.7338647631260244e-01  9.7342272272155539e-01  9.7217190836835643e-01  9.6914962063662802e-01  9.6385258637852333e-01  9.5600811004995989e-01  9.4459548049595532e-01  9.1768844023699780e-01  8.3336142947728220e-01  7.9822798761312130e-01  2.3807672414328801e-01  9.0577835075111343e-02  7.5824864753762433e-02  7.1627313937770956e-02  6.9298840646414353e-02  6.7736289448978554e-02  6.6622317396872743e-02  6.4584194997007363e-02  1.1655289055492833e-01  1.1606432586986437e-01  6.2694185702761071e-02  6.3178302876883100e-02  6.3523793476832971e-02  6.3833932386575948e-02  6.4291490786651362e-02  6.5381460674409725e-02  6.7256697672415128e-02  6.956274188