<?xml version="1.0"?>
<VTKFile type="UnstructuredGrid"  version="0.1"  >
<UnstructuredGrid>
<Piece  NumberOfPoints="1681" NumberOfCells="3200">
<Points>
<DataArray  type="Float64"  NumberOfComponents="3"  format="ascii">0 0 0  0.025 0 0  0.05 0 0  0.075 0 0  0.1 0 0  0.125 0 0  0.15 0 0  0.175 0 0  0.2 0 0  0.225 0 0  0.25 0 0  0.275 0 0  0.3 0 0  0.325 0 0  0.35 0 0  0.375 0 0  0.4 0 0  0.425 0 0  0.45 0 0  0.475 0 0  0.5 0 0  0.525 0 0  0.55 0 0  0.575 0 0  0.6 0 0  0.625 0 0  0.65 0 0  0.675 0 0  0.7 0 0  0.725 0 0  0.75 0 0  0.775 0 0  0.8 0 0  0.825 0 0  0.85 0 0  0.875 0 0  0.9 0 0  0.925 0 0  0.95 0 0  0.975 0 0  1 0 0  0 0.025 0  0.025 0.025 0  0.05 0.025 0  0.075 0.025 0  0.1 0.025 0  0.125 0.025 0  0.15 0.025 0  0.175 0.025 0  0.2 0.025 0  0.225 0.025 0  0.25 0.025 0  0.275 0.025 0  0.3 0.025 0  0.325 0.025 0  0.35 0.025 0  0.375 0.025 0  0.4 0.025 0  0.425 0.025 0  0.45 0.025 0  0.475 0.025 0  0.5 0.025 0  0.525 0.025 0  0.55 0.025 0  0.575 0.025 0  0.6 0.025 0  0.625 0.025 0  0.65 0.025 0  0.675 0.025 0  0.7 0.025 0  0.725 0.025 0  0.75 0.025 0  0.775 0.025 0  0.8 0.025 0  0.825 0.025 0  0.85 0.025 0  0.875 0.025 0  0.9 0.025 0  0.925 0.025 0  0.95 0.025 0  0.975 0.025 0  1 0.025 0  0 0.05 0  0.025 0.05 0  0.05 0.05 0  0.075 0.05 0  0.1 0.05 0  0.125 0.05 0  0.15 0.05 0  0.175 0.05 0  0.2 0.05 0  0.225 0.05 0  0.25 0.05 0  0.275 0.05 0  0.3 0.05 0  0.325 0.05 0  0.35 0.05 0  0.375 0.05 0  0.4 0.05 0  0.425 0.05 0  0.45 0.05 0  0.475 0.05 0  0.5 0.05 0  0.525 0.05 0  0.55 0.05 0  0.575 0.05 0  0.6 0.05 0  0.625 0.05 0  0.65 0.05 0  0.675 0.05 0  0.7 0.05 0  0.725 0.05 0  0.75 0.05 0  0.775 0.05 0  0.8 0.05 0  0.825 0.05 0  0.85 0.05 0  0.875 0.05 0  0.9 0.05 0  0.925 0.05 0  0.95 0.05 0  0.975 0.05 0  1 0.05 0  0 0.075 0  0.025 0.075 0  0.05 0.075 0  0.075 0.075 0  0.1 0.075 0  0.125 0.075 0  0.15 0.075 0  0.175 0.075 0  0.2 0.075 0  0.225 0.075 0  0.25 0.075 0  0.275 0.075 0  0.3 0.075 0  0.325 0.075 0  0.35 0.075 0  0.375 0.075 0  0.4 0.075 0  0.425 0.075 0  0.45 0.075 0  0.475 0.075 0  0.5 0.075 0  0.525 0.075 0  0.55 0.075 0  0.575 0.075 0  0.6 0.075 0  0.625 0.075 0  0.65 0.075 0  0.675 0.075 0  0.7 0.075 0  0.725 0.075 0  0.75 0.075 0  0.775 0.075 0  0.8 0.075 0  0.825 0.075 0  0.85 0.075 0  0.875 0.075 0  0.9 0.075 0  0.925 0.075 0  0.95 0.075 0  0.975 0.075 0  1 0.075 0  0 0.1 0  0.025 0.1 0  0.05 0.1 0  0.075 0.1 0  0.1 0.1 0  0.125 0.1 0  0.15 0.1 0  0.175 0.1 0  0.2 0.1 0  0.225 0.1 0  0.25 0.1 0  0.275 0.1 0  0.3 0.1 0  0.325 0.1 0  0.35 0.1 0  0.375 0.1 0  0.4 0.1 0  0.425 0.1 0  0.45 0.1 0  0.475 0.1 0  0.5 0.1 0  0.525 0.1 0  0.55 0.1 0  0.575 0.1 0  0.6 0.1 0  0.625 0.1 0  0.65 0.1 0  0.675 0.1 0  0.7 0.1 0  0.725 0.1 0  0.75 0.1 0  0.775 0.1 0  0.8 0.1 0  0.825 0.1 0  0.85 0.1 0  0.875 0.1 0  0.9 0.1 0  0.925 0.1 0  0.95 0.1 0  0.975 0.1 0  1 0.1 0  0 0.125 0  0.025 0.125 0  0.05 0.125 0  0.075 0.125 0  0.1 0.125 0  0.125 0.125 0  0.15 0.125 0  0.175 0.125 0  0.2 0.125 0  0.225 0.125 0  0.25 0.125 0  0.275 0.125 0  0.3 0.125 0  0.325 0.125 0  0.35 0.125 0  0.375 0.125 0  0.4 0.125 0  0.425 0.125 0  0.45 0.125 0  0.475 0.125 0  0.5 0.125 0  0.525 0.125 0  0.55 0.125 0  0.575 0.125 0  0.6 0.125 0  0.625 0.125 0  0.65 0.125 0  0.675 0.125 0  0.7 0.125 0  0.725 0.125 0  0.75 0.125 0  0.775 0.125 0  0.8 0.125 0  0.825 0.125 0  0.85 0.125 0  0.875 0.125 0  0.9 0.125 0  0.925 0.125 0  0.95 0.125 0  0.975 0.125 0  1 0.125 0  0 0.15 0  0.025 0.15 0  0.05 0.15 0  0.075 0.15 0  0.1 0.15 0  0.125 0.15 0  0.15 0.15 0  0.175 0.15 0  0.2 0.15 0  0.225 0.15 0  0.25 0.15 0  0.275 0.15 0  0.3 0.15 0  0.325 0.15 0  0.35 0.15 0  0.375 0.15 0  0.4 0.15 0  0.425 0.15 0  0.45 0.15 0  0.475 0.15 0  0.5 0.15 0  0.525 0.15 0  0.55 0.15 0  0.575 0.15 0  0.6 0.15 0  0.625 0.15 0  0.65 0.15 0  0.675 0.15 0  0.7 0.15 0  0.725 0.15 0  0.75 0.15 0  0.775 0.15 0  0.8 0.15 0  0.825 0.15 0  0.85 0.15 0  0.875 0.15 0  0.9 0.15 0  0.925 0.15 0  0.95 0.15 0  0.975 0.15 0  1 0.15 0  0 0.175 0  0.025 0.175 0  0.05 0.175 0  0.075 0.175 0  0.1 0.175 0  0.125 0.175 0  0.15 0.175 0  0.175 0.175 0  0.2 0.175 0  0.225 0.175 0  0.25 0.175 0  0.275 0.175 0  0.3 0.175 0  0.325 0.175 0  0.35 0.175 0  0.375 0.175 0  0.4 0.175 0  0.425 0.175 0  0.45 0.175 0  0.475 0.175 0  0.5 0.175 0  0.525 0.175 0  0.55 0.175 0  0.575 0.175 0  0.6 0.175 0  0.625 0.175 0  0.65 0.175 0  0.675 0.175 0  0.7 0.175 0  0.725 0.175 0  0.75 0.175 0  0.775 0.175 0  0.8 0.175 0  0.825 0.175 0  0.85 0.175 0  0.875 0.175 0  0.9 0.175 0  0.925 0.175 0  0.95 0.175 0  0.975 0.175 0  1 0.175 0  0 0.2 0  0.025 0.2 0  0.05 0.2 0  0.075 0.2 0  0.1 0.2 0  0.125 0.2 0  0.15 0.2 0  0.175 0.2 0  0.2 0.2 0  0.225 0.2 0  0.25 0.2 0  0.275 0.2 0  0.3 0.2 0  0.325 0.2 0  0.35 0.2 0  0.375 0.2 0  0.4 0.2 0  0.425 0.2 0  0.45 0.2 0  0.475 0.2 0  0.5 0.2 0  0.525 0.2 0  0.55 0.2 0  0.575 0.2 0  0.6 0.2 0  0.625 0.2 0  0.65 0.2 0  0.675 0.2 0  0.7 0.2 0  0.725 0.2 0  0.75 0.2 0  0.775 0.2 0  0.8 0.2 0  0.825 0.2 0  0.85 0.2 0  0.875 0.2 0  0.9 0.2 0  0.925 0.2 0  0.95 0.2 0  0.975 0.2 0  1 0.2 0  0 0.225 0  0.025 0.225 0  0.05 0.225 0  0.075 0.225 0  0.1 0.225 0  0.125 0.225 0  0.15 0.225 0  0.175 0.225 0  0.2 0.225 0  0.225 0.225 0  0.25 0.225 0  0.275 0.225 0  0.3 0.225 0  0.325 0.225 0  0.35 0.225 0  0.375 0.225 0  0.4 0.225 0  0.425 0.225 0  0.45 0.225 0  0.475 0.225 0  0.5 0.225 0  0.525 0.225 0  0.55 0.225 0  0.575 0.225 0  0.6 0.225 0  0.625 0.225 0  0.65 0.225 0  0.675 0.225 0  0.7 0.225 0  0.725 0.225 0  0.75 0.225 0  0.775 0.225 0  0.8 0.225 0  0.825 0.225 0  0.85 0.225 0  0.875 0.225 0  0.9 0.225 0  0.925 0.225 0  0.95 0.225 0  0.975 0.225 0  1 0.225 0  0 0.25 0  0.025 0.25 0  0.05 0.25 0  0.075 0.25 0  0.1 0.25 0  0.125 0.25 0  0.15 0.25 0  0.175 0.25 0  0.2 0.25 0  0.225 0.25 0  0.25 0.25 0  0.275 0.25 0  0.3 0.25 0  0.325 0.25 0  0.35 0.25 0  0.375 0.25 0  0.4 0.25 0  0.425 0.25 0  0.45 0.25 0  0.475 0.25 0  0.5 0.25 0  0.525 0.25 0  0.55 0.25 0  0.575 0.25 0  0.6 0.25 0  0.625 0.25 0  0.65 0.25 0  0.675 0.25 0  0.7 0.25 0  0.725 0.25 0  0.75 0.25 0  0.775 0.25 0  0.8 0.25 0  0.825 0.25 0  0.85 0.25 0  0.875 0.25 0  0.9 0.25 0  0.925 0.25 0  0.95 0.25 0  0.975 0.25 0  1 0.25 0  0 0.275 0  0.025 0.275 0  0.05 0.275 0  0.075 0.275 0  0.1 0.275 0  0.125 0.275 0  0.15 0.275 0  0.175 0.275 0  0.2 0.275 0  0.225 0.275 0  0.25 0.275 0  0.275 0.275 0  0.3 0.275 0  0.325 0.275 0  0.35 0.275 0  0.375 0.275 0  0.4 0.275 0  0.425 0.275 0  0.45 0.275 0  0.475 0.275 0  0.5 0.275 0  0.525 0.275 0  0.55 0.275 0  0.575 0.275 0  0.6 0.275 0  0.625 0.275 0  0.65 0.275 0  0.675 0.275 0  0.7 0.275 0  0.725 0.275 0  0.75 0.275 0  0.775 0.275 0  0.8 0.275 0  0.825 0.275 0  0.85 0.275 0  0.875 0.275 0  0.9 0.275 0  0.925 0.275 0  0.95 0.275 0  0.975 0.275 0  1 0.275 0  0 0.3 0  0.025 0.3 0  0.05 0.3 0  0.075 0.3 0  0.1 0.3 0  0.125 0.3 0  0.15 0.3 0  0.175 0.3 0  0.2 0.3 0  0.225 0.3 0  0.25 0.3 0  0.275 0.3 0  0.3 0.3 0  0.325 0.3 0  0.35 0.3 0  0.375 0.3 0  0.4 0.3 0  0.425 0.3 0  0.45 0.3 0  0.475 0.3 0  0.5 0.3 0  0.525 0.3 0  0.55 0.3 0  0.575 0.3 0  0.6 0.3 0  0.625 0.3 0  0.65 0.3 0  0.675 0.3 0  0.7 0.3 0  0.725 0.3 0  0.75 0.3 0  0.775 0.3 0  0.8 0.3 0  0.825 0.3 0  0.85 0.3 0  0.875 0.3 0  0.9 0.3 0  0.925 0.3 0  0.95 0.3 0  0.975 0.3 0  1 0.3 0  0 0.325 0  0.025 0.325 0  0.05 0.325 0  0.075 0.325 0  0.1 0.325 0  0.125 0.325 0  0.15 0.325 0  0.175 0.325 0  0.2 0.325 0  0.225 0.325 0  0.25 0.325 0  0.275 0.325 0  0.3 0.325 0  0.325 0.325 0  0.35 0.325 0  0.375 0.325 0  0.4 0.325 0  0.425 0.325 0  0.45 0.325 0  0.475 0.325 0  0.5 0.325 0  0.525 0.325 0  0.55 0.325 0  0.575 0.325 0  0.6 0.325 0  0.625 0.325 0  0.65 0.325 0  0.675 0.325 0  0.7 0.325 0  0.725 0.325 0  0.75 0.325 0  0.775 0.325 0  0.8 0.325 0  0.825 0.325 0  0.85 0.325 0  0.875 0.325 0  0.9 0.325 0  0.925 0.325 0  0.95 0.325 0  0.975 0.325 0  1 0.325 0  0 0.35 0  0.025 0.35 0  0.05 0.35 0  0.075 0.35 0  0.1 0.35 0  0.125 0.35 0  0.15 0.35 0  0.175 0.35 0  0.2 0.35 0  0.225 0.35 0  0.25 0.35 0  0.275 0.35 0  0.3 0.35 0  0.325 0.35 0  0.35 0.35 0  0.375 0.35 0  0.4 0.35 0  0.425 0.35 0  0.45 0.35 0  0.475 0.35 0  0.5 0.35 0  0.525 0.35 0  0.55 0.35 0  0.575 0.35 0  0.6 0.35 0  0.625 0.35 0  0.65 0.35 0  0.675 0.35 0  0.7 0.35 0  0.725 0.35 0  0.75 0.35 0  0.775 0.35 0  0.8 0.35 0  0.825 0.35 0  0.85 0.35 0  0.875 0.35 0  0.9 0.35 0  0.925 0.35 0  0.95 0.35 0  0.975 0.35 0  1 0.35 0  0 0.375 0  0.025 0.375 0  0.05 0.375 0  0.075 0.375 0  0.1 0.375 0  0.125 0.375 0  0.15 0.375 0  0.175 0.375 0  0.2 0.375 0  0.225 0.375 0  0.25 0.375 0  0.275 0.375 0  0.3 0.375 0  0.325 0.375 0  0.35 0.375 0  0.375 0.375 0  0.4 0.375 0  0.425 0.375 0  0.45 0.375 0  0.475 0.375 0  0.5 0.375 0  0.525 0.375 0  0.55 0.375 0  0.575 0.375 0  0.6 0.375 0  0.625 0.375 0  0.65 0.375 0  0.675 0.375 0  0.7 0.375 0  0.725 0.375 0  0.75 0.375 0  0.775 0.375 0  0.8 0.375 0  0.825 0.375 0  0.85 0.375 0  0.875 0.375 0  0.9 0.375 0  0.925 0.375 0  0.95 0.375 0  0.975 0.375 0  1 0.375 0  0 0.4 0  0.025 0.4 0  0.05 0.4 0  0.075 0.4 0  0.1 0.4 0  0.125 0.4 0  0.15 0.4 0  0.175 0.4 0  0.2 0.4 0  0.225 0.4 0  0.25 0.4 0  0.275 0.4 0  0.3 0.4 0  0.325 0.4 0  0.35 0.4 0  0.375 0.4 0  0.4 0.4 0  0.425 0.4 0  0.45 0.4 0  0.475 0.4 0  0.5 0.4 0  0.525 0.4 0  0.55 0.4 0  0.575 0.4 0  0.6 0.4 0  0.625 0.4 0  0.65 0.4 0  0.675 0.4 0  0.7 0.4 0  0.725 0.4 0  0.75 0.4 0  0.775 0.4 0  0.8 0.4 0  0.825 0.4 0  0.85 0.4 0  0.875 0.4 0  0.9 0.4 0  0.925 0.4 0  0.95 0.4 0  0.975 0.4 0  1 0.4 0  0 0.425 0  0.025 0.425 0  0.05 0.425 0  0.075 0.425 0  0.1 0.425 0  0.125 0.425 0  0.15 0.425 0  0.175 0.425 0  0.2 0.425 0  0.225 0.425 0  0.25 0.425 0  0.275 0.425 0  0.3 0.425 0  0.325 0.425 0  0.35 0.425 0  0.375 0.425 0  0.4 0.425 0  0.425 0.425 0  0.45 0.425 0  0.475 0.425 0  0.5 0.425 0  0.525 0.425 0  0.55 0.425 0  0.575 0.425 0  0.6 0.425 0  0.625 0.425 0  0.65 0.425 0  0.675 0.425 0  0.7 0.425 0  0.725 0.425 0  0.75 0.425 0  0.775 0.425 0  0.8 0.425 0  0.825 0.425 0  0.85 0.425 0  0.875 0.425 0  0.9 0.425 0  0.925 0.425 0  0.95 0.425 0  0.975 0.425 0  1 0.425 0  0 0.45 0  0.02
[...]
<PointData  Scalars="ControlVisualisation"> 
<DataArray  type="Float64"  Name="ControlVisualisation"  format="ascii">1.7283730921244303e-06  1.1489321489616287e-06  1.1489797632754726e-06  1.1490594293436756e-06  1.1491687329926191e-06  1.1493047494951881e-06  1.1494638557385420e-06  1.1496418638020728e-06  1.1498339951272334e-06  1.1500353176758894e-06  1.1502404540959201e-06  1.1504443547980274e-06  1.1506418398762627e-06  1.1508277661261281e-06  1.1509977549042477e-06  1.1511476090233575e-06  1.1512735813397414e-06  1.1513726805716864e-06  1.1514427742422286e-06  1.1514820903510599e-06  1.1514895637229780e-06  1.1514647504143534e-06  1.1514090023162346e-06  1.1513232042288226e-06  1.1512093253207573e-06  1.1510702010719399e-06  1.1509092031505776e-06  1.1507301935299675e-06  1.1505376711415879e-06  1.1503364397017890e-06  1.1501315082224480e-06  1.1499279229102687e-06  1.1497311340405717e-06  1.1495461017453951e-06  1.1493776676953659e-06  1.1492303852531165e-06  1.1491081100525166e-06  1.1490140707460001e-06  1.1489510790283299e-06  1.1489197481024615e-06  3.4667334617989083e-06  1.1489322624979983e-06  5.6948338430497546e-07  5.6953020452540627e-07  5.6961264658901776e-07  5.6972938752741555e-07  5.6987728450845579e-07  5.7005236906892081e-07  5.7025004424579108e-07  5.7046511926496543e-07  5.7069191056018786e-07  5.7092459781047858e-07  5.7115710198453176e-07  5.7138380966059080e-07  5.7159873042173835e-07  5.7179660921443174e-07  5.7197271406151005e-07  5.7212264557313275e-07  5.7224262303951772e-07  5.7233005528627128e-07  5.7238282352308347e-07  5.7239956466048445e-07  5.7237965114404854e-07  5.7232393475142284e-07  5.7223382254911905e-07  5.7211105026278028e-07  5.7195891594754074e-07  5.7178097295700555e-07  5.7158151716840501e-07  5.7136553101859095e-07  5.7113845704613585e-07  5.7090598853329028e-07  5.7067378594051868e-07  5.7044799460977246e-07  5.7023441584355669e-07  5.7003847895181090e-07  5.6986546149031636e-07  5.6971992742533473e-07  5.6960567876881376e-07  5.6952572070335406e-07  5.6947970737645266e-07  1.1489197646933060e-06  1.1489810560899119e-06  5.6953116661257485e-07  5.6958987866956116e-07  5.6968394066332103e-07  5.6981741001830690e-07  5.6998686218240996e-07  5.7018780769438415e-07  5.7041484758306057e-07  5.7066211657885374e-07  5.7092312064403792e-07  5.7119107866624410e-07  5.7145905708900175e-07  5.7172036430350687e-07  5.7196847817521712e-07  5.7219701444702288e-07  5.7240067127324056e-07  5.7257425137170962e-07  5.7271353709099783e-07  5.7281523888859193e-07  5.7287718789923674e-07  5.7289764099851141e-07  5.7287609838846674e-07  5.7281306794211675e-07  5.7271031004838724e-07  5.7257001904239793e-07  5.7239570863957881e-07  5.7219159797604021e-07  5.7196247815326694e-07  5.7171422721608733e-07  5.7145287615627822e-07  5.7118511893201835e-07  5.7091757156235916e-07  5.7065707851832322e-07  5.7041050341000329e-07  5.7018410208447416e-07  5.6998390700899465e-07  5.6981519644637376e-07  5.6968238013117995e-07  5.6958851006151773e-07  5.6952654074138267e-07  1.1489515004733470e-06  1.1490656473079555e-06  5.6961800012735107e-07  5.6968883088931446e-07  5.6978404673296236e-07  5.6991843427571981e-07  5.7008899120002443e-07  5.7029128735209679e-07  5.7051988045971675e-07  5.7076867759613161e-07  5.7103140316151807e-07  5.7130102671604179e-07  5.7157064213197533e-07  5.7183345321962377e-07  5.7208298479698770e-07  5.7231280535749796e-07  5.7251759580816039e-07  5.7269211539948151e-07  5.7283206555694968e-07  5.7293447977251203e-07  5.7299672588936357e-07  5.7301739646774976e-07  5.7299592629120622e-07  5.7293271995222062e-07  5.7282941690370107e-07  5.7268863619324591e-07  5.7251364324224630e-07  5.7230845411926793e-07  5.7207820502384114e-07  5.7182860820006737e-07  5.7156583672850594e-07  5.7129635304506802e-07  5.7102704319586416e-07  5.7076484365495039e-07  5.7051654012619854e-07  5.7028850464092186e-07  5.7008678371176768e-07  5.6991672135275431e-07  5.6978275357485642e-07  5.6968720207268536e-07  5.6961052248708721e-07  1.1490170184715664e-06  1.1491881045115837e-06  5.6974723605146007e-07  5.6983630959811816e-07  5.6993248870894714e-07  5.7006697541711302e-07  5.7023755385169017e-07  5.7043978362057273e-07  5.7066827111550458e-07  5.7091690259589786e-07  5.7117928599679638e-07  5.7144856166070975e-07  5.7171769677619759e-07  5.7197986977060402e-07  5.7222874264020029e-07  5.7245806703879629e-07  5.7266193652132488e-07  5.7283588676521369e-07  5.7297533915557091e-07  5.7307745998586412e-07  5.7313950869040462e-07  5.7315993797213496e-07  5.7313842039203204e-07  5.7307550719722691e-07  5.7297264340945174e-07  5.7283240307437220e-07  5.7265797922598010e-07  5.7245339594498315e-07  5.7222381911121639e-07  5.7197483345549976e-07  5.7171263172336523e-07  5.7144361537847293e-07  5.7117462716674161e-07  5.7091265430803344e-07  5.7066453828072789e-07  5.7043657055198349e-07  5.7023483452364064e-07  5.7006474421564311e-07  5.6993067095012619e-07  5.6983385036072444e-07  5.6973644525725183e-07  1.1491191868466995e-06  1.1493519372635549e-06  5.6992253694291067e-07  5.7003671695482502e-07  5.7013415502402743e-07  5.7026861288365413e-07  5.7043912620985180e-07  5.7064117929789203e-07  5.7086937638615924e-07  5.7111758832509694e-07  5.7137933235335391e-07  5.7164775769219784e-07  5.7191614635112988e-07  5.7217738954268388e-07  5.7242495443834115e-07  5.7265326730583811e-07  5.7285622844223112e-07  5.7302897507351084e-07  5.7316761248946520e-07  5.7326898398257920e-07  5.7333076657238885e-07  5.7335103605777732e-07  5.7332950188717400e-07  5.7326706290010055e-07  5.7316486897806567e-07  5.7302538185300296e-07  5.7285178894042857e-07  5.7264827841700505e-07  5.7241974452858568e-07  5.7217182005135429e-07  5.7191056561426689e-07  5.7164237020700630e-07  5.7137404776181755e-07  5.7111264268922196e-07  5.7086490538780829e-07  5.7063720605422849e-07  5.7043564241799264e-07  5.7026563779608247e-07  5.7013150021275728e-07  5.7003306179071035e-07  5.6990790588469767e-07  1.1492606102935751e-06  1.1495617157557180e-06  5.7014883063494219e-07  5.7029568735448688e-07  5.7039482542042781e-07  5.7052922166804673e-07  5.7069951596127433e-07  5.7090118271740478e-07  5.7112888576838889e-07  5.7137645285107866e-07  5.7163731775930205e-07  5.7190454044376240e-07  5.7217156770465167e-07  5.7243149974547299e-07  5.7267760472806707e-07  5.7290411366658205e-07  5.7310564066815218e-07  5.7327713283608190e-07  5.7341465755349739e-07  5.7351494800668437e-07  5.7357596557238067e-07  5.7359618805626791e-07  5.7357490109179318e-07  5.7351288556727336e-07  5.7341159794859974e-07  5.7327319253089403e-07  5.7310094808779498e-07  5.7289880696564981e-07  5.7267181027732627e-07  5.7242532309940236e-07  5.7216541248636685e-07  5.7189841183238757e-07  5.7163112172651157e-07  5.7137060736012997e-07  5.7112347868693426e-07  5.7089622672602273e-07  5.7069497640114600e-07  5.7052514209343273e-07  5.7039097838587874e-07  5.7029053989368673e-07  5.7012975979334621e-07  1.1494452081744967e-06  1.1498235361067118e-06  5.7043271475532125e-07  5.7062074987647970e-07  5.7072188591684019e-07  5.7085609341672664e-07  5.7102599367138613e-07  5.7122711576986616e-07  5.7145396887315189e-07  5.7170048305189646e-07  5.7195999965917262e-07  5.7222567589784599e-07  5.7249083238581854e-07  5.7274874905682707e-07  5.7299281550466587e-07  5.7321704586322353e-07  5.7341641789546378e-07  5.7358605907313890e-07  5.7372205236064223e-07  5.7382121245814095e-07  5.7388135453294735e-07  5.7390118532954048e-07  5.7388025740511530e-07  5.7381890692866912e-07  5.7371867467864194e-07  5.7358180689427067e-07  5.7341134565546465e-07  5.7321124856714034e-07  5.7298634389234134e-07  5.7274184314700849e-07  5.7248375207122748e-07  5.7221853629274275e-07  5.7195283143533934e-07  5.7169354687580142e-07  5.7144735729375907e-07  5.7122083361495567e-07  5.7102010129842176e-07  5.7085059801473324e-07  5.7071653356401313e-07  5.7061366705004103e-07  5.7040837269204768e-07  1.1496782867442175e-06  1.1501449047053187e-06  5.7078248443193745e-07  5.7102143306129538e-07  5.7112495405475202e-07  5.7125886705860220e-07  5.7142803556100379e-07  5.7162825636573429e-07  5.7185381895727276e-07  5.7209873319845797e-07  5.7235624181029511e-07  5.7261958886499771e-07  5.7288201673678614e-07  5.7313708498991927e-07  5.7337837111411544e-07  5.7359972514262178e-07  5.7379609819035980e-07  5.7396326653697503e-07  5.7409706225187432e-07  5.7419456236652504e-07  5.7425382030387438e-07  5.7427320237090635e-07  5.7425251027582542e-07  5.7419216023094288e-07  5.7409342729117458e-07  5.7395862536910824e-07  5.7379063212514363e-07  5.7359324415285615e-07  5.7337115556239003e-07  5.7312944087476039e-07  5.7287403342293582e-07  5.7261132856175674e-07  5.7234780790958209e-07  5.7209027321809158e-07  5.7184549409189676e-07  5.7162013782378290e-07  5.7142029855232709e-07  5.7125139472823690e-07  5.7111755567885939e-07  5.7101177951620419e-07  5.7075177011233929e-07  1.1499664004108964e-06  1.1505351103926812e-06  5.7120826325727688e-07  5.7150937460455205e-07  5.7161578064536946e-07  5.7174914004283332e-07  5.7191724727591894e-07  5.7211603908304432e-07  5.7233966024486398e-07  5.7258215916218765e-07  5.7283679034758716e-07  5.7309695419152339e-07  5.7335566051133280e-07  5.7360657003226445e-07  5.7384375881971988e-07  5.7406112109481002e-07  5.7425371317446387e-07  5.7441744617409675e-07  5.7454843484600190e-07  5.7464367282074824e-07  5.7470156510787350e-07  5.7472061486352214e-07  5.7470021215967059e-07  5.7464111791656159e-07  5.7454456756075599e-07  5.7441245023744008e-07  5.7424775775318706e-07  5.7405399191151715e-07  5.7383577509048788e-07  5.7359795855669600e-07  5.7334641227718803e-07  5.7308718272364338e-07  5.7282671454884386e-07  5.7257179589568472e-07  5.7232925173328397e-07  5.7210564146572891e-07  5.7190709507903208e-07  5.7173911734217662e-07  5.7160573586588071e-07  5.7149656471362725e-07  5.7117001428275008e-07  1.1503179007262335e-06  1.1510058577140209e-06  5.7172311543902412e-07  5.7209943628519024e-07  5.7220913279570210e-07  5.7234154621218975e-07  5.7250798103405111e-07  5.7270456216775865e-07  5.7292543067036430e-07  5.7316443889381355e-07  5.7341487371847287e-07  5.7367016447811176e-07  5.7392385553792294e-07  5.7416931093372401e-07  5.7440074947414387e-07  5.7461263852663921e-07  5.7479993597449993e-07  5.7495909020384816e-07  5.7508624296207079e-07  5.7517878910401326e-07  5.7523475459749829e-07  5.7525307094339357e-07  5.7523326191648390e-07  5.7517590525138653e-07  5.7508209561217100e-07  5.7495375946084731e-07  5.7479342538674821e-07  5.7460469574812317e-07  5.7439169657590819e-07  5.7415943678026840e-07  5.7391317554777468e-07  5.7365876776316540e-07  5.7340268900739375e-07  5.7315163822988843e-07  5.7291233736692802e-07  5.7269131076364262e-07  5.7249474608433867e-07  5.7232820336389524e-07  5.7219559264983319e-07  5.7208248542039165e-07  5.7167556358076819e-07  1.1507429940161342e-06  1.1515712612065337e-06  5.7234269967870569e-07  5.7281001680176895e-07  5.7292331286230783e-07  5.7305423906223647e-07  5.7321827144743549e-07  5.7341151392256937e-07  5.7362833280487344e-07  5.7386220330549263e-07  5.7410676726352489e-07  5.7435509312408684e-07  5.7460135562388118e-07  5.7483939330112185e-07  5.7506285495914299e-07  5.7526725546145565e-07  5.7544761857743271e-07  5.7560040339202106e-07  5.7572240700838766e-07  5.7581126182600465e-07  5.7586493501969037e-07  5.7588222344459760e-07  5.7586318119497885e-07  5.7580829732228554e-07  5.7571811946959689e-07  5.7559467474489220e-07  5.7544041358830915e-07  5.7525853337008760e-07  5.7505282341277798e-07  5.7482809342386623e-07  5.7458920415786215e-07  5.7434161714666157e-07  5.7409189399283470e-07  5.7384646548347519e-07  5.7361177867767385e-07  5.7339449465363862e-07  5.7320084345973450e-07  5.7303655990485693e-07  5.7290522697885103e-07  5.7278746276007209e-07  5.7228370259879636e-07  1.1512543011951515e-06  1.1522488942921326e-06  5.7308645579805471e-07  5.7366323724952252e-07  5.7378091548691533e-07  5.7390948995937041e-07  5.7407009093292268e-07  5.7425855626810696e-07  5.7446929010936429e-07  5.7469583980570708e-07  5.7493189584708289e-07  5.7517076338330850e-07  5.7540636373654949e-07  5.7563351817959775e-07  5.7584645803079825e-07  5.7604042258532609e-07  5.7621140903111647e-07  5.7635561045798374e-07  5.7647088144898955e-07  5.7655455535764136e-07  5.7660501959006285e-07  5.7662137869063303e-07  5.7660349565579608e-07  5.7655146637219023e-07  5.7646633224243889e-07  5.7634962471461174e-07  5.7620354916807182e-07  5.7603092285438383e-07  5.7583530505717559e-07  5.7562090207874268e-07  5.7539227041693698e-07  5.7515449541275387e-07  5.7491383478941130e-07  5.7467643398415354e-07  5.7444849596264310e-07  5.7423672155604574e-07  5.7404733412357914e-07  5.7388606906195527e-07  5.7375642331530507e-07  5.7363329430124173e-07  5.7301329699702799e-07  1.1518672030106956e-06  1.1530604168793163e-06  5.7397868062205833e-07  5.7468672438071918e-07  5.7480953435897950e-07  5.7493512105937333e-07  5.7509060852894024e-07  5.7527223719019172e-07  5.7547424358846035e-07  5.7569024122251790e-07  5.7591396616438836e-07  5.7613928738463902e-07  5.7636048987829263e-07  5.7657242809337252e-07  5.7677022560572937e-07  5.7695008569979377e-07  5.7710819321600009e-07  5.7724113155363807e-07  5.7734710474388715e-07  5.7742397291372927e-07  5.7747023052812259e-07  5.7748531783930533e-07  5.7746880153385796e-07  5.7742091078504857e-07  5.7734247443019658e-07  5.7723497934276183e-07  5.7709993438718853e-07  5.7693993598843753e-07  5.7675815068599043e-07  5.7655817265530461e-07  5.7634392935002980e-07  5.7612012224013566e-07  5.7589240128104980e-07  5.7566638050620782e-07  5.7544812981990812e-07  5.7524424716277327e-07  5.7506082422433349e-07  5.7490375122961797e-07  5.7477645664009181e-07  5.7464693765541131e-07  5.7388734048349059e-07  1.1526005560763944e-06  1.1540307122111163e-06  5.7504836055441714e-07  5.7591493226651174e-07  5.7604348752094693e-07  5.7616518253778990e-07  5.7631417249184657e-07  5.7648630502650714e-07  5.7667575838054032e-07  5.7687630446290589e-07  5.7708230760608768e-07  5.7728814481225213e-07  5.7748839433121753e-07  5.7767923111194031e-07  5.7785656547663401e-07  5.7801690191289317e-07  5.7815716283807702e-07  5.7827522624234836e-07  5.7836888449876057e-07  5.7843657186081644e-07  5.7847724143212114e-07  5.7849065378540222e-07  5.7847594745996096e-07  5.7843347279652048e-07  5.7836427931434511e-07  5.7826879980491258e-07  5.7814885721319682e-07  5.7800623088471030e-07  5.7784346066589114e-07  5.7766358359124819e-07  5.7746968703137667e-07  5.7726576989337432e-07  5.7705662780880736e-07  5.7684709925754830e-07  5.7664286242295252e-07  5.7645006751540487e-07  5.7627479152582961e-07  5.7612329993662955e-07  5.7599903116930447e-07  5.7586181190913521e-07  5.7493399843473413e-07  1.1534770589238214e-06  1.1551914963776315e-06  5.7633091927787141e-07  5.7738932929722578e-07  5.7752591988293664e-07  5.7764284352607942e-07  5.7778295245742859e-07  5.7794240324133153e-07  5.7811397871789453e-07  5.7829247536276320e-07  5.7847267129164934e-07  5.7865029572889183e-07  5.7882122753860104e-07  5.7898227655106265e-07  5.7913078949019118e-07  5.7926410960056239e-07  5.7938026826128627e-07  5.7947814641417555e-07  5.7955558395944116e-07  5.7961100578322821e-07  5.7964453090490212e-07  5.7965543212250907e-07  5.7964318218986685e-07  5.7960815497249119e-07  5.7955107865372671e-07  5.7947205149099669e-07  5.7937236176815387e-07  5.7925355565863755e-07  5.7911713324752779e-07  5.7896537164805617e-07  5.7880028315033950e-07  5.7862485275559331e-07  5.7844243136036404e-07  5.7825674844496255e-07  5.7807272759721814e-07  5.7789567823003022e-07  5.7773150137876202e-07  5.7758692573435362e-07  5.7746568909160293e-07  5.7731839122677928e-07  5.7618765194099789e-07  1.1545242045215851e-06  1.1565801259961005e-06  5.7787058615623325e-07  5.7916191934703144e-07  5.7931011341299257e-07  5.7942315673874608e-07  5.7955244556080887e-07  5.7969386715613392e-07  5.7984031331372190e-07  5.7998646705585811e-07  5.8012902756122573e-07  5.8026579282250941e-07  5.8039421087482785e-07  5.8051336581355596e-07  5.8062182776125527e-07  5.8071854882292951e-07  5.8080226929718065e-07  5.8087219796032854e-07  5.8092803260721924e-07  5.8096762746601414e-07  5.8099149271936674e-07  5.8099943609948073e-07  5.8099062721908869e-07  5.8096565435841707e-07  5.8092420572120964e-07  5.8086715776185965e-07  5.8079502617805212e-07  5.8070865609673059e-07  5.8060871908767222e-07  5.8049622721677369e-07  5.8037205729494116e-07  5.8023754098558825e-07  5.8009400309563734e-07  5.7994333629637325e-07  5.7978872873859835e-07  5.7963388259664070e-07  5.7948438718300584e-07  5.7934758836175024e-07  5.7922803046909757e-07  5.7906621595642507e-07  5.7768953854066552e-07  1.1557751833263945e-06  1.1582397452359881e-06  5.7971933801686558e-07  5.8129661357216106e-07  5.8146405411718056e-07  5.8157671153842409e-07  5.8169455195612212e-07  5.8181132875501446e-07  5.8192084932520064e-07  5.8201936334289962e-07  5.8210647023657659e-07  5.8218299654534719e-07  5.8225044580072369e-07  5.8230993648083822e-07  5.8236248877497724e-07  5.8240869367633475e-07  5.8244886068659127e-07  5.8248219977282116e-07  5.8250865337221876e-07  5.8252785641721505e-07  5.8253935716946977e-07  5.8254320586857348e-07  5.8253899349231135e-07  5.8252696739667731e-07  5.8250659328525012e-07  5.8247841848101867e-07  5.8244354230991602e-07  5.8240101508246967e-07  5.8235136631915683e-07  5.8229388945244305e-07  5.8222816040483833e-07  5.8215308984932406e-07  5.8206701073970993e-07  5.8196844309891786e-07  5.8185722405018780e-07  5.8173423455796619e-07  5.8160376059136362e-07  5.8147366834171050e-07  5.8135095447530843e-07  5.8116580968811305e-07  5.7948828463475863e-07  1.1572679696804354e-06  1.1602152988482439e-06  5.8193582910284880e-07  5.8387024167385111e-07  5.8407498263425651e-07  5.8419808363654112e-07  5.8430632093163355e-07  5.8438954708824512e-07  5.8444373554068517e-07  5.8446927029439201e-07  5.8447254038976348e-07  5.8446027046251912e-07  5.8443928063680460e-07  5.8441441830533416e-07  5.8438936801969345e-07  5.8436661557684319e-07  5.8434782594192754e-07  5.8433282506660614e-07  5.8432129289009188e-07  5.8431346524100479e-07  5.8430913299250847e-07  5.8430794569295181e-07  5.8430938933211021e-07  5.8431408680147477e-07  5.8432175921184168e-07  5.8433216804580402e-07  5.8434627690035675e-07  5.8436306638446045e-07  5.8438242939945276e-07  5.8440241070089650e-07  5.8441993069237103e-07  5.8443141936872256e-07  5.8443084550778497e-07  5.8441124662594422e-07  5.8436609790639779e-07  5.8429052016737708e-07  5.8418454743613092e-07  5.8405600792872644e-07  5.8391651223223907e-07  5.8368888280566304e-07  5.8163943597089540e-07  1.1590454727026126e-06  1.1625476133414992e-06  5.8458173079866227e-07  5.8697405288601325e-07  5.8725738750489027e-07  5.8741838970115480e-07  5.8752455174087886e-07  5.8756085081768057e-07  5.8752783565496098e-07  5.8743961799434448e-07  5.8731329961463182e-07  5.8716803985547349e-07  5.8701793190181881e-07  5.8687345004722937e-07  5.8674144966348391e-07  5.8662532359275554e-07  5.8652780839152773e-07  5.8644896911791321e-07  5.8638877594012372e-07  5.8634624565420890e-07  5.8632160884814461e-07  5.8631413393565771e-07  5.8632308839915157e-07  5.8634928399141040e-07  5.8639290013659876e-07  5.8645357899536713e-07  5.8653236253291627e-07  5.8662865637466067e-07  5.8674200196112980e-07  5.8686977527161169e-07  5.8700639813785776e-07  5.8714485059941188e-07  5.8727347814320840e-07  5.8737647747361359e-07  5.8743596959101238e-07  5.8743431568803856e-07  5.8736038585289797e-07  5.8721923278602313e-07  5.8703089152880827e-07  5.8671785904986241e-07  5.8419851511871978e-07  1.1611499241748111e-06  1.1652516740665187e-06  5.8770709536050591e-07  5.9071334759721301e-07  5.9117151759431523e-07  5.9143541361121378e-07  5.9155665386006632e-07  5.9151821750764970e-07  5.9134016393691443e-07  5.910648147