<?xml version="1.0"?>
<VTKFile type="UnstructuredGrid"  version="0.1"  >
<UnstructuredGrid>
<Piece  NumberOfPoints="1681" NumberOfCells="3200">
<Points>
<DataArray  type="Float64"  NumberOfComponents="3"  format="ascii">0 0 0  0.025 0 0  0.05 0 0  0.075 0 0  0.1 0 0  0.125 0 0  0.15 0 0  0.175 0 0  0.2 0 0  0.225 0 0  0.25 0 0  0.275 0 0  0.3 0 0  0.325 0 0  0.35 0 0  0.375 0 0  0.4 0 0  0.425 0 0  0.45 0 0  0.475 0 0  0.5 0 0  0.525 0 0  0.55 0 0  0.575 0 0  0.6 0 0  0.625 0 0  0.65 0 0  0.675 0 0  0.7 0 0  0.725 0 0  0.75 0 0  0.775 0 0  0.8 0 0  0.825 0 0  0.85 0 0  0.875 0 0  0.9 0 0  0.925 0 0  0.95 0 0  0.975 0 0  1 0 0  0 0.025 0  0.025 0.025 0  0.05 0.025 0  0.075 0.025 0  0.1 0.025 0  0.125 0.025 0  0.15 0.025 0  0.175 0.025 0  0.2 0.025 0  0.225 0.025 0  0.25 0.025 0  0.275 0.025 0  0.3 0.025 0  0.325 0.025 0  0.35 0.025 0  0.375 0.025 0  0.4 0.025 0  0.425 0.025 0  0.45 0.025 0  0.475 0.025 0  0.5 0.025 0  0.525 0.025 0  0.55 0.025 0  0.575 0.025 0  0.6 0.025 0  0.625 0.025 0  0.65 0.025 0  0.675 0.025 0  0.7 0.025 0  0.725 0.025 0  0.75 0.025 0  0.775 0.025 0  0.8 0.025 0  0.825 0.025 0  0.85 0.025 0  0.875 0.025 0  0.9 0.025 0  0.925 0.025 0  0.95 0.025 0  0.975 0.025 0  1 0.025 0  0 0.05 0  0.025 0.05 0  0.05 0.05 0  0.075 0.05 0  0.1 0.05 0  0.125 0.05 0  0.15 0.05 0  0.175 0.05 0  0.2 0.05 0  0.225 0.05 0  0.25 0.05 0  0.275 0.05 0  0.3 0.05 0  0.325 0.05 0  0.35 0.05 0  0.375 0.05 0  0.4 0.05 0  0.425 0.05 0  0.45 0.05 0  0.475 0.05 0  0.5 0.05 0  0.525 0.05 0  0.55 0.05 0  0.575 0.05 0  0.6 0.05 0  0.625 0.05 0  0.65 0.05 0  0.675 0.05 0  0.7 0.05 0  0.725 0.05 0  0.75 0.05 0  0.775 0.05 0  0.8 0.05 0  0.825 0.05 0  0.85 0.05 0  0.875 0.05 0  0.9 0.05 0  0.925 0.05 0  0.95 0.05 0  0.975 0.05 0  1 0.05 0  0 0.075 0  0.025 0.075 0  0.05 0.075 0  0.075 0.075 0  0.1 0.075 0  0.125 0.075 0  0.15 0.075 0  0.175 0.075 0  0.2 0.075 0  0.225 0.075 0  0.25 0.075 0  0.275 0.075 0  0.3 0.075 0  0.325 0.075 0  0.35 0.075 0  0.375 0.075 0  0.4 0.075 0  0.425 0.075 0  0.45 0.075 0  0.475 0.075 0  0.5 0.075 0  0.525 0.075 0  0.55 0.075 0  0.575 0.075 0  0.6 0.075 0  0.625 0.075 0  0.65 0.075 0  0.675 0.075 0  0.7 0.075 0  0.725 0.075 0  0.75 0.075 0  0.775 0.075 0  0.8 0.075 0  0.825 0.075 0  0.85 0.075 0  0.875 0.075 0  0.9 0.075 0  0.925 0.075 0  0.95 0.075 0  0.975 0.075 0  1 0.075 0  0 0.1 0  0.025 0.1 0  0.05 0.1 0  0.075 0.1 0  0.1 0.1 0  0.125 0.1 0  0.15 0.1 0  0.175 0.1 0  0.2 0.1 0  0.225 0.1 0  0.25 0.1 0  0.275 0.1 0  0.3 0.1 0  0.325 0.1 0  0.35 0.1 0  0.375 0.1 0  0.4 0.1 0  0.425 0.1 0  0.45 0.1 0  0.475 0.1 0  0.5 0.1 0  0.525 0.1 0  0.55 0.1 0  0.575 0.1 0  0.6 0.1 0  0.625 0.1 0  0.65 0.1 0  0.675 0.1 0  0.7 0.1 0  0.725 0.1 0  0.75 0.1 0  0.775 0.1 0  0.8 0.1 0  0.825 0.1 0  0.85 0.1 0  0.875 0.1 0  0.9 0.1 0  0.925 0.1 0  0.95 0.1 0  0.975 0.1 0  1 0.1 0  0 0.125 0  0.025 0.125 0  0.05 0.125 0  0.075 0.125 0  0.1 0.125 0  0.125 0.125 0  0.15 0.125 0  0.175 0.125 0  0.2 0.125 0  0.225 0.125 0  0.25 0.125 0  0.275 0.125 0  0.3 0.125 0  0.325 0.125 0  0.35 0.125 0  0.375 0.125 0  0.4 0.125 0  0.425 0.125 0  0.45 0.125 0  0.475 0.125 0  0.5 0.125 0  0.525 0.125 0  0.55 0.125 0  0.575 0.125 0  0.6 0.125 0  0.625 0.125 0  0.65 0.125 0  0.675 0.125 0  0.7 0.125 0  0.725 0.125 0  0.75 0.125 0  0.775 0.125 0  0.8 0.125 0  0.825 0.125 0  0.85 0.125 0  0.875 0.125 0  0.9 0.125 0  0.925 0.125 0  0.95 0.125 0  0.975 0.125 0  1 0.125 0  0 0.15 0  0.025 0.15 0  0.05 0.15 0  0.075 0.15 0  0.1 0.15 0  0.125 0.15 0  0.15 0.15 0  0.175 0.15 0  0.2 0.15 0  0.225 0.15 0  0.25 0.15 0  0.275 0.15 0  0.3 0.15 0  0.325 0.15 0  0.35 0.15 0  0.375 0.15 0  0.4 0.15 0  0.425 0.15 0  0.45 0.15 0  0.475 0.15 0  0.5 0.15 0  0.525 0.15 0  0.55 0.15 0  0.575 0.15 0  0.6 0.15 0  0.625 0.15 0  0.65 0.15 0  0.675 0.15 0  0.7 0.15 0  0.725 0.15 0  0.75 0.15 0  0.775 0.15 0  0.8 0.15 0  0.825 0.15 0  0.85 0.15 0  0.875 0.15 0  0.9 0.15 0  0.925 0.15 0  0.95 0.15 0  0.975 0.15 0  1 0.15 0  0 0.175 0  0.025 0.175 0  0.05 0.175 0  0.075 0.175 0  0.1 0.175 0  0.125 0.175 0  0.15 0.175 0  0.175 0.175 0  0.2 0.175 0  0.225 0.175 0  0.25 0.175 0  0.275 0.175 0  0.3 0.175 0  0.325 0.175 0  0.35 0.175 0  0.375 0.175 0  0.4 0.175 0  0.425 0.175 0  0.45 0.175 0  0.475 0.175 0  0.5 0.175 0  0.525 0.175 0  0.55 0.175 0  0.575 0.175 0  0.6 0.175 0  0.625 0.175 0  0.65 0.175 0  0.675 0.175 0  0.7 0.175 0  0.725 0.175 0  0.75 0.175 0  0.775 0.175 0  0.8 0.175 0  0.825 0.175 0  0.85 0.175 0  0.875 0.175 0  0.9 0.175 0  0.925 0.175 0  0.95 0.175 0  0.975 0.175 0  1 0.175 0  0 0.2 0  0.025 0.2 0  0.05 0.2 0  0.075 0.2 0  0.1 0.2 0  0.125 0.2 0  0.15 0.2 0  0.175 0.2 0  0.2 0.2 0  0.225 0.2 0  0.25 0.2 0  0.275 0.2 0  0.3 0.2 0  0.325 0.2 0  0.35 0.2 0  0.375 0.2 0  0.4 0.2 0  0.425 0.2 0  0.45 0.2 0  0.475 0.2 0  0.5 0.2 0  0.525 0.2 0  0.55 0.2 0  0.575 0.2 0  0.6 0.2 0  0.625 0.2 0  0.65 0.2 0  0.675 0.2 0  0.7 0.2 0  0.725 0.2 0  0.75 0.2 0  0.775 0.2 0  0.8 0.2 0  0.825 0.2 0  0.85 0.2 0  0.875 0.2 0  0.9 0.2 0  0.925 0.2 0  0.95 0.2 0  0.975 0.2 0  1 0.2 0  0 0.225 0  0.025 0.225 0  0.05 0.225 0  0.075 0.225 0  0.1 0.225 0  0.125 0.225 0  0.15 0.225 0  0.175 0.225 0  0.2 0.225 0  0.225 0.225 0  0.25 0.225 0  0.275 0.225 0  0.3 0.225 0  0.325 0.225 0  0.35 0.225 0  0.375 0.225 0  0.4 0.225 0  0.425 0.225 0  0.45 0.225 0  0.475 0.225 0  0.5 0.225 0  0.525 0.225 0  0.55 0.225 0  0.575 0.225 0  0.6 0.225 0  0.625 0.225 0  0.65 0.225 0  0.675 0.225 0  0.7 0.225 0  0.725 0.225 0  0.75 0.225 0  0.775 0.225 0  0.8 0.225 0  0.825 0.225 0  0.85 0.225 0  0.875 0.225 0  0.9 0.225 0  0.925 0.225 0  0.95 0.225 0  0.975 0.225 0  1 0.225 0  0 0.25 0  0.025 0.25 0  0.05 0.25 0  0.075 0.25 0  0.1 0.25 0  0.125 0.25 0  0.15 0.25 0  0.175 0.25 0  0.2 0.25 0  0.225 0.25 0  0.25 0.25 0  0.275 0.25 0  0.3 0.25 0  0.325 0.25 0  0.35 0.25 0  0.375 0.25 0  0.4 0.25 0  0.425 0.25 0  0.45 0.25 0  0.475 0.25 0  0.5 0.25 0  0.525 0.25 0  0.55 0.25 0  0.575 0.25 0  0.6 0.25 0  0.625 0.25 0  0.65 0.25 0  0.675 0.25 0  0.7 0.25 0  0.725 0.25 0  0.75 0.25 0  0.775 0.25 0  0.8 0.25 0  0.825 0.25 0  0.85 0.25 0  0.875 0.25 0  0.9 0.25 0  0.925 0.25 0  0.95 0.25 0  0.975 0.25 0  1 0.25 0  0 0.275 0  0.025 0.275 0  0.05 0.275 0  0.075 0.275 0  0.1 0.275 0  0.125 0.275 0  0.15 0.275 0  0.175 0.275 0  0.2 0.275 0  0.225 0.275 0  0.25 0.275 0  0.275 0.275 0  0.3 0.275 0  0.325 0.275 0  0.35 0.275 0  0.375 0.275 0  0.4 0.275 0  0.425 0.275 0  0.45 0.275 0  0.475 0.275 0  0.5 0.275 0  0.525 0.275 0  0.55 0.275 0  0.575 0.275 0  0.6 0.275 0  0.625 0.275 0  0.65 0.275 0  0.675 0.275 0  0.7 0.275 0  0.725 0.275 0  0.75 0.275 0  0.775 0.275 0  0.8 0.275 0  0.825 0.275 0  0.85 0.275 0  0.875 0.275 0  0.9 0.275 0  0.925 0.275 0  0.95 0.275 0  0.975 0.275 0  1 0.275 0  0 0.3 0  0.025 0.3 0  0.05 0.3 0  0.075 0.3 0  0.1 0.3 0  0.125 0.3 0  0.15 0.3 0  0.175 0.3 0  0.2 0.3 0  0.225 0.3 0  0.25 0.3 0  0.275 0.3 0  0.3 0.3 0  0.325 0.3 0  0.35 0.3 0  0.375 0.3 0  0.4 0.3 0  0.425 0.3 0  0.45 0.3 0  0.475 0.3 0  0.5 0.3 0  0.525 0.3 0  0.55 0.3 0  0.575 0.3 0  0.6 0.3 0  0.625 0.3 0  0.65 0.3 0  0.675 0.3 0  0.7 0.3 0  0.725 0.3 0  0.75 0.3 0  0.775 0.3 0  0.8 0.3 0  0.825 0.3 0  0.85 0.3 0  0.875 0.3 0  0.9 0.3 0  0.925 0.3 0  0.95 0.3 0  0.975 0.3 0  1 0.3 0  0 0.325 0  0.025 0.325 0  0.05 0.325 0  0.075 0.325 0  0.1 0.325 0  0.125 0.325 0  0.15 0.325 0  0.175 0.325 0  0.2 0.325 0  0.225 0.325 0  0.25 0.325 0  0.275 0.325 0  0.3 0.325 0  0.325 0.325 0  0.35 0.325 0  0.375 0.325 0  0.4 0.325 0  0.425 0.325 0  0.45 0.325 0  0.475 0.325 0  0.5 0.325 0  0.525 0.325 0  0.55 0.325 0  0.575 0.325 0  0.6 0.325 0  0.625 0.325 0  0.65 0.325 0  0.675 0.325 0  0.7 0.325 0  0.725 0.325 0  0.75 0.325 0  0.775 0.325 0  0.8 0.325 0  0.825 0.325 0  0.85 0.325 0  0.875 0.325 0  0.9 0.325 0  0.925 0.325 0  0.95 0.325 0  0.975 0.325 0  1 0.325 0  0 0.35 0  0.025 0.35 0  0.05 0.35 0  0.075 0.35 0  0.1 0.35 0  0.125 0.35 0  0.15 0.35 0  0.175 0.35 0  0.2 0.35 0  0.225 0.35 0  0.25 0.35 0  0.275 0.35 0  0.3 0.35 0  0.325 0.35 0  0.35 0.35 0  0.375 0.35 0  0.4 0.35 0  0.425 0.35 0  0.45 0.35 0  0.475 0.35 0  0.5 0.35 0  0.525 0.35 0  0.55 0.35 0  0.575 0.35 0  0.6 0.35 0  0.625 0.35 0  0.65 0.35 0  0.675 0.35 0  0.7 0.35 0  0.725 0.35 0  0.75 0.35 0  0.775 0.35 0  0.8 0.35 0  0.825 0.35 0  0.85 0.35 0  0.875 0.35 0  0.9 0.35 0  0.925 0.35 0  0.95 0.35 0  0.975 0.35 0  1 0.35 0  0 0.375 0  0.025 0.375 0  0.05 0.375 0  0.075 0.375 0  0.1 0.375 0  0.125 0.375 0  0.15 0.375 0  0.175 0.375 0  0.2 0.375 0  0.225 0.375 0  0.25 0.375 0  0.275 0.375 0  0.3 0.375 0  0.325 0.375 0  0.35 0.375 0  0.375 0.375 0  0.4 0.375 0  0.425 0.375 0  0.45 0.375 0  0.475 0.375 0  0.5 0.375 0  0.525 0.375 0  0.55 0.375 0  0.575 0.375 0  0.6 0.375 0  0.625 0.375 0  0.65 0.375 0  0.675 0.375 0  0.7 0.375 0  0.725 0.375 0  0.75 0.375 0  0.775 0.375 0  0.8 0.375 0  0.825 0.375 0  0.85 0.375 0  0.875 0.375 0  0.9 0.375 0  0.925 0.375 0  0.95 0.375 0  0.975 0.375 0  1 0.375 0  0 0.4 0  0.025 0.4 0  0.05 0.4 0  0.075 0.4 0  0.1 0.4 0  0.125 0.4 0  0.15 0.4 0  0.175 0.4 0  0.2 0.4 0  0.225 0.4 0  0.25 0.4 0  0.275 0.4 0  0.3 0.4 0  0.325 0.4 0  0.35 0.4 0  0.375 0.4 0  0.4 0.4 0  0.425 0.4 0  0.45 0.4 0  0.475 0.4 0  0.5 0.4 0  0.525 0.4 0  0.55 0.4 0  0.575 0.4 0  0.6 0.4 0  0.625 0.4 0  0.65 0.4 0  0.675 0.4 0  0.7 0.4 0  0.725 0.4 0  0.75 0.4 0  0.775 0.4 0  0.8 0.4 0  0.825 0.4 0  0.85 0.4 0  0.875 0.4 0  0.9 0.4 0  0.925 0.4 0  0.95 0.4 0  0.975 0.4 0  1 0.4 0  0 0.425 0  0.025 0.425 0  0.05 0.425 0  0.075 0.425 0  0.1 0.425 0  0.125 0.425 0  0.15 0.425 0  0.175 0.425 0  0.2 0.425 0  0.225 0.425 0  0.25 0.425 0  0.275 0.425 0  0.3 0.425 0  0.325 0.425 0  0.35 0.425 0  0.375 0.425 0  0.4 0.425 0  0.425 0.425 0  0.45 0.425 0  0.475 0.425 0  0.5 0.425 0  0.525 0.425 0  0.55 0.425 0  0.575 0.425 0  0.6 0.425 0  0.625 0.425 0  0.65 0.425 0  0.675 0.425 0  0.7 0.425 0  0.725 0.425 0  0.75 0.425 0  0.775 0.425 0  0.8 0.425 0  0.825 0.425 0  0.85 0.425 0  0.875 0.425 0  0.9 0.425 0  0.925 0.425 0  0.95 0.425 0  0.975 0.425 0  1 0.425 0  0 0.45 0  0.02
[...]
<PointData  Scalars="ControlVisualisation"> 
<DataArray  type="Float64"  Name="ControlVisualisation"  format="ascii">-9.5598855494149484e-09  -9.7065847156928161e-09  -9.7065545934520540e-09  -9.7065035747861563e-09  -9.7064322147332148e-09  -9.7063410201393983e-09  -9.7062306990777847e-09  -9.7061021152017984e-09  -9.7059562865114771e-09  -9.7057943846804364e-09  -9.7056177318042458e-09  -9.7054277982018224e-09  -9.7052262018158178e-09  -9.7050147104415005e-09  -9.7047952485762832e-09  -9.7045699108192876e-09  -9.7043409843078394e-09  -9.7041109829854186e-09  -9.7038826973055082e-09  -9.7036592636089973e-09  -9.7034442578282217e-09  -9.7032418167345903e-09  -9.7030567847088889e-09  -9.7028948759476926e-09  -9.7027628333139280e-09  -9.7026685649371699e-09  -9.7026212172501446e-09  -9.7026311108854991e-09  -9.7027094489027550e-09  -9.7028674424565322e-09  -9.7031147594508283e-09  -9.7034563041602958e-09  -9.7038872829861249e-09  -9.7043892820717705e-09  -9.7049285191469120e-09  -9.7054578630235644e-09  -9.7059220145793339e-09  -9.7062720355157987e-09  -9.7064853247047733e-09  -9.7065791795300959e-09  -9.1196939766104888e-09  -9.7065846955327437e-09  -9.8532830871194726e-09  -9.8532536071703576e-09  -9.8532011153480966e-09  -9.8531254251098989e-09  -9.8530270663881173e-09  -9.8529067618824593e-09  -9.8527653907756609e-09  -9.8526040045519403e-09  -9.8524238254515903e-09  -9.8522262457557293e-09  -9.8520128280359769e-09  -9.8517853068504539e-09  -9.8515455934027749e-09  -9.8512957848721735e-09  -9.8510381806759531e-09  -9.8507753081164363e-09  -9.8505099605753372e-09  -9.8502452520112037e-09  -9.8499846926652660e-09  -9.8497322912539063e-09  -9.8494926883752083e-09  -9.8492713197731337e-09  -9.8490746042146043e-09  -9.8489101281252431e-09  -9.8487868011514396e-09  -9.8487149026371803e-09  -9.8487060501177384e-09  -9.8487729196258640e-09  -9.8489285901157457e-09  -9.8491849124704264e-09  -9.8495490554391276e-09  -9.8500190403938796e-09  -9.8505771511071399e-09  -9.8511880189376239e-09  -9.8518032079168046e-09  -9.8523628015491763e-09  -9.8528044282935055e-09  -9.8530915978236961e-09  -9.8532367181440892e-09  -9.7065797652513888e-09  -9.7065543566647992e-09  -9.8532534333352831e-09  -9.8532165834991581e-09  -9.8531567647735898e-09  -9.8530703498251546e-09  -9.8529578122693123e-09  -9.8528199488664369e-09  -9.8526577487014090e-09  -9.8524723970026080e-09  -9.8522652722307855e-09  -9.8520379466531288e-09  -9.8517921864681501e-09  -9.8515299532828923e-09  -9.8512534086042563e-09  -9.8509649232171884e-09  -9.8506670937999882e-09  -9.8503627694877511e-09  -9.8500550914399015e-09  -9.8497475491952214e-09  -9.8494440587739340e-09  -9.8491490689329563e-09  -9.8488677060380465e-09  -9.8486059606713896e-09  -9.8483709131945092e-09  -9.8481709233200874e-09  -9.8480157947535606e-09  -9.8479167781181180e-09  -9.8478867433135693e-09  -9.8479396086655611e-09  -9.8480904109195109e-09  -9.8483526063103341e-09  -9.8487372437019254e-09  -9.8492504761345471e-09  -9.8498732080100876e-09  -9.8505654668505753e-09  -9.8512777433647244e-09  -9.8519517424071717e-09  -9.8525115621424882e-09  -9.8529054464221091e-09  -9.8531246053487506e-09  -9.7065044871383470e-09  -9.7065024415040278e-09  -9.8532001402921048e-09  -9.8531558760740281e-09  -9.8530953007222689e-09  -9.8530082285257981e-09  -9.8528948378612744e-09  -9.8527559015888623e-09  -9.8525924138329395e-09  -9.8524055636791988e-09  -9.8521967339370460e-09  -9.8519674999146621e-09  -9.8517196274414069e-09  -9.8514550718297367e-09  -9.8511759790428910e-09  -9.8508846909489381e-09  -9.8505837567133073e-09  -9.8502759529107245e-09  -9.8499643141462368e-09  -9.8496521762802292e-09  -9.8493432350874858e-09  -9.8490416317428337e-09  -9.8487520779784865e-09  -9.8484800325381014e-09  -9.8482319097211351e-09  -9.8480153031168743e-09  -9.8478392465315117e-09  -9.8477141723066579e-09  -9.8476515208216163e-09  -9.8476622605981744e-09  -9.8477601402996451e-09  -9.8479577557689583e-09  -9.8482738779903050e-09  -9.8487286762603653e-09  -9.8493114484425035e-09  -9.8499725914099163e-09  -9.8506409526677159e-09  -9.8513372470018466e-09  -9.8520276749540845e-09  -9.8526311803221050e-09  -9.8530062069263680e-09  -9.7063926746175829e-09  -9.7064286833684919e-09  -9.8531221732427899e-09  -9.8530669049078665e-09  -9.8530056595973961e-09  -9.8529184072689384e-09  -9.8528048128836569e-09  -9.8526656190334126e-09  -9.8525018174526860e-09  -9.8523145937111829e-09  -9.8521053261698852e-09  -9.8518755818094922e-09  -9.8516271114687233e-09  -9.8513618450329380e-09  -9.8510818877765350e-09  -9.8507895195884036e-09  -9.8504871990001375e-09  -9.8501775743103866e-09  -9.8498635018031049e-09  -9.8495480730920847e-09  -9.8492346445199886e-09  -9.8489268857003741e-09  -9.8486288200699859e-09  -9.8483450134142216e-09  -9.8480807995710084e-09  -9.8478429665331967e-09  -9.8476391034287669e-09  -9.8474778779045324e-09  -9.8473661514797836e-09  -9.8473149304297462e-09  -9.8473359338243433e-09  -9.8474472767765063e-09  -9.8476284513530025e-09  -9.8478965062334329e-09  -9.8484013869733203e-09  -9.8489609369366254e-09  -9.8493750609909645e-09  -9.8499497873916625e-09  -9.8507155753168018e-09  -9.8516424868942013e-09  -9.8526674681925022e-09  -9.7063598627653762e-09  -9.7063324284681134e-09  -9.8530188257637032e-09  -9.8529487291347859e-09  -9.8528865952235937e-09  -9.8527991309980337e-09  -9.8526852985701798e-09  -9.8525458069054375e-09  -9.8523816444397494e-09  -9.8521939939401924e-09  -9.8519842291312723e-09  -9.8517539074611679e-09  -9.8515047617409367e-09  -9.8512386905977242e-09  -9.8509577487086989e-09  -9.8506641381209747e-09  -9.8503602025455569e-09  -9.8500484288673455e-09  -9.8497314554685888e-09  -9.8494120865435946e-09  -9.8490932652873980e-09  -9.8487780605713705e-09  -9.8484695765057271e-09  -9.8481713667174980e-09  -9.8478871454829184e-09  -9.8476223074093184e-09  -9.8473799095292306e-09  -9.8471721443684600e-09  -9.8470035594830871e-09  -9.8468940025126899e-09  -9.8467712200847909e-09  -9.8466974938696238e-09  -9.8464163113132562e-09  -9.8458981633122121e-09  -9.8454830335175205e-09  -9.8431671878376735e-09  -9.8374222190225067e-09  -9.8324907457606233e-09  -9.8325469701466884e-09  -9.8434883135683257e-09  -9.8492883594479506e-09  -9.7033042872987313e-09  -9.7062128855443250e-09  -9.8528891924769413e-09  -9.8528002757197077e-09  -9.8527369913304221e-09  -9.8526492433959079e-09  -9.8525350940121004e-09  -9.8523952093036607e-09  -9.8522305758505697e-09  -9.8520423762325315e-09  -9.8518319815364491e-09  -9.8516009406704355e-09  -9.8513509677917949e-09  -9.8510839273025787e-09  -9.8508018168865875e-09  -9.8505067487061679e-09  -9.8502009329184466e-09  -9.8498866678992868e-09  -9.8495663410913595e-09  -9.8492424235294856e-09  -9.8489174364024514e-09  -9.8485939088947995e-09  -9.8482740557043885e-09  -9.8479595634749685e-09  -9.8476502409976380e-09  -9.8473508035497411e-09  -9.8470645574203663e-09  -9.8468126751771737e-09  -9.8465577970625841e-09  -9.8462914978058021e-09  -9.8457472274165190e-09  -9.8452381347640582e-09  -9.8418477165173848e-09  -9.8284984351465655e-09  -9.8071877111518538e-09  -9.7607497774664935e-09  -9.5899447126863987e-09  -8.0441138950646441e-09  1.8498726456191099e-02  -9.3125159733254187e-09  -9.7986525586776042e-09  -9.6897656437824059e-09  -9.7060690818684176e-09  -9.8527321291253466e-09  -9.8526202023405740e-09  -9.8525554825024628e-09  -9.8524673593242532e-09  -9.8523527906036992e-09  -9.8522123927568701e-09  -9.8520471547446902e-09  -9.8518582638872572e-09  -9.8516470930409621e-09  -9.8514151856129055e-09  -9.8511642383369505e-09  -9.8508960809092339e-09  -9.8506126531504975e-09  -9.8503159724205728e-09  -9.8500081016061877e-09  -9.8496910998820536e-09  -9.8493670633756161e-09  -9.8490381298929623e-09  -9.8487067252380996e-09  -9.8483746046859552e-09  -9.8480429757487374e-09  -9.8477094425787514e-09  -9.8473751596234623e-09  -9.8470399121432942e-09  -9.8467054662446824e-09  -9.8462830424537597e-09  -9.8458222856486336e-09  -9.8451344226804003e-09  -9.8410038895961770e-09  -9.8256603686043126e-09  -9.7878245170413632e-09  -9.5964629791087139e-09  8.9959661602736316e-02  3.6848428153811114e-01  6.4565371815369255e-01  9.1250008370625235e-01  1.0000000082876572e+00  1.0000000089187904e+00  1.0000000085469380e+00  4.2831568203526316e-01  -9.7058998675883229e-09  -9.8525462672954771e-09  -9.8524068958232476e-09  -9.8523404189253188e-09  -9.8522517967953256e-09  -9.8521366710320969e-09  -9.8519956048082054e-09  -9.8518295976119045e-09  -9.8516398503452235e-09  -9.8514277451400937e-09  -9.8511948247517661e-09  -9.8509427712618893e-09  -9.8506733826170245e-09  -9.8503885468665252e-09  -9.8500901845511674e-09  -9.8497802034997118e-09  -9.8494603767800002e-09  -9.8491325534395256e-09  -9.8487982920978522e-09  -9.8484600607868307e-09  -9.8481175784214313e-09  -9.8477774989823347e-09  -9.8474299808562664e-09  -9.8470809660992101e-09  -9.8466163094678685e-09  -9.8461860504049279e-09  -9.8451909608301652e-09  -9.8428348527192838e-09  -9.8287984220935509e-09  -9.7896151889830048e-09  -9.5599343531588793e-09  1.4906496863382024e-01  5.3013034552283800e-01  9.9999997887491621e-01  1.0000000096398955e+00  1.0000000098206878e+00  1.0000000098800619e+00  1.0000000099127846e+00  1.0000000099351150e+00  1.0000000099499813e+00  1.0000000098898394e+00  -9.7057039275129612e-09  -9.8523300169012227e-09  -9.8521584677777371e-09  -9.8520898577497733e-09  -9.8520005614337508e-09  -9.8518846845067822e-09  -9.8517427396611053e-09  -9.8515757520705000e-09  -9.8513849514812169e-09  -9.8511717416956486e-09  -9.8509376718087649e-09  -9.8506844082688286e-09  -9.8504137140373841e-09  -9.8501274317346665e-09  -9.8498274382331499e-09  -9.8495155653250817e-09  -9.8491932529200425e-09  -9.8488615542877510e-09  -9.8485204627997162e-09  -9.8481745444838602e-09  -9.8478234628052066e-09  -9.8474826243965362e-09  -9.8470956778475783e-09  -9.8466850446009492e-09  -9.8458254938116583e-09  -9.8447198257966926e-09  -9.8328688044937089e-09  -9.8030479694592251e-09  -9.6700996193031945e-09  1.0496454077463396e-01  5.1700536986683676e-01  1.0000000067155579e+00  1.0000000097076844e+00  1.0000000098437498e+00  1.0000000098981758e+00  1.0000000099294728e+00  1.0000000099479511e+00  1.0000000099608992e+00  1.0000000099706219e+00  1.0000000099772581e+00  1.0000000099561674e+00  -9.7054798022062220e-09  -9.8520815794603831e-09  -9.8518727617396263e-09  -9.8518015578478048e-09  -9.8517113258672117e-09  -9.8515944106641887e-09  -9.8514512884317153e-09  -9.8512830376095922e-09  -9.8510909440661207e-09  -9.8508764517525173e-09  -9.8506411185162938e-09  -9.8503865748333918e-09  -9.8501145524439165e-09  -9.8498268751366018e-09  -9.8495255412549413e-09  -9.8492120800532352e-09  -9.8488878454447437e-09  -9.8485520726122688e-09  -9.8482059183689180e-09  -9.8478500211927958e-09  -9.8474792058714597e-09  -9.8470524293825296e-09  -9.8465809110574254e-09  -9.8458199174589635e-09  -9.8387423133882195e-09  -9.8179943333018155e-09  -9.7372758994714300e-09  3.2698240249853613e-02  4.0193816175667224e-01  9.4528127512221360e-01  1.0000000096602861e+00  1.0000000098327837e+00  1.0000000098939346e+00  1.0000000099260791e+00  1.0000000099434889e+00  1.0000000099549460e+00  1.0000000099637136e+00  1.0000000099710993e+00  1.0000000099773050e+00  1.0000000099818007e+00  1.0000000099670519e+00  -9.7052259312018573e-09  -9.8517989808630027e-09  -9.8515473749752313e-09  -9.8514729803303947e-09  -9.8513814047210299e-09  -9.8512630091442098e-09  -9.8511182678878805e-09  -9.8509483599216270e-09  -9.8507546690428975e-09  -9.8505387062016181e-09  -9.8503020596715033e-09  -9.8500462999894389e-09  -9.8497730733365321e-09  -9.8494838864430803e-09  -9.8491811607154334e-09  -9.8488659625410677e-09  -9.8485442675436146e-09  -9.8482064581928852e-09  -9.8478526171275051e-09  -9.8474136848261922e-09  -9.8470058755918910e-09  -9.8461286853718161e-09  -9.8434019868880937e-09  -9.8282478555885075e-09  -9.7779570227244343e-09  -9.1550117370083637e-09  2.6036316022635703e-01  7.8632197371331114e-01  1.0000000095327188e+00  1.0000000098035742e+00  1.0000000098810620e+00  1.0000000099183726e+00  1.0000000099371500e+00  1.0000000099481223e+00  1.0000000099554307e+00  1.0000000099609809e+00  1.0000000099658057e+00  1.0000000099704063e+00  1.0000000099747925e+00  1.0000000099783319e+00  1.0000000099624795e+00  -9.7049407350724820e-09  -9.8514801391881323e-09  -9.8511797085225901e-09  -9.8511013008840137e-09  -9.8510077246170728e-09  -9.8508871495350298e-09  -9.8507401107289940e-09  -9.8505679592522141e-09  -9.8503722617511338e-09  -9.8501546949000893e-09  -9.8499169060829842e-09  -9.8496601575475141e-09  -9.8493855739556773e-09  -9.8490942641869570e-09  -9.8487911070566503e-09  -9.8484751708928402e-09  -9.8481569701393592e-09  -9.8477947025807545e-09  -9.8474052010003398e-09  -9.8466764811046006e-09  -9.8455027009869865e-09  -9.8335481869156691e-09  -9.8022409423641805e-09  -9.6496219709136817e-09  1.3064992734570335e-01  6.0262944445403355e-01  1.0000000090532963e+00  1.0000000097574606e+00  1.0000000098637938e+00  1.0000000099085788e+00  1.0000000099309192e+00  1.0000000099428377e+00  1.0000000099497737e+00  1.0000000099539372e+00  1.0000000099564139e+00  1.0000000099578237e+00  1.0000000099585464e+00  1.0000000099587507e+00  1.0000000099584008e+00  1.0000000099568012e+00  1.0000000099276576e+00  -9.7046227665775990e-09  -9.8511229959145660e-09  -9.8507670692602084e-09  -9.8506834458453390e-09  -9.8505867832221259e-09  -9.8504628890003863e-09  -9.8503124770786408e-09  -9.8501372232906974e-09  -9.8499390112396815e-09  -9.8497197292806838e-09  -9.8494808964420733e-09  -9.8492239053178081e-09  -9.8489492157272641e-09  -9.8486573084558697e-09  -9.8483474748039278e-09  -9.8480122249003554e-09  -9.8476417284504700e-09  -9.8472542478006554e-09  -9.8464656198286745e-09  -9.8396188512692946e-09  -9.8190817834095178e-09  -9.7374802426217671e-09  3.6033816411708414e-02  4.1655194189853445e-01  9.7605130185309574e-01  1.0000000096763870e+00  1.0000000098387238e+00  1.0000000098959614e+00  1.0000000099243274e+00  1.0000000099384643e+00  1.0000000099461486e+00  1.0000000099502000e+00  1.0000000099517845e+00  1.0000000099513351e+00  1.0000000099487971e+00  1.0000000099435356e+00  1.0000000099336994e+00  1.0000000099162920e+00  1.0000000098882513e+00  1.0000000097126898e+00  1.0000000088382839e+00  -9.7042709897475702e-09  -9.8507257667881494e-09  -9.8503068642844330e-09  -9.8502161478036443e-09  -9.8501145596238095e-09  -9.8499855141033112e-09  -9.8498301158902878e-09  -9.8496504294423573e-09  -9.8494485080899522e-09  -9.8492270532104664e-09  -9.8489883088536390e-09  -9.8487362236984926e-09  -9.8484604171274027e-09  -9.8481547516206607e-09  -9.8477887047274269e-09  -9.8474403178873971e-09  -9.8466815658888631e-09  -9.8441239874528349e-09  -9.8291548318298235e-09  -9.7801083586735077e-09  -9.2081128275999515e-09  2.5687904748389567e-01  7.8610324560462586e-01  1.0000000095325683e+00  1.0000000098015813e+00  1.0000000098794122e+00  1.0000000099164403e+00  1.0000000099340089e+00  1.0000000099432487e+00  1.0000000099480133e+00  1.0000000099498021e+00  1.0000000099491140e+00  1.0000000099457813e+00  1.0000000099388364e+00  1.0000000099256205e+00  1.0000000098983106e+00  1.0000000098465884e+00  1.0000000096724260e+00  7.8623104820176393e-01  4.5059630299939544e-03  -9.6277294860527787e-09  -9.7038853030830513e-09  -9.8502874022420659e-09  -9.8497969282875705e-09  -9.8496960378794817e-09  -9.8495864509352586e-09  -9.8494493179193661e-09  -9.8492861457441529e-09  -9.8490994834980128e-09  -9.8488924766832574e-09  -9.8486707845953860e-09  -9.8484322794537770e-09  -9.8481814499975886e-09  -9.8478878479931934e-09  -9.8475618933061907e-09  -9.8469900335482161e-09  -9.8458070758628787e-09  -9.8340573290277552e-09  -9.8040299830087053e-09  -9.6586976744113731e-09  1.2454515691105063e-01  5.9186636733422382e-01  1.0000000089886707e+00  1.0000000097521873e+00  1.0000000098612816e+00  1.0000000099066431e+00  1.0000000099288906e+00  1.0000000099402802e+00  1.0000000099462223e+00  1.0000000099487343e+00  1.0000000099485344e+00  1.0000000099455815e+00  1.0000000099390292e+00  1.0000000099265016e+00  1.0000000099013280e+00  1.0000000098515662e+00  1.0000000097146327e+00  9.9999982274852217e-01  3.6574112304965695e-01  -9.3992562153372662e-09  -9.8232834634717280e-09  -9.6852647405690504e-09  -9.7034674741387402e-09  -9.8498084490257333e-09  -9.8492362036672476e-09  -9.8491198593536843e-09  -9.8489967290350685e-09  -9.8488463015152212e-09  -9.8486717940812702e-09  -9.8484770787212418e-09  -9.8482631497239486e-09  -9.8480307460592460e-09  -9.8477688305959755e-09  -9.8475004747404960e-09  -9.8472177880139101e-09  -9.8464252413875477e-09  -9.8398578500884414e-09  -9.8199356358054861e-09  -9.7406334138288187e-09  3.1097334893793165e-02  4.0651753753511638e-01  9.6289721893506219e-01  1.0000000096682200e+00  1.0000000098355308e+00  1.0000000098939732e+00  1.0000000099228026e+00  1.0000000099369406e+00  1.0000000099443482e+00  1.0000000099478217e+00  1.0000000099483901e+00  1.0000000099462030e+00  1.0000000099406392e+00  1.0000000099298338e+00  1.0000000099087574e+00  1.0000000098661277e+00  1.0000000097662827e+00  1.0000000091358676e+00  6.0306862832338248e-01  1.0759492618377717e-01  -9.7108712569247751e-09  -9.8203037239343457e-09  -9.8454709043920439e-09  -9.7047057665870570e-09  -9.7030231583834946e-09  -9.8492928476931381e-09  -9.8486257417750984e-09  -9.8484837552312468e-09  -9.8483371862523044e-09  -9.8481670497642612e-09  -9.8479789115503859e-09  -9.8477659344500093e-09  -9.8475195825369291e-09  -9.8472532210504530e-09  -9.8469933743632591e-09  -9.8464017675533475e-09  -9.8439123967965236e-09  -9.8290816076786889e-09  -9.7813532044232194e-09  -9.2576782459778476e-09  2.4884327583954854e-01  7.7473470026622993e-01  1.0000000095165795e+00  1.0000000097982666e+00  1.0000000098776747e+00  1.0000000099151760e+00  1.0000000099329571e+00  1.0000000099421895e+00  1.0000000099467892e+00  1.0000000099482298e+00  1.0000000099469160e+00  1.0000000099424773e+00  1.0000000099335025e+00  1.0000000099162358e+00  1.0000000098799138e+00  1.0000000098041844e+00  1.0000000095449222e+00  7.9188728178925838e-01  2.5818911112447990e-01  -9.2536996519572920e-09  -9.7816809293526186e-09  -9.8276845666313496e-09  -9.8429559104990330e-09  -9.8477068535476303e-09  -9.7028684377969960e-09  -9.7025655101958429e-09  -9.8487505958351102e-09  -9.8479699294266428e-09  -9.8477844460135369e-09  -9.8475994193512779e-09  -9.8473931833738170e-09  -9.8471741203473937e-09  -9.8469303016238843e-09  -9.8466610829699228e-09  -9.8462418484064443e-09  -9.8450002617774231e-09  -9.8333394764121575e-09  -9.8041266544982474e-09  -9.6611845424034129e-09  1.2135657245658206e-01  5.8339085938367308e-01  1.0000000089266154e+00  1.0000000097485489e+00  1.0000000098596955e+00  1.0000000099055926e+00  1.0000000099281230e+00  1.0000000099395900e+00  1.0000000099455055e+00  1.0000000099479023e+00  1.0000000099474731e+00  1.0000000099441069e+00  1.0000000099368016e+00  1.0000000099227986e+00  1.0000000098942468e+00  1.0000000098367001e+00  1.0000000096730461e+00  9.7043224366056680e-01  4.1368575612294606e-01  3.5352491786379697e-02  -9.7363670134562531e-09  -9.8167923853331227e-09  -9.8362793571427510e-09  -9.8431551826242199e-09  -9.8452501610726837e-09  -9.8473160019100744e-09  -9.7018164327210143e-09  -9.7021220437439816e-09  -9.8482054650212840e-09  -9.8472840584392200e-09  -9.8470160877664708e-09  -9.8467471965915618e-09  -9.8464585918614460e-09  -9.8462193441306131e-09  -9.8459714113013023e-09  -9.8450940686100922e-09  -9.8384349758095760e-09  -9.8188562260140781e-09  -9.7396822266073706e-09  3.0743512018586123e-02  4.0384309468977792e-01  9.5792093111899224e-01  1.0000000096651736e+00  1.0000000098342599e+00  1.0000000098931701e+00  1.0000000099222732e+00  1.0000000099364998e+00  1.0000000099439190e+00  1.0000000099473525e+00  1.0000000099478277e+00  1.0000000099454696e+00  1.00000000993