<?xml version="1.0"?>
<VTKFile type="UnstructuredGrid"  version="0.1"  >
<UnstructuredGrid>
<Piece  NumberOfPoints="1681" NumberOfCells="3200">
<Points>
<DataArray  type="Float64"  NumberOfComponents="3"  format="ascii">0 0 0  0.025 0 0  0.05 0 0  0.075 0 0  0.1 0 0  0.125 0 0  0.15 0 0  0.175 0 0  0.2 0 0  0.225 0 0  0.25 0 0  0.275 0 0  0.3 0 0  0.325 0 0  0.35 0 0  0.375 0 0  0.4 0 0  0.425 0 0  0.45 0 0  0.475 0 0  0.5 0 0  0.525 0 0  0.55 0 0  0.575 0 0  0.6 0 0  0.625 0 0  0.65 0 0  0.675 0 0  0.7 0 0  0.725 0 0  0.75 0 0  0.775 0 0  0.8 0 0  0.825 0 0  0.85 0 0  0.875 0 0  0.9 0 0  0.925 0 0  0.95 0 0  0.975 0 0  1 0 0  0 0.025 0  0.025 0.025 0  0.05 0.025 0  0.075 0.025 0  0.1 0.025 0  0.125 0.025 0  0.15 0.025 0  0.175 0.025 0  0.2 0.025 0  0.225 0.025 0  0.25 0.025 0  0.275 0.025 0  0.3 0.025 0  0.325 0.025 0  0.35 0.025 0  0.375 0.025 0  0.4 0.025 0  0.425 0.025 0  0.45 0.025 0  0.475 0.025 0  0.5 0.025 0  0.525 0.025 0  0.55 0.025 0  0.575 0.025 0  0.6 0.025 0  0.625 0.025 0  0.65 0.025 0  0.675 0.025 0  0.7 0.025 0  0.725 0.025 0  0.75 0.025 0  0.775 0.025 0  0.8 0.025 0  0.825 0.025 0  0.85 0.025 0  0.875 0.025 0  0.9 0.025 0  0.925 0.025 0  0.95 0.025 0  0.975 0.025 0  1 0.025 0  0 0.05 0  0.025 0.05 0  0.05 0.05 0  0.075 0.05 0  0.1 0.05 0  0.125 0.05 0  0.15 0.05 0  0.175 0.05 0  0.2 0.05 0  0.225 0.05 0  0.25 0.05 0  0.275 0.05 0  0.3 0.05 0  0.325 0.05 0  0.35 0.05 0  0.375 0.05 0  0.4 0.05 0  0.425 0.05 0  0.45 0.05 0  0.475 0.05 0  0.5 0.05 0  0.525 0.05 0  0.55 0.05 0  0.575 0.05 0  0.6 0.05 0  0.625 0.05 0  0.65 0.05 0  0.675 0.05 0  0.7 0.05 0  0.725 0.05 0  0.75 0.05 0  0.775 0.05 0  0.8 0.05 0  0.825 0.05 0  0.85 0.05 0  0.875 0.05 0  0.9 0.05 0  0.925 0.05 0  0.95 0.05 0  0.975 0.05 0  1 0.05 0  0 0.075 0  0.025 0.075 0  0.05 0.075 0  0.075 0.075 0  0.1 0.075 0  0.125 0.075 0  0.15 0.075 0  0.175 0.075 0  0.2 0.075 0  0.225 0.075 0  0.25 0.075 0  0.275 0.075 0  0.3 0.075 0  0.325 0.075 0  0.35 0.075 0  0.375 0.075 0  0.4 0.075 0  0.425 0.075 0  0.45 0.075 0  0.475 0.075 0  0.5 0.075 0  0.525 0.075 0  0.55 0.075 0  0.575 0.075 0  0.6 0.075 0  0.625 0.075 0  0.65 0.075 0  0.675 0.075 0  0.7 0.075 0  0.725 0.075 0  0.75 0.075 0  0.775 0.075 0  0.8 0.075 0  0.825 0.075 0  0.85 0.075 0  0.875 0.075 0  0.9 0.075 0  0.925 0.075 0  0.95 0.075 0  0.975 0.075 0  1 0.075 0  0 0.1 0  0.025 0.1 0  0.05 0.1 0  0.075 0.1 0  0.1 0.1 0  0.125 0.1 0  0.15 0.1 0  0.175 0.1 0  0.2 0.1 0  0.225 0.1 0  0.25 0.1 0  0.275 0.1 0  0.3 0.1 0  0.325 0.1 0  0.35 0.1 0  0.375 0.1 0  0.4 0.1 0  0.425 0.1 0  0.45 0.1 0  0.475 0.1 0  0.5 0.1 0  0.525 0.1 0  0.55 0.1 0  0.575 0.1 0  0.6 0.1 0  0.625 0.1 0  0.65 0.1 0  0.675 0.1 0  0.7 0.1 0  0.725 0.1 0  0.75 0.1 0  0.775 0.1 0  0.8 0.1 0  0.825 0.1 0  0.85 0.1 0  0.875 0.1 0  0.9 0.1 0  0.925 0.1 0  0.95 0.1 0  0.975 0.1 0  1 0.1 0  0 0.125 0  0.025 0.125 0  0.05 0.125 0  0.075 0.125 0  0.1 0.125 0  0.125 0.125 0  0.15 0.125 0  0.175 0.125 0  0.2 0.125 0  0.225 0.125 0  0.25 0.125 0  0.275 0.125 0  0.3 0.125 0  0.325 0.125 0  0.35 0.125 0  0.375 0.125 0  0.4 0.125 0  0.425 0.125 0  0.45 0.125 0  0.475 0.125 0  0.5 0.125 0  0.525 0.125 0  0.55 0.125 0  0.575 0.125 0  0.6 0.125 0  0.625 0.125 0  0.65 0.125 0  0.675 0.125 0  0.7 0.125 0  0.725 0.125 0  0.75 0.125 0  0.775 0.125 0  0.8 0.125 0  0.825 0.125 0  0.85 0.125 0  0.875 0.125 0  0.9 0.125 0  0.925 0.125 0  0.95 0.125 0  0.975 0.125 0  1 0.125 0  0 0.15 0  0.025 0.15 0  0.05 0.15 0  0.075 0.15 0  0.1 0.15 0  0.125 0.15 0  0.15 0.15 0  0.175 0.15 0  0.2 0.15 0  0.225 0.15 0  0.25 0.15 0  0.275 0.15 0  0.3 0.15 0  0.325 0.15 0  0.35 0.15 0  0.375 0.15 0  0.4 0.15 0  0.425 0.15 0  0.45 0.15 0  0.475 0.15 0  0.5 0.15 0  0.525 0.15 0  0.55 0.15 0  0.575 0.15 0  0.6 0.15 0  0.625 0.15 0  0.65 0.15 0  0.675 0.15 0  0.7 0.15 0  0.725 0.15 0  0.75 0.15 0  0.775 0.15 0  0.8 0.15 0  0.825 0.15 0  0.85 0.15 0  0.875 0.15 0  0.9 0.15 0  0.925 0.15 0  0.95 0.15 0  0.975 0.15 0  1 0.15 0  0 0.175 0  0.025 0.175 0  0.05 0.175 0  0.075 0.175 0  0.1 0.175 0  0.125 0.175 0  0.15 0.175 0  0.175 0.175 0  0.2 0.175 0  0.225 0.175 0  0.25 0.175 0  0.275 0.175 0  0.3 0.175 0  0.325 0.175 0  0.35 0.175 0  0.375 0.175 0  0.4 0.175 0  0.425 0.175 0  0.45 0.175 0  0.475 0.175 0  0.5 0.175 0  0.525 0.175 0  0.55 0.175 0  0.575 0.175 0  0.6 0.175 0  0.625 0.175 0  0.65 0.175 0  0.675 0.175 0  0.7 0.175 0  0.725 0.175 0  0.75 0.175 0  0.775 0.175 0  0.8 0.175 0  0.825 0.175 0  0.85 0.175 0  0.875 0.175 0  0.9 0.175 0  0.925 0.175 0  0.95 0.175 0  0.975 0.175 0  1 0.175 0  0 0.2 0  0.025 0.2 0  0.05 0.2 0  0.075 0.2 0  0.1 0.2 0  0.125 0.2 0  0.15 0.2 0  0.175 0.2 0  0.2 0.2 0  0.225 0.2 0  0.25 0.2 0  0.275 0.2 0  0.3 0.2 0  0.325 0.2 0  0.35 0.2 0  0.375 0.2 0  0.4 0.2 0  0.425 0.2 0  0.45 0.2 0  0.475 0.2 0  0.5 0.2 0  0.525 0.2 0  0.55 0.2 0  0.575 0.2 0  0.6 0.2 0  0.625 0.2 0  0.65 0.2 0  0.675 0.2 0  0.7 0.2 0  0.725 0.2 0  0.75 0.2 0  0.775 0.2 0  0.8 0.2 0  0.825 0.2 0  0.85 0.2 0  0.875 0.2 0  0.9 0.2 0  0.925 0.2 0  0.95 0.2 0  0.975 0.2 0  1 0.2 0  0 0.225 0  0.025 0.225 0  0.05 0.225 0  0.075 0.225 0  0.1 0.225 0  0.125 0.225 0  0.15 0.225 0  0.175 0.225 0  0.2 0.225 0  0.225 0.225 0  0.25 0.225 0  0.275 0.225 0  0.3 0.225 0  0.325 0.225 0  0.35 0.225 0  0.375 0.225 0  0.4 0.225 0  0.425 0.225 0  0.45 0.225 0  0.475 0.225 0  0.5 0.225 0  0.525 0.225 0  0.55 0.225 0  0.575 0.225 0  0.6 0.225 0  0.625 0.225 0  0.65 0.225 0  0.675 0.225 0  0.7 0.225 0  0.725 0.225 0  0.75 0.225 0  0.775 0.225 0  0.8 0.225 0  0.825 0.225 0  0.85 0.225 0  0.875 0.225 0  0.9 0.225 0  0.925 0.225 0  0.95 0.225 0  0.975 0.225 0  1 0.225 0  0 0.25 0  0.025 0.25 0  0.05 0.25 0  0.075 0.25 0  0.1 0.25 0  0.125 0.25 0  0.15 0.25 0  0.175 0.25 0  0.2 0.25 0  0.225 0.25 0  0.25 0.25 0  0.275 0.25 0  0.3 0.25 0  0.325 0.25 0  0.35 0.25 0  0.375 0.25 0  0.4 0.25 0  0.425 0.25 0  0.45 0.25 0  0.475 0.25 0  0.5 0.25 0  0.525 0.25 0  0.55 0.25 0  0.575 0.25 0  0.6 0.25 0  0.625 0.25 0  0.65 0.25 0  0.675 0.25 0  0.7 0.25 0  0.725 0.25 0  0.75 0.25 0  0.775 0.25 0  0.8 0.25 0  0.825 0.25 0  0.85 0.25 0  0.875 0.25 0  0.9 0.25 0  0.925 0.25 0  0.95 0.25 0  0.975 0.25 0  1 0.25 0  0 0.275 0  0.025 0.275 0  0.05 0.275 0  0.075 0.275 0  0.1 0.275 0  0.125 0.275 0  0.15 0.275 0  0.175 0.275 0  0.2 0.275 0  0.225 0.275 0  0.25 0.275 0  0.275 0.275 0  0.3 0.275 0  0.325 0.275 0  0.35 0.275 0  0.375 0.275 0  0.4 0.275 0  0.425 0.275 0  0.45 0.275 0  0.475 0.275 0  0.5 0.275 0  0.525 0.275 0  0.55 0.275 0  0.575 0.275 0  0.6 0.275 0  0.625 0.275 0  0.65 0.275 0  0.675 0.275 0  0.7 0.275 0  0.725 0.275 0  0.75 0.275 0  0.775 0.275 0  0.8 0.275 0  0.825 0.275 0  0.85 0.275 0  0.875 0.275 0  0.9 0.275 0  0.925 0.275 0  0.95 0.275 0  0.975 0.275 0  1 0.275 0  0 0.3 0  0.025 0.3 0  0.05 0.3 0  0.075 0.3 0  0.1 0.3 0  0.125 0.3 0  0.15 0.3 0  0.175 0.3 0  0.2 0.3 0  0.225 0.3 0  0.25 0.3 0  0.275 0.3 0  0.3 0.3 0  0.325 0.3 0  0.35 0.3 0  0.375 0.3 0  0.4 0.3 0  0.425 0.3 0  0.45 0.3 0  0.475 0.3 0  0.5 0.3 0  0.525 0.3 0  0.55 0.3 0  0.575 0.3 0  0.6 0.3 0  0.625 0.3 0  0.65 0.3 0  0.675 0.3 0  0.7 0.3 0  0.725 0.3 0  0.75 0.3 0  0.775 0.3 0  0.8 0.3 0  0.825 0.3 0  0.85 0.3 0  0.875 0.3 0  0.9 0.3 0  0.925 0.3 0  0.95 0.3 0  0.975 0.3 0  1 0.3 0  0 0.325 0  0.025 0.325 0  0.05 0.325 0  0.075 0.325 0  0.1 0.325 0  0.125 0.325 0  0.15 0.325 0  0.175 0.325 0  0.2 0.325 0  0.225 0.325 0  0.25 0.325 0  0.275 0.325 0  0.3 0.325 0  0.325 0.325 0  0.35 0.325 0  0.375 0.325 0  0.4 0.325 0  0.425 0.325 0  0.45 0.325 0  0.475 0.325 0  0.5 0.325 0  0.525 0.325 0  0.55 0.325 0  0.575 0.325 0  0.6 0.325 0  0.625 0.325 0  0.65 0.325 0  0.675 0.325 0  0.7 0.325 0  0.725 0.325 0  0.75 0.325 0  0.775 0.325 0  0.8 0.325 0  0.825 0.325 0  0.85 0.325 0  0.875 0.325 0  0.9 0.325 0  0.925 0.325 0  0.95 0.325 0  0.975 0.325 0  1 0.325 0  0 0.35 0  0.025 0.35 0  0.05 0.35 0  0.075 0.35 0  0.1 0.35 0  0.125 0.35 0  0.15 0.35 0  0.175 0.35 0  0.2 0.35 0  0.225 0.35 0  0.25 0.35 0  0.275 0.35 0  0.3 0.35 0  0.325 0.35 0  0.35 0.35 0  0.375 0.35 0  0.4 0.35 0  0.425 0.35 0  0.45 0.35 0  0.475 0.35 0  0.5 0.35 0  0.525 0.35 0  0.55 0.35 0  0.575 0.35 0  0.6 0.35 0  0.625 0.35 0  0.65 0.35 0  0.675 0.35 0  0.7 0.35 0  0.725 0.35 0  0.75 0.35 0  0.775 0.35 0  0.8 0.35 0  0.825 0.35 0  0.85 0.35 0  0.875 0.35 0  0.9 0.35 0  0.925 0.35 0  0.95 0.35 0  0.975 0.35 0  1 0.35 0  0 0.375 0  0.025 0.375 0  0.05 0.375 0  0.075 0.375 0  0.1 0.375 0  0.125 0.375 0  0.15 0.375 0  0.175 0.375 0  0.2 0.375 0  0.225 0.375 0  0.25 0.375 0  0.275 0.375 0  0.3 0.375 0  0.325 0.375 0  0.35 0.375 0  0.375 0.375 0  0.4 0.375 0  0.425 0.375 0  0.45 0.375 0  0.475 0.375 0  0.5 0.375 0  0.525 0.375 0  0.55 0.375 0  0.575 0.375 0  0.6 0.375 0  0.625 0.375 0  0.65 0.375 0  0.675 0.375 0  0.7 0.375 0  0.725 0.375 0  0.75 0.375 0  0.775 0.375 0  0.8 0.375 0  0.825 0.375 0  0.85 0.375 0  0.875 0.375 0  0.9 0.375 0  0.925 0.375 0  0.95 0.375 0  0.975 0.375 0  1 0.375 0  0 0.4 0  0.025 0.4 0  0.05 0.4 0  0.075 0.4 0  0.1 0.4 0  0.125 0.4 0  0.15 0.4 0  0.175 0.4 0  0.2 0.4 0  0.225 0.4 0  0.25 0.4 0  0.275 0.4 0  0.3 0.4 0  0.325 0.4 0  0.35 0.4 0  0.375 0.4 0  0.4 0.4 0  0.425 0.4 0  0.45 0.4 0  0.475 0.4 0  0.5 0.4 0  0.525 0.4 0  0.55 0.4 0  0.575 0.4 0  0.6 0.4 0  0.625 0.4 0  0.65 0.4 0  0.675 0.4 0  0.7 0.4 0  0.725 0.4 0  0.75 0.4 0  0.775 0.4 0  0.8 0.4 0  0.825 0.4 0  0.85 0.4 0  0.875 0.4 0  0.9 0.4 0  0.925 0.4 0  0.95 0.4 0  0.975 0.4 0  1 0.4 0  0 0.425 0  0.025 0.425 0  0.05 0.425 0  0.075 0.425 0  0.1 0.425 0  0.125 0.425 0  0.15 0.425 0  0.175 0.425 0  0.2 0.425 0  0.225 0.425 0  0.25 0.425 0  0.275 0.425 0  0.3 0.425 0  0.325 0.425 0  0.35 0.425 0  0.375 0.425 0  0.4 0.425 0  0.425 0.425 0  0.45 0.425 0  0.475 0.425 0  0.5 0.425 0  0.525 0.425 0  0.55 0.425 0  0.575 0.425 0  0.6 0.425 0  0.625 0.425 0  0.65 0.425 0  0.675 0.425 0  0.7 0.425 0  0.725 0.425 0  0.75 0.425 0  0.775 0.425 0  0.8 0.425 0  0.825 0.425 0  0.85 0.425 0  0.875 0.425 0  0.9 0.425 0  0.925 0.425 0  0.95 0.425 0  0.975 0.425 0  1 0.425 0  0 0.45 0  0.02
[...]
<PointData  Scalars="ControlVisualisation"> 
<DataArray  type="Float64"  Name="ControlVisualisation"  format="ascii">3.6199335008217837e-01  3.1160620547275630e-01  3.1161824566402302e-01  3.1097386307600577e-01  3.0969991587196455e-01  3.0828983457528142e-01  3.0716299873154246e-01  3.0644407001122437e-01  3.0604492997383143e-01  3.0579165782498047e-01  3.0552139664822342e-01  3.0514008588491365e-01  3.0463196207910392e-01  3.0403530251153399e-01  3.0341050670119191e-01  3.0281670449611198e-01  3.0230034964694946e-01  3.0189278090795141e-01  3.0161247629958438e-01  3.0146873393822560e-01  3.0146489717582481e-01  3.0160025565679716e-01  3.0187030938510495e-01  3.0226535575892088e-01  3.0276759043983292e-01  3.0334735736264412e-01  3.0396008922918699e-01  3.0454694685870731e-01  3.0504374406241247e-01  3.0540284735068540e-01  3.0562735673496882e-01  3.0580337190649121e-01  3.0609918973047323e-01  3.0670300745001433e-01  3.0773517468076611e-01  3.0913239873040260e-01  3.1055493949447321e-01  3.1149174620999198e-01  3.1169363557158247e-01  3.1150919702760571e-01  4.2356105564507490e-01  3.1165713527423156e-01  2.1037642456581607e-01  2.0890428730066993e-01  2.0447875400873300e-01  1.9828062464514207e-01  1.9371095772168670e-01  1.9295530532362512e-01  1.9578475685981092e-01  2.0054331395049041e-01  2.0534005908809441e-01  2.0876541903162288e-01  2.1016496324916167e-01  2.0956877831580284e-01  2.0743348020915173e-01  2.0437157676890594e-01  2.0096892583237552e-01  1.9770248453025413e-01  1.9492515856701037e-01  1.9288051505781056e-01  1.9172337403770925e-01  1.9153570999240385e-01  1.9233522468154249e-01  1.9407690526960994e-01  1.9664795714491998e-01  1.9985573743412186e-01  2.0340867195110013e-01  2.0689378107920375e-01  2.0976353329241482e-01  2.1136008333559489e-01  2.1102221361277973e-01  2.0832107348088380e-01  2.0342288485504473e-01  1.9742262750129724e-01  1.9232779433931205e-01  1.9043837323425503e-01  1.9301863021515156e-01  1.9928333883680638e-01  2.0596709084998466e-01  2.0982614816154174e-01  2.1054874837964771e-01  3.1151419694834992e-01  3.1229153681257293e-01  2.1006466996566048e-01  2.0392199170853578e-01  1.9994839106875048e-01  2.0841606625034109e-01  2.3369351716834355e-01  2.7781532122399355e-01  3.4137205333682075e-01  4.1660572113287503e-01  4.8771980700080136e-01  5.4086254133657152e-01  5.7100492272605963e-01  5.8069745023904751e-01  5.7575341892671217e-01  5.6215858949722963e-01  5.4478603220934430e-01  5.2717603064904972e-01  5.1174332025198366e-01  5.0006814460442195e-01  4.9312973450751962e-01  4.9145171517013114e-01  4.9517430938980717e-01  5.0407384686018364e-01  5.1753815697907135e-01  5.3449052848299883e-01  5.5324380706844511e-01  5.7127227286832660e-01  5.8493182529888177e-01  5.8926463392250783e-01  5.7823314105687640e-01  5.4606521750218284e-01  4.9051183746163213e-01  4.1716480326133143e-01  3.3975048979661138e-01  2.7228919490744469e-01  2.2286746632845614e-01  1.9775641876682279e-01  1.9606361840427650e-01  2.0494464731250803e-01  2.1089679416972376e-01  3.1188684950690332e-01  3.1369365768071389e-01  2.0844065947121707e-01  2.0924741949571707e-01  2.6175926440867125e-01  4.5152021464151137e-01  8.0974064235942922e-01  9.9665431467351917e-01  9.8959522262340793e-01  9.6176884008979091e-01  9.5287541035285850e-01  9.5164781214959193e-01  9.5070551766110867e-01  9.4848155882123841e-01  9.4514849782473420e-01  9.4116522040497841e-01  9.3697617986010184e-01  9.3297611086373045e-01  9.2950471792230016e-01  9.2683479127251811e-01  9.2516020427663404e-01  9.2459044510260158e-01  9.2515112678937195e-01  9.2678661672633011e-01  9.2936282879449517e-01  9.3267223150322187e-01  9.3644493458346112e-01  9.4036613479074982e-01  9.4409170751471871e-01  9.4724872555367989e-01  9.4943611374835235e-01  9.5041768247619451e-01  9.5139593683847468e-01  9.5919747614980910e-01  9.8456101127989581e-01  9.8187560245675409e-01  7.8223828545047969e-01  4.3137692000290684e-01  2.4427716982120451e-01  1.9967843131580390e-01  2.1066414506486095e-01  3.1288752217029414e-01  3.1528014041228020e-01  2.1632326839597232e-01  3.5517711807160518e-01  9.0052631986484888e-01  9.4564636726538864e-01  9.6872493071774035e-01  9.6524586274409940e-01  9.6882781418744435e-01  9.7150139894428567e-01  9.7278526778671437e-01  9.7327767250474706e-01  9.7328086104358191e-01  9.7295264643456314e-01  9.7240878049230162e-01  9.7175047478960463e-01  9.7106614927515977e-01  9.7042790312660498e-01  9.6988939626006176e-01  9.6948661825136329e-01  9.6924083339949285e-01  9.6916222080261172e-01  9.6925278559258354e-01  9.6950756863557519e-01  9.6991375908984523e-01  9.7044790598201502e-01  9.7107200398172100e-01  9.7172977343354305e-01  9.7234480475786411e-01  9.7282184148755935e-01  9.7305023508434385e-01  9.7290282696345787e-01  9.7220981006207141e-01  9.7065500136896465e-01  9.6757518591329772e-01  9.6321851855991369e-01  9.6598860368588924e-01  9.4437211258544096e-01  8.6568545338432523e-01  3.1375655644939948e-01  2.0939726320327673e-01  3.1448498280784237e-01  3.2167323763118172e-01  4.1741002626864621e-01  9.4419723576455072e-01  9.6341589486640178e-01  9.7623736387662130e-01  9.7976775139504590e-01  9.8205670037843207e-01  9.8343537154335681e-01  9.8421431058002440e-01  9.8465454757312598e-01  9.8486481506720158e-01  9.8490330505671564e-01  9.8481904173496748e-01  9.8465916391150732e-01  9.8446527528011007e-01  9.8426947331357251e-01  9.8409340561750469e-01  9.8394981565371242e-01  9.8384507443795544e-01  9.8378162568831473e-01  9.8375985961008783e-01  9.8377927134280307e-01  9.8383888781575179e-01  9.8393697124652990e-01  9.8407000383313403e-01  9.8423098231532147e-01  9.8440718343177847e-01  9.8457791093380065e-01  9.8471327921585938e-01  9.8477522642815418e-01  9.8472021916784991e-01  9.8449858001511303e-01  9.8404089470096789e-01  9.8322187463221589e-01  9.8178720554743359e-01  9.7918157927417904e-01  9.7406548892467915e-01  9.5877578115025475e-01  9.3526720117222029e-01  2.9032810503695738e-01  3.1837930182129237e-01  6.7005950981444862e-01  9.5868638116432514e-01  9.7665796975937724e-01  9.8455673714073211e-01  9.8741378773719157e-01  9.8851236796396236e-01  9.8906829851050404e-01  9.8939506535473198e-01  9.8959629561273477e-01  9.8971624660197244e-01  9.8978135455785787e-01  9.8980915875702513e-01  9.8981196630072887e-01  9.8979927952384372e-01  9.8977875657063774e-01  9.8975621919394452e-01  9.8973556358746206e-01  9.8971894173490826e-01  9.8970718544772707e-01  9.8970032842622602e-01  9.8969808715988383e-01  9.8970019602192627e-01  9.8970653505204009e-01  9.8971703925060817e-01  9.8973142937240921e-01  9.8974884385258355e-01  9.8976746920317316e-01  9.8978426111939943e-01  9.8979481770687683e-01  9.8979335044442718e-01  9.8977241446776043e-01  9.8972194562466287e-01  9.8962799018859671e-01  9.8947037860317766e-01  9.8920633410537062e-01  9.8870282097825046e-01  9.8753959236762412e-01  9.8435104991465283e-01  9.7390013559944166e-01  9.4984777592506209e-01  3.5858410917668104e-01  9.8290833137245570e-01  9.9288249670735429e-01  9.9447849235892960e-01  9.9477112959640257e-01  9.9457254434458930e-01  9.9415391410047504e-01  9.9368247412909727e-01  9.9326814980266354e-01  9.9296046151801587e-01  9.9275861980509494e-01  9.9263747824060855e-01  9.9256995355260746e-01  9.9253592556970927e-01  9.9252247332300314e-01  9.9252168727843515e-01  9.9252855890328850e-01  9.9253951320133049e-01  9.9255160674404541e-01  9.9256227563835520e-01  9.9256943691390376e-01  9.9257172547986616e-01  9.9256869752853116e-01  9.9256090508713413e-01  9.9254981203928838e-01  9.9253758440623652e-01  9.9252686379208799e-01  9.9252071017576748e-01  9.9252292639867057e-01  9.9253893362994716e-01  9.9257735607950914e-01  9.9265254241141809e-01  9.9278780494850183e-01  9.9301630790243844e-01  9.9336962570754128e-01  9.9384325428886600e-01  9.9435796673204635e-01  9.9477208514680004e-01  9.9490777174424927e-01  9.9470309261081891e-01  9.9278753994118674e-01  9.6216071672195669e-01  9.9615929139262993e-01  9.9773659309843032e-01  9.9734184324073072e-01  9.9684065754606976e-01  9.9635311946129901e-01  9.9590757210052350e-01  9.9552822542270236e-01  9.9519869259591065e-01  9.9490346320334466e-01  9.9464475395683760e-01  9.9442718774618299e-01  9.9425227708951425e-01  9.9411993859776537e-01  9.9402859758625683e-01  9.9397452961997246e-01  9.9395166916802491e-01  9.9395184097335343e-01  9.9396550083948676e-01  9.9398309436130883e-01  9.9399665136788129e-01  9.9400106589270976e-01  9.9399481494666098e-01  9.9398015140500540e-01  9.9396279825505507e-01  9.9395105087729785e-01  9.9395429418893844e-01  9.9398133550301249e-01  9.9403919985540234e-01  9.9413267548624462e-01  9.9426452583865255e-01  9.9443688245477224e-01  9.9465441427095558e-01  9.9492609466507154e-01  9.9525736921859043e-01  9.9563422854938433e-01  9.9603095802961172e-01  9.9646150097483910e-01  9.9695779627983805e-01  9.9752203822240770e-01  9.9784057938675197e-01  9.9442595872858752e-01  9.9811443431747993e-01  9.9886941008692964e-01  9.9849128071056115e-01  9.9792574026504532e-01  9.9728671670673519e-01  9.9662236356401623e-01  9.9609590482348753e-01  9.9580516653337559e-01  9.9565862048173570e-01  9.9552275132138290e-01  9.9534869841186635e-01  9.9515198369422320e-01  9.9496257365303187e-01  9.9480335028947875e-01  9.9468823141234097e-01  9.9462306007643053e-01  9.9460422995373221e-01  9.9461861876248725e-01  9.9464752042674498e-01  9.9467274958553431e-01  9.9468177396063395e-01  9.9467052497831443e-01  9.9464414368419607e-01  9.9461593894190770e-01  9.9460418592959055e-01  9.9462670008559673e-01  9.9469499479341394e-01  9.9481125035609108e-01  9.9496898065580941e-01  9.9515382917087492e-01  9.9534272384573630e-01  9.9551032899565750e-01  9.9565594364235754e-01  9.9583817263799712e-01  9.9616147322641957e-01  9.9668342084445583e-01  9.9733732278428178e-01  9.9798347996103776e-01  9.9855818038636757e-01  9.9890197657607671e-01  9.9769504779998786e-01  9.9838428947401414e-01  9.9908558951465598e-01  9.9874538338818308e-01  9.9821535084576407e-01  9.9759422882878745e-01  9.9688798330756789e-01  9.9623240799961155e-01  9.9583709002674081e-01  9.9571996507527083e-01  9.9567984312918667e-01  9.9556968022561121e-01  9.9538612768822043e-01  9.9518024001391603e-01  9.9499385287122710e-01  9.9485487797771965e-01  9.9478164631974653e-01  9.9477673876187478e-01  9.9482266874627701e-01  9.9488854024646090e-01  9.9494264250063313e-01  9.9496274617499214e-01  9.9494123942364010e-01  9.9488640544099294e-01  9.9482088449892903e-01  9.9477622038876878e-01  9.9478237832255345e-01  9.9485551565396091e-01  9.9499224879381820e-01  9.9517436555414163e-01  9.9537398936059251e-01  9.9554931331662644e-01  9.9565444487618382e-01  9.9570487190131196e-01  9.9584501489298227e-01  9.9624728351343483e-01  9.9689150046508501e-01  9.9759298116153949e-01  9.9821640526960365e-01  9.9874472127319935e-01  9.9908377029998308e-01  9.9838540889047533e-01  9.9770752754509551e-01  9.9890235218024082e-01  9.9853446249837052e-01  9.9795670439762951e-01  9.9731194165729031e-01  9.9658836016088026e-01  9.9589824000251792e-01  9.9544206353139053e-01  9.9529207512236206e-01  9.9526914931410226e-01  9.9518979815413400e-01  9.9502507996713696e-01  9.9482872497398722e-01  9.9465682622158480e-01  9.9455076273355436e-01  9.9453363089536562e-01  9.9460117057832331e-01  9.9472172405449133e-01  9.9485025458020604e-01  9.9494556024818925e-01  9.9498083961651818e-01  9.9494702369776844e-01  9.9485302606743020e-01  9.9472523020206982e-01  9.9460415209934416e-01  9.9453419326103631e-01  9.9454681477027018e-01  9.9464658670888040e-01  9.9481096585511297e-01  9.9499940535210862e-01  9.9515787651648691e-01  9.9523634166422270e-01  9.9526411850081897e-01  9.9541453317875672e-01  9.9585936636864902e-01  9.9653890782112609e-01  9.9726065583469004e-01  9.9790302504488082e-01  9.9847416769407693e-01  9.9886744528073068e-01  9.9811869202146764e-01  9.9442603623701120e-01  9.9782108895987809e-01  9.9745358963651076e-01  9.9685041898297044e-01  9.9621936996311944e-01  9.9551808409920328e-01  9.9485768743957426e-01  9.9440831270451746e-01  9.9422708251022751e-01  9.9417587831614840e-01  9.9410466045765444e-01  9.9398292080959150e-01  9.9385643820535441e-01  9.9377929897532669e-01  9.9378506218005935e-01  9.9387768960612699e-01  9.9403248966034474e-01  9.9420808729454735e-01  9.9436305501620459e-01  9.9446720547906098e-01  9.9450418652316053e-01  9.9446923633321493e-01  9.9436739050461187e-01  9.9421452188530246e-01  9.9403942293431069e-01  9.9388194764244597e-01  9.9378287733498616e-01  9.9376772103651401e-01  9.9383414552663052e-01  9.9395069013982185e-01  9.9406594805307880e-01  9.9413447101309860e-01  9.9417825511581326e-01  9.9433594422190352e-01  9.9475518046642908e-01  9.9540216580159491e-01  9.9610399593394505e-01  9.9671939281186595e-01  9.9727011212960548e-01  9.9772414869049220e-01  9.9616368095597829e-01  9.6068163707904908e-01  9.9205025832533023e-01  9.9349401514690194e-01  9.9368070021730803e-01  9.9345659698923661e-01  9.9297041646146278e-01  9.9246045908493918e-01  9.9211861113843558e-01  9.9199436142543151e-01  9.9199499592760676e-01  9.9202340868552008e-01  9.9205559583715275e-01  9.9211191372790841e-01  9.9221081948070589e-01  9.9235041789850220e-01  9.9251169683828977e-01  9.9266941990267177e-01  9.9280229223109207e-01  9.9289823650003384e-01  9.9295388246358041e-01  9.9297046437791814e-01  9.9294953707922240e-01  9.9289103074843987e-01  9.9279452148323843e-01  9.9266301847665195e-01  9.9250706349828255e-01  9.9234589726914202e-01  9.9220311928112415e-01  9.9209721842864185e-01  9.9203109344628926e-01  9.9198815856871148e-01  9.9194663954954587e-01  9.9192008893162720e-01  9.9199377405870193e-01  9.9227405958188164e-01  9.9275355102655105e-01  9.9325955226025431e-01  9.9351878469511068e-01  9.9323508318715259e-01  9.9222961935045761e-01  9.8279194970598116e-01  3.3337921495898604e-01  8.7753759387405339e-01  9.6936010639358383e-01  9.8191336907436455e-01  9.8509004955585455e-01  9.8614993315423871e-01  9.8660940429124544e-01  9.8697507507582316e-01  9.8738426299963400e-01  9.8782755252642229e-01  9.8827338433269629e-01  9.8870650058227627e-01  9.8911970101776081e-01  9.8950226266858765e-01  9.8984101035511751e-01  9.9012672377532684e-01  9.9035686478172757e-01  9.9053353830677804e-01  9.9065992401910385e-01  9.9073785801517311e-01  9.9076732701784609e-01  9.9074723339695114e-01  9.9067628197690216e-01  9.9055323083101154e-01  9.9037665549557019e-01  9.9014507990836020e-01  9.8985822767423104e-01  9.8951911458815034e-01  9.8913519768705771e-01  9.8871625064387325e-01  9.8826938724176083e-01  9.8779752446986191e-01  9.8730818641882012e-01  9.8682342297542047e-01  9.8635837635268897e-01  9.8583176986628973e-01  9.8487308629608383e-01  9.8245822159527463e-01  9.7286591794754951e-01  9.2463876299484005e-01  6.2882259067052726e-01  3.0442117646243461e-01  1.7875747528105301e-01  5.5602981031747933e-01  9.0815708185762178e-01  9.4991651001621835e-01  9.6347063481929263e-01  9.7003112922363754e-01  9.7393987897638246e-01  9.7664531246813313e-01  9.7876102512130125e-01  9.8055438970365805e-01  9.8212399612452872e-01  9.8349383196853080e-01  9.8466372128463187e-01  9.8563467197228538e-01  9.8641802268547374e-01  9.8703316505390659e-01  9.8750042602663413e-01  9.8783529181479479e-01  9.8804640317145709e-01  9.8813640109750034e-01  9.8810364047520671e-01  9.8794331919486933e-01  9.8764753389808513e-01  9.8720466913189564e-01  9.8659929813212055e-01  9.8581411090212001e-01  9.8483439719193488e-01  9.8365276843691263e-01  9.8226890574827563e-01  9.8067970056807552e-01  9.7885809198042306e-01  9.7671500355276808e-01  9.7402822062973649e-01  9.7034032463449049e-01  9.6484182813328967e-01  9.5442471851087007e-01  9.2136603718257326e-01  6.7886794567295694e-01  2.2932432231376443e-01  3.0638999321265148e-01  3.0122043250906710e-01  1.5056551889538500e-01  1.2530248846797754e-01  2.1326198636670643e-01  5.4210841381737185e-01  8.2352874145338706e-01  8.9871545258880770e-01  9.2684569996593691e-01  9.4139416596741510e-01  9.5050839674207377e-01  9.5683270894117434e-01  9.6139499559762931e-01  9.6469383679883791e-01  9.6705227321642506e-01  9.6872454946274689e-01  9.6991459967482330e-01  9.7077271341237636e-01  9.7139539716108170e-01  9.7183331958133590e-01  9.7210503454957997e-01  9.7221232182071848e-01  9.7215260778233414e-01  9.7192461317280365e-01  9.7152543772994970e-01  9.7094011753852838e-01  9.7012695266735061e-01  9.6900288616782659e-01  9.6743340812622880e-01  9.6523085994970936e-01  9.6215983304212127e-01  9.5793087276555000e-01  9.5212553593608407e-01  9.4389999534476854e-01  9.3096025056330178e-01  9.0587063830885661e-01  8.3973386972440289e-01  5.9635698028196937e-01  2.3601770101198188e-01  1.3332968115951602e-01  1.5350681823943471e-01  3.0185033862101546e-01  3.0130170268818945e-01  1.5460258566063709e-01  1.1221284653049254e-01  9.4550406541575219e-02  1.0404472974325905e-01  1.5049221030850307e-01  2.5907407987491993e-01  4.2860272285893197e-01  6.0127941486828740e-01  7.2909692988526553e-01  8.0894789286088531e-01  8.5683686814540838e-01  8.8615295105737046e-01  9.0473363779078808e-01  9.1689684456665843e-01  9.2507239425109544e-01  9.3066503206756246e-01  9.3449773017590398e-01  9.3705205794370050e-01  9.3860205363366744e-01  9.3928759928974503e-01  9.3915198148409074e-01  9.3815514467547212e-01  9.3616447943132108e-01  9.3291793388285671e-01  9.2794744668344009e-01  9.2044074402972498e-01  9.0900065581570688e-01  8.9121570375473780e-01  8.6285106601807005e-01  8.1636859863402300e-01  7.3915868945390861e-01  6.1616473778115421e-01  4.4871351837255524e-01  2.7814435114628960e-01  1.5891046647421098e-01  1.0640216808521964e-01  9.8410806500931897e-02  1.1433768456363161e-01  1.5331748143453031e-01  3.0110681101323539e-01  3.0233738339526872e-01  1.5899179876443295e-01  1.2073410451342421e-01  1.0064375408538372e-01  8.9583286596898612e-02  8.6560905366020763e-02  9.0623132120905378e-02  1.0015762012072131e-01  1.1432000810457187e-01  1.3252898859722645e-01  1.5338084206290598e-01  1.7515071428792145e-01  1.9635874675030257e-01  2.1596711061177024e-01  2.3332103692457709e-01  2.4803855672583852e-01  2.5993257132159531e-01  2.6896130601933205e-01  2.7518332631202602e-01  2.7870724462584795e-01  2.7964187390052164e-01  2.7805836315836169e-01  2.7397353450465461e-01  2.6735779926031222e-01  2.5816467693550271e-01  2.4637378050486847e-01  2.3203697069863954e-01  2.1532097075521409e-01  1.9655113185557296e-01  1.7627494408084576e-01  1.5535867429836234e-01  1.3507495492210733e-01  1.1704248076166804e-01  1.0287299630736124e-01  9.3659610631440807e-02  8.9834886633328781e-02  9.1853245773295428e-02  1.0119065050070189e-01  1.2020888780282316e-01  1.5781407982415219e-01  3.0150647046945789e-01  3.0377170956071226e-01  1.6409790984251521e-01  1.2821848121029866e-01  1.1114401102335938e-01  1.0083770041632997e-01  9.4295181097829014e-02  9.0257025425496351e-02  8.8017044186704085e-02  8.7118306378542953e-02  8.7157230999635377e-02  8.7774861195527021e-02  8.8708653532699341e-02  8.9778500886271748e-02  9.0866387935431281e-02  9.1895287526818581e-02  9.2814710805535813e-02  9.3592577153997991e-02  9.4210714101846144e-02  9.4661447565497811e-02  9.4944107876721806e-02  9.5061583510102021e-02  9.5017668417412396e-02  9.4815896692408669e-02  9.4460114425561362e-02  9.3956481842183207e-02  9.3316182563787139e-02  9.2558104635239530e-02  9.1711372032800567e-02  9.0818800221298707e-02  8.9943483593761989e-02  8.9180542707482963e-02  8.8673700237529546e-02  8.8633376093205471e-02  8.9353602384611680e-02  9.1231329189529711e-02  9.4805515354014408e-02  1.0086740617593577e-01  1.1075425070519251e-01  1.2758708565710108e-01  1.6293590808914479e-01  3.0287339621465459e-01  3.0507864520184569e-01  1.6925550656091323e-01  1.3530212747521919e-01  1.2014870402744451e-01  1.1145080201827236e-01  1.0563026404829193e-01  1.0141636167230304e-01  9.8208001003484285e-02  9.570199327