<?xml version="1.0"?>
<VTKFile type="UnstructuredGrid"  version="0.1"  >
<UnstructuredGrid>
<Piece  NumberOfPoints="1681" NumberOfCells="3200">
<Points>
<DataArray  type="Float64"  NumberOfComponents="3"  format="ascii">0 0 0  0.025 0 0  0.05 0 0  0.075 0 0  0.1 0 0  0.125 0 0  0.15 0 0  0.175 0 0  0.2 0 0  0.225 0 0  0.25 0 0  0.275 0 0  0.3 0 0  0.325 0 0  0.35 0 0  0.375 0 0  0.4 0 0  0.425 0 0  0.45 0 0  0.475 0 0  0.5 0 0  0.525 0 0  0.55 0 0  0.575 0 0  0.6 0 0  0.625 0 0  0.65 0 0  0.675 0 0  0.7 0 0  0.725 0 0  0.75 0 0  0.775 0 0  0.8 0 0  0.825 0 0  0.85 0 0  0.875 0 0  0.9 0 0  0.925 0 0  0.95 0 0  0.975 0 0  1 0 0  0 0.025 0  0.025 0.025 0  0.05 0.025 0  0.075 0.025 0  0.1 0.025 0  0.125 0.025 0  0.15 0.025 0  0.175 0.025 0  0.2 0.025 0  0.225 0.025 0  0.25 0.025 0  0.275 0.025 0  0.3 0.025 0  0.325 0.025 0  0.35 0.025 0  0.375 0.025 0  0.4 0.025 0  0.425 0.025 0  0.45 0.025 0  0.475 0.025 0  0.5 0.025 0  0.525 0.025 0  0.55 0.025 0  0.575 0.025 0  0.6 0.025 0  0.625 0.025 0  0.65 0.025 0  0.675 0.025 0  0.7 0.025 0  0.725 0.025 0  0.75 0.025 0  0.775 0.025 0  0.8 0.025 0  0.825 0.025 0  0.85 0.025 0  0.875 0.025 0  0.9 0.025 0  0.925 0.025 0  0.95 0.025 0  0.975 0.025 0  1 0.025 0  0 0.05 0  0.025 0.05 0  0.05 0.05 0  0.075 0.05 0  0.1 0.05 0  0.125 0.05 0  0.15 0.05 0  0.175 0.05 0  0.2 0.05 0  0.225 0.05 0  0.25 0.05 0  0.275 0.05 0  0.3 0.05 0  0.325 0.05 0  0.35 0.05 0  0.375 0.05 0  0.4 0.05 0  0.425 0.05 0  0.45 0.05 0  0.475 0.05 0  0.5 0.05 0  0.525 0.05 0  0.55 0.05 0  0.575 0.05 0  0.6 0.05 0  0.625 0.05 0  0.65 0.05 0  0.675 0.05 0  0.7 0.05 0  0.725 0.05 0  0.75 0.05 0  0.775 0.05 0  0.8 0.05 0  0.825 0.05 0  0.85 0.05 0  0.875 0.05 0  0.9 0.05 0  0.925 0.05 0  0.95 0.05 0  0.975 0.05 0  1 0.05 0  0 0.075 0  0.025 0.075 0  0.05 0.075 0  0.075 0.075 0  0.1 0.075 0  0.125 0.075 0  0.15 0.075 0  0.175 0.075 0  0.2 0.075 0  0.225 0.075 0  0.25 0.075 0  0.275 0.075 0  0.3 0.075 0  0.325 0.075 0  0.35 0.075 0  0.375 0.075 0  0.4 0.075 0  0.425 0.075 0  0.45 0.075 0  0.475 0.075 0  0.5 0.075 0  0.525 0.075 0  0.55 0.075 0  0.575 0.075 0  0.6 0.075 0  0.625 0.075 0  0.65 0.075 0  0.675 0.075 0  0.7 0.075 0  0.725 0.075 0  0.75 0.075 0  0.775 0.075 0  0.8 0.075 0  0.825 0.075 0  0.85 0.075 0  0.875 0.075 0  0.9 0.075 0  0.925 0.075 0  0.95 0.075 0  0.975 0.075 0  1 0.075 0  0 0.1 0  0.025 0.1 0  0.05 0.1 0  0.075 0.1 0  0.1 0.1 0  0.125 0.1 0  0.15 0.1 0  0.175 0.1 0  0.2 0.1 0  0.225 0.1 0  0.25 0.1 0  0.275 0.1 0  0.3 0.1 0  0.325 0.1 0  0.35 0.1 0  0.375 0.1 0  0.4 0.1 0  0.425 0.1 0  0.45 0.1 0  0.475 0.1 0  0.5 0.1 0  0.525 0.1 0  0.55 0.1 0  0.575 0.1 0  0.6 0.1 0  0.625 0.1 0  0.65 0.1 0  0.675 0.1 0  0.7 0.1 0  0.725 0.1 0  0.75 0.1 0  0.775 0.1 0  0.8 0.1 0  0.825 0.1 0  0.85 0.1 0  0.875 0.1 0  0.9 0.1 0  0.925 0.1 0  0.95 0.1 0  0.975 0.1 0  1 0.1 0  0 0.125 0  0.025 0.125 0  0.05 0.125 0  0.075 0.125 0  0.1 0.125 0  0.125 0.125 0  0.15 0.125 0  0.175 0.125 0  0.2 0.125 0  0.225 0.125 0  0.25 0.125 0  0.275 0.125 0  0.3 0.125 0  0.325 0.125 0  0.35 0.125 0  0.375 0.125 0  0.4 0.125 0  0.425 0.125 0  0.45 0.125 0  0.475 0.125 0  0.5 0.125 0  0.525 0.125 0  0.55 0.125 0  0.575 0.125 0  0.6 0.125 0  0.625 0.125 0  0.65 0.125 0  0.675 0.125 0  0.7 0.125 0  0.725 0.125 0  0.75 0.125 0  0.775 0.125 0  0.8 0.125 0  0.825 0.125 0  0.85 0.125 0  0.875 0.125 0  0.9 0.125 0  0.925 0.125 0  0.95 0.125 0  0.975 0.125 0  1 0.125 0  0 0.15 0  0.025 0.15 0  0.05 0.15 0  0.075 0.15 0  0.1 0.15 0  0.125 0.15 0  0.15 0.15 0  0.175 0.15 0  0.2 0.15 0  0.225 0.15 0  0.25 0.15 0  0.275 0.15 0  0.3 0.15 0  0.325 0.15 0  0.35 0.15 0  0.375 0.15 0  0.4 0.15 0  0.425 0.15 0  0.45 0.15 0  0.475 0.15 0  0.5 0.15 0  0.525 0.15 0  0.55 0.15 0  0.575 0.15 0  0.6 0.15 0  0.625 0.15 0  0.65 0.15 0  0.675 0.15 0  0.7 0.15 0  0.725 0.15 0  0.75 0.15 0  0.775 0.15 0  0.8 0.15 0  0.825 0.15 0  0.85 0.15 0  0.875 0.15 0  0.9 0.15 0  0.925 0.15 0  0.95 0.15 0  0.975 0.15 0  1 0.15 0  0 0.175 0  0.025 0.175 0  0.05 0.175 0  0.075 0.175 0  0.1 0.175 0  0.125 0.175 0  0.15 0.175 0  0.175 0.175 0  0.2 0.175 0  0.225 0.175 0  0.25 0.175 0  0.275 0.175 0  0.3 0.175 0  0.325 0.175 0  0.35 0.175 0  0.375 0.175 0  0.4 0.175 0  0.425 0.175 0  0.45 0.175 0  0.475 0.175 0  0.5 0.175 0  0.525 0.175 0  0.55 0.175 0  0.575 0.175 0  0.6 0.175 0  0.625 0.175 0  0.65 0.175 0  0.675 0.175 0  0.7 0.175 0  0.725 0.175 0  0.75 0.175 0  0.775 0.175 0  0.8 0.175 0  0.825 0.175 0  0.85 0.175 0  0.875 0.175 0  0.9 0.175 0  0.925 0.175 0  0.95 0.175 0  0.975 0.175 0  1 0.175 0  0 0.2 0  0.025 0.2 0  0.05 0.2 0  0.075 0.2 0  0.1 0.2 0  0.125 0.2 0  0.15 0.2 0  0.175 0.2 0  0.2 0.2 0  0.225 0.2 0  0.25 0.2 0  0.275 0.2 0  0.3 0.2 0  0.325 0.2 0  0.35 0.2 0  0.375 0.2 0  0.4 0.2 0  0.425 0.2 0  0.45 0.2 0  0.475 0.2 0  0.5 0.2 0  0.525 0.2 0  0.55 0.2 0  0.575 0.2 0  0.6 0.2 0  0.625 0.2 0  0.65 0.2 0  0.675 0.2 0  0.7 0.2 0  0.725 0.2 0  0.75 0.2 0  0.775 0.2 0  0.8 0.2 0  0.825 0.2 0  0.85 0.2 0  0.875 0.2 0  0.9 0.2 0  0.925 0.2 0  0.95 0.2 0  0.975 0.2 0  1 0.2 0  0 0.225 0  0.025 0.225 0  0.05 0.225 0  0.075 0.225 0  0.1 0.225 0  0.125 0.225 0  0.15 0.225 0  0.175 0.225 0  0.2 0.225 0  0.225 0.225 0  0.25 0.225 0  0.275 0.225 0  0.3 0.225 0  0.325 0.225 0  0.35 0.225 0  0.375 0.225 0  0.4 0.225 0  0.425 0.225 0  0.45 0.225 0  0.475 0.225 0  0.5 0.225 0  0.525 0.225 0  0.55 0.225 0  0.575 0.225 0  0.6 0.225 0  0.625 0.225 0  0.65 0.225 0  0.675 0.225 0  0.7 0.225 0  0.725 0.225 0  0.75 0.225 0  0.775 0.225 0  0.8 0.225 0  0.825 0.225 0  0.85 0.225 0  0.875 0.225 0  0.9 0.225 0  0.925 0.225 0  0.95 0.225 0  0.975 0.225 0  1 0.225 0  0 0.25 0  0.025 0.25 0  0.05 0.25 0  0.075 0.25 0  0.1 0.25 0  0.125 0.25 0  0.15 0.25 0  0.175 0.25 0  0.2 0.25 0  0.225 0.25 0  0.25 0.25 0  0.275 0.25 0  0.3 0.25 0  0.325 0.25 0  0.35 0.25 0  0.375 0.25 0  0.4 0.25 0  0.425 0.25 0  0.45 0.25 0  0.475 0.25 0  0.5 0.25 0  0.525 0.25 0  0.55 0.25 0  0.575 0.25 0  0.6 0.25 0  0.625 0.25 0  0.65 0.25 0  0.675 0.25 0  0.7 0.25 0  0.725 0.25 0  0.75 0.25 0  0.775 0.25 0  0.8 0.25 0  0.825 0.25 0  0.85 0.25 0  0.875 0.25 0  0.9 0.25 0  0.925 0.25 0  0.95 0.25 0  0.975 0.25 0  1 0.25 0  0 0.275 0  0.025 0.275 0  0.05 0.275 0  0.075 0.275 0  0.1 0.275 0  0.125 0.275 0  0.15 0.275 0  0.175 0.275 0  0.2 0.275 0  0.225 0.275 0  0.25 0.275 0  0.275 0.275 0  0.3 0.275 0  0.325 0.275 0  0.35 0.275 0  0.375 0.275 0  0.4 0.275 0  0.425 0.275 0  0.45 0.275 0  0.475 0.275 0  0.5 0.275 0  0.525 0.275 0  0.55 0.275 0  0.575 0.275 0  0.6 0.275 0  0.625 0.275 0  0.65 0.275 0  0.675 0.275 0  0.7 0.275 0  0.725 0.275 0  0.75 0.275 0  0.775 0.275 0  0.8 0.275 0  0.825 0.275 0  0.85 0.275 0  0.875 0.275 0  0.9 0.275 0  0.925 0.275 0  0.95 0.275 0  0.975 0.275 0  1 0.275 0  0 0.3 0  0.025 0.3 0  0.05 0.3 0  0.075 0.3 0  0.1 0.3 0  0.125 0.3 0  0.15 0.3 0  0.175 0.3 0  0.2 0.3 0  0.225 0.3 0  0.25 0.3 0  0.275 0.3 0  0.3 0.3 0  0.325 0.3 0  0.35 0.3 0  0.375 0.3 0  0.4 0.3 0  0.425 0.3 0  0.45 0.3 0  0.475 0.3 0  0.5 0.3 0  0.525 0.3 0  0.55 0.3 0  0.575 0.3 0  0.6 0.3 0  0.625 0.3 0  0.65 0.3 0  0.675 0.3 0  0.7 0.3 0  0.725 0.3 0  0.75 0.3 0  0.775 0.3 0  0.8 0.3 0  0.825 0.3 0  0.85 0.3 0  0.875 0.3 0  0.9 0.3 0  0.925 0.3 0  0.95 0.3 0  0.975 0.3 0  1 0.3 0  0 0.325 0  0.025 0.325 0  0.05 0.325 0  0.075 0.325 0  0.1 0.325 0  0.125 0.325 0  0.15 0.325 0  0.175 0.325 0  0.2 0.325 0  0.225 0.325 0  0.25 0.325 0  0.275 0.325 0  0.3 0.325 0  0.325 0.325 0  0.35 0.325 0  0.375 0.325 0  0.4 0.325 0  0.425 0.325 0  0.45 0.325 0  0.475 0.325 0  0.5 0.325 0  0.525 0.325 0  0.55 0.325 0  0.575 0.325 0  0.6 0.325 0  0.625 0.325 0  0.65 0.325 0  0.675 0.325 0  0.7 0.325 0  0.725 0.325 0  0.75 0.325 0  0.775 0.325 0  0.8 0.325 0  0.825 0.325 0  0.85 0.325 0  0.875 0.325 0  0.9 0.325 0  0.925 0.325 0  0.95 0.325 0  0.975 0.325 0  1 0.325 0  0 0.35 0  0.025 0.35 0  0.05 0.35 0  0.075 0.35 0  0.1 0.35 0  0.125 0.35 0  0.15 0.35 0  0.175 0.35 0  0.2 0.35 0  0.225 0.35 0  0.25 0.35 0  0.275 0.35 0  0.3 0.35 0  0.325 0.35 0  0.35 0.35 0  0.375 0.35 0  0.4 0.35 0  0.425 0.35 0  0.45 0.35 0  0.475 0.35 0  0.5 0.35 0  0.525 0.35 0  0.55 0.35 0  0.575 0.35 0  0.6 0.35 0  0.625 0.35 0  0.65 0.35 0  0.675 0.35 0  0.7 0.35 0  0.725 0.35 0  0.75 0.35 0  0.775 0.35 0  0.8 0.35 0  0.825 0.35 0  0.85 0.35 0  0.875 0.35 0  0.9 0.35 0  0.925 0.35 0  0.95 0.35 0  0.975 0.35 0  1 0.35 0  0 0.375 0  0.025 0.375 0  0.05 0.375 0  0.075 0.375 0  0.1 0.375 0  0.125 0.375 0  0.15 0.375 0  0.175 0.375 0  0.2 0.375 0  0.225 0.375 0  0.25 0.375 0  0.275 0.375 0  0.3 0.375 0  0.325 0.375 0  0.35 0.375 0  0.375 0.375 0  0.4 0.375 0  0.425 0.375 0  0.45 0.375 0  0.475 0.375 0  0.5 0.375 0  0.525 0.375 0  0.55 0.375 0  0.575 0.375 0  0.6 0.375 0  0.625 0.375 0  0.65 0.375 0  0.675 0.375 0  0.7 0.375 0  0.725 0.375 0  0.75 0.375 0  0.775 0.375 0  0.8 0.375 0  0.825 0.375 0  0.85 0.375 0  0.875 0.375 0  0.9 0.375 0  0.925 0.375 0  0.95 0.375 0  0.975 0.375 0  1 0.375 0  0 0.4 0  0.025 0.4 0  0.05 0.4 0  0.075 0.4 0  0.1 0.4 0  0.125 0.4 0  0.15 0.4 0  0.175 0.4 0  0.2 0.4 0  0.225 0.4 0  0.25 0.4 0  0.275 0.4 0  0.3 0.4 0  0.325 0.4 0  0.35 0.4 0  0.375 0.4 0  0.4 0.4 0  0.425 0.4 0  0.45 0.4 0  0.475 0.4 0  0.5 0.4 0  0.525 0.4 0  0.55 0.4 0  0.575 0.4 0  0.6 0.4 0  0.625 0.4 0  0.65 0.4 0  0.675 0.4 0  0.7 0.4 0  0.725 0.4 0  0.75 0.4 0  0.775 0.4 0  0.8 0.4 0  0.825 0.4 0  0.85 0.4 0  0.875 0.4 0  0.9 0.4 0  0.925 0.4 0  0.95 0.4 0  0.975 0.4 0  1 0.4 0  0 0.425 0  0.025 0.425 0  0.05 0.425 0  0.075 0.425 0  0.1 0.425 0  0.125 0.425 0  0.15 0.425 0  0.175 0.425 0  0.2 0.425 0  0.225 0.425 0  0.25 0.425 0  0.275 0.425 0  0.3 0.425 0  0.325 0.425 0  0.35 0.425 0  0.375 0.425 0  0.4 0.425 0  0.425 0.425 0  0.45 0.425 0  0.475 0.425 0  0.5 0.425 0  0.525 0.425 0  0.55 0.425 0  0.575 0.425 0  0.6 0.425 0  0.625 0.425 0  0.65 0.425 0  0.675 0.425 0  0.7 0.425 0  0.725 0.425 0  0.75 0.425 0  0.775 0.425 0  0.8 0.425 0  0.825 0.425 0  0.85 0.425 0  0.875 0.425 0  0.9 0.425 0  0.925 0.425 0  0.95 0.425 0  0.975 0.425 0  1 0.425 0  0 0.45 0  0.02
[...]
<PointData  Scalars="ControlVisualisation"> 
<DataArray  type="Float64"  Name="ControlVisualisation"  format="ascii">2.4152493637551958e-01  2.0591233469759324e-01  2.0621816807339247e-01  2.0689227034678212e-01  2.0784502212878053e-01  2.0893677936926325e-01  2.1003410726857183e-01  2.1104063705812626e-01  2.1190350792242707e-01  2.1260445560246177e-01  2.1314741455648870e-01  2.1354812884794250e-01  2.1382712491881664e-01  2.1400554509579181e-01  2.1410296177494198e-01  2.1413641628264538e-01  2.1412014982447522e-01  2.1406568750754959e-01  2.1398207324394880e-01  2.1387614100489893e-01  2.1375276033962212e-01  2.1361502377295449e-01  2.1346435939054606e-01  2.1330056003276374e-01  2.1312172531946594e-01  2.1292411817392734e-01  2.1270194795141928e-01  2.1244711476415851e-01  2.1214899339013599e-01  2.1179441936853971e-01  2.1136818234174987e-01  2.1085453619101385e-01  2.1024057493998530e-01  2.0952230956867662e-01  2.0871417179771429e-01  2.0786068544531305e-01  2.0704384541232931e-01  2.0637713623170353e-01  2.0597488911896789e-01  2.0586732338452043e-01  2.7984043093948913e-01  2.0590903958201651e-01  1.1809063116067806e-01  1.2047049761936417e-01  1.2502028937362727e-01  1.3147401407112486e-01  1.3904708726621939e-01  1.4688510864035040e-01  1.5430705865337443e-01  1.6087956598405134e-01  1.6639566139503401e-01  1.7081370386647890e-01  1.7419468943836414e-01  1.7665322598168764e-01  1.7832425600297372e-01  1.7934277167811735e-01  1.7983275814249916e-01  1.7990208792095058e-01  1.7964094209282896e-01  1.7912211872868652e-01  1.7840218607071745e-01  1.7752284732060059e-01  1.7651214615325819e-01  1.7538530160330260e-01  1.7414505648829387e-01  1.7278148642101770e-01  1.7127127524478647e-01  1.6957654869647848e-01  1.6764351472557731e-01  1.6540144288016145e-01  1.6276303247704435e-01  1.5962802109263496e-01  1.5589313559361825e-01  1.5147299563102778e-01  1.4633681244139432e-01  1.4056566439920321e-01  1.3442108960282578e-01  1.2839791767269967e-01  1.2320377422884189e-01  1.1954891466332437e-01  1.1765856769030930e-01  2.0586692233397863e-01  2.0619183513776426e-01  1.2051702080537682e-01  1.2631408117081205e-01  1.3513711118242089e-01  1.4720781663230370e-01  1.6119974227267164e-01  1.7555911520703144e-01  1.8907461998415351e-01  2.0099530346501385e-01  2.1096954929932910e-01  2.1893068047044253e-01  2.2498959731378296e-01  2.2935211847784157e-01  2.3226211633496263e-01  2.3396580905639741e-01  2.3469144870450995e-01  2.3463932232852597e-01  2.3397815001460959e-01  2.3284510445897069e-01  2.3134760056427378e-01  2.2956567722355800e-01  2.2755425077468130e-01  2.2534481433861708e-01  2.2294634336388883e-01  2.2034529334238967e-01  2.1750468672571582e-01  2.1436243374366837e-01  2.1082928283648023e-01  2.0678723665766327e-01  2.0209005743761360e-01  1.9656866361256001e-01  1.9004623693529191e-01  1.8236967867976345e-01  1.7346633082950214e-01  1.6343456607883719e-01  1.5265638519399963e-01  1.4191462486444861e-01  1.3235885910568895e-01  1.2501863438825969e-01  1.1963232344929359e-01  2.0597265530919703e-01  2.0683341490483648e-01  1.2559690385115993e-01  1.3672576467868447e-01  1.4944075395746087e-01  1.6489292074963788e-01  1.8151644813476320e-01  1.9761702961115121e-01  2.1211598274229482e-01  2.2447685022874442e-01  2.3452897270812878e-01  2.4232834752717894e-01  2.4806324849206166e-01  2.5198914013697099e-01  2.5438421971784442e-01  2.5552055318867445e-01  2.5564702739484813e-01  2.5498078792545659e-01  2.5370430772354075e-01  2.5196583371573322e-01  2.4988156902962119e-01  2.4753847037419113e-01  2.4499693872621103e-01  2.4229296006876808e-01  2.3943943910792290e-01  2.3642659407252598e-01  2.3322138303759501e-01  2.2976605154465921e-01  2.2597608185034909e-01  2.2173814718482870e-01  2.1690926896176402e-01  2.1131922229560882e-01  2.0478002057313244e-01  1.9710744049327991e-01  1.8816545437330645e-01  1.7794101519754879e-01  1.6666380919853174e-01  1.5497299892993358e-01  1.4389518941670221e-01  1.3421346947993210e-01  1.2403354119986351e-01  2.0640620663207140e-01  2.0778435249366958e-01  1.3389425868239774e-01  1.5602965728217058e-01  1.7545069043252665e-01  1.9438412114586848e-01  2.1165138125018176e-01  2.2643118013645230e-01  2.3854475209900208e-01  2.4813327727170895e-01  2.5543581124731662e-01  2.6071399100680681e-01  2.6423462080490240e-01  2.6626248231653943e-01  2.6705236365330670e-01  2.6684081058055370e-01  2.6583969635095933e-01  2.6423254359987131e-01  2.6217344895357308e-01  2.5978793449660365e-01  2.5717494473085611e-01  2.5440931364971747e-01  2.5154419739428469e-01  2.4861312917733880e-01  2.4563147896920429e-01  2.4259718886820159e-01  2.3949071914914377e-01  2.3627419570256819e-01  2.3288981917101276e-01  2.2925769968304194e-01  2.2527348750564413e-01  2.2080637695194608e-01  2.1569900718884075e-01  2.0977052749970002e-01  2.0283130088514156e-01  1.9470819300901676e-01  1.8533213140346597e-01  1.7483893293796146e-01  1.6359350871077438e-01  1.5128251454268382e-01  1.3242360368628264e-01  2.0730280845460991e-01  2.0856046429213249e-01  1.4986682711198168e-01  1.9359127710319521e-01  2.2366805956293576e-01  2.4414401031342187e-01  2.5793765099743715e-01  2.6705121719006614e-01  2.7296355623799834e-01  2.7666849050193443e-01  2.7877280111039721e-01  2.7964456267878446e-01  2.7952654754695738e-01  2.7860176435319900e-01  2.7702446482298271e-01  2.7493182518567866e-01  2.7244676821038921e-01  2.6967768666051040e-01  2.6671775575279322e-01  2.6364480412241481e-01  2.6052188435033319e-01  2.5739835974284425e-01  2.5431124888785495e-01  2.5128659921948482e-01  2.4834072022510104e-01  2.4548116300098785e-01  2.4270737264129558e-01  2.4001095908634362e-01  2.3737552230115433e-01  2.3477591591251548e-01  2.3217671456178932e-01  2.2952931111952168e-01  2.2676698598151057e-01  2.2379505639981503e-01  2.2047837363993292e-01  2.1660962204796816e-01  2.1190855240352552e-01  2.0584975543487175e-01  1.9739741970559432e-01  1.8243708002513456e-01  1.4701779147013394e-01  2.0861102439241935e-01  2.2117233954816704e-01  1.9775519264178362e-01  2.7498378375808363e-01  3.0908181660303147e-01  3.2174633121305507e-01  3.2368397124128245e-01  3.2075392762415039e-01  3.1594518924587789e-01  3.1063756914444562e-01  3.0538261634908681e-01  3.0034713042730765e-01  2.9554209067052950e-01  2.9093099883664120e-01  2.8647534390992979e-01  2.8214984657590747e-01  2.7794431746263465e-01  2.7386050321618732e-01  2.6990787289219415e-01  2.6609999562300324e-01  2.6245201774128196e-01  2.5897923590699440e-01  2.5569658089756842e-01  2.5261880507380002e-01  2.4976121190827416e-01  2.4714083228765904e-01  2.4477801767368557e-01  2.4269847374067002e-01  2.4093578618190867e-01  2.3953447175582016e-01  2.3855345112363091e-01  2.3806947614036283e-01  2.3817939359381804e-01  2.3899716837227819e-01  2.4064414199754935e-01  2.4320187786143277e-01  2.4665448712536869e-01  2.5046626543669387e-01  2.5264981363843020e-01  2.4346477909737066e-01  1.8612563712163963e-01  2.1246093511811862e-01  3.7118004025528378e-01  3.8406157791642737e-01  4.3194165311974198e-01  4.3727540893022215e-01  4.2585046376702351e-01  4.0582954702485724e-01  3.8443673987023785e-01  3.6488665164757628e-01  3.4807791421491652e-01  3.3392540801416415e-01  3.2202483117144148e-01  3.1192974088526698e-01  3.0324848088102141e-01  2.9566813774008954e-01  2.8895131486388442e-01  2.8292394166881912e-01  2.7746157139389388e-01  2.7247715527171001e-01  2.6791129174828021e-01  2.6372504351455484e-01  2.5989504614118975e-01  2.5641053988887430e-01  2.5327199959080621e-01  2.5049114257698879e-01  2.4809222529390004e-01  2.4611468580853449e-01  2.4461735397261464e-01  2.4368464456155647e-01  2.4343538241216112e-01  2.4403516588822477e-01  2.4571345684449469e-01  2.4878650597621504e-01  2.5368628350810646e-01  2.6099568891325059e-01  2.7146127499839900e-01  2.8600265084282001e-01  3.0523272631637560e-01  3.2809880677204700e-01  3.4166753972503744e-01  3.1193810330130933e-01  2.5400031043567206e-01  6.4051478565603004e-01  6.9977620235893845e-01  6.3110790802402517e-01  5.8415719936464172e-01  5.3909026307788144e-01  4.9262706909041676e-01  4.5015455666997356e-01  4.1432797055524628e-01  3.8519408275151978e-01  3.6175284130567487e-01  3.4283811536123898e-01  3.2742919695242223e-01  3.1471239848376209e-01  3.0406417560466870e-01  2.9501648090955895e-01  2.8722256764289616e-01  2.8042804587005354e-01  2.7444796401970534e-01  2.6914944687070369e-01  2.6443905113677696e-01  2.6025397410542639e-01  2.5655637674420362e-01  2.5333027114617684e-01  2.5058063669623398e-01  2.4833465804145455e-01  2.4664523455436255e-01  2.4559722637783499e-01  2.4531732857227481e-01  2.4598908196968983e-01  2.4787544780894524e-01  2.5135274097125299e-01  2.5696138264163176e-01  2.6548138177911285e-01  2.7803881225442650e-01  2.9623290003729436e-01  3.2225416842640964e-01  3.5833993225805560e-01  4.0512219099056473e-01  4.4641641129596171e-01  4.9002620016057485e-01  4.0800175153732943e-01  7.6678679769311497e-01  8.7859197145263845e-01  7.8428680135226281e-01  7.0622790900801402e-01  6.3509453690317041e-01  5.6754158333728377e-01  5.0727817999748082e-01  4.5729091598434202e-01  4.1730618982167167e-01  3.8566434886814727e-01  3.6056320506035927e-01  3.4047715207606027e-01  3.2421532921397389e-01  3.1087595948514662e-01  2.9978507074605470e-01  2.9044244417501897e-01  2.8247855191586335e-01  2.7562167886776001e-01  2.6967350893672892e-01  2.6449146203010454e-01  2.5997633082585764e-01  2.5606409636621658e-01  2.5272113305757538e-01  2.4994233362242763e-01  2.4775200318215501e-01  2.4620772365159072e-01  2.4540783182087822e-01  2.4550377999902548e-01  2.4671960542074628e-01  2.4938225905430941e-01  2.5396896045913453e-01  2.6118139350968239e-01  2.7206165835242024e-01  2.8816487468257707e-01  3.1179414072936312e-01  3.4616890846897463e-01  3.9480994867258928e-01  4.5915638084002736e-01  5.2051654687109883e-01  5.8399046645009922e-01  5.1713188845248470e-01  8.0139168643092851e-01  9.3732593426622657e-01  8.5207491883228759e-01  7.6905209886461423e-01  6.9241624678400227e-01  6.1644209661367444e-01  5.4629767479080182e-01  4.8738973562802496e-01  4.4009705766822771e-01  4.0270353792561331e-01  3.7314482957967221e-01  3.4962322620170816e-01  3.3071986336050641e-01  3.1535294004090153e-01  3.0270902416477741e-01  2.9218040139287033e-01  2.8331463938171120e-01  2.7577592576843157e-01  2.6931626625593419e-01  2.6375453296504220e-01  2.5896164472340943e-01  2.5485055051734845e-01  2.5137007853181786e-01  2.4850208111547314e-01  2.4626166567110455e-01  2.4470069205943207e-01  2.4391520720259566e-01  2.4405818555207640e-01  2.4536003129046943e-01  2.4816106588557804e-01  2.5296312409297117e-01  2.6051203899501929e-01  2.7192923782529027e-01  2.8891519967368012e-01  3.1403621520789382e-01  3.5092762590181503e-01  4.0377879621414614e-01  4.7393679333713423e-01  5.4383993863868807e-01  6.0979367451684752e-01  5.4126074853025197e-01  7.4807909992581467e-01  8.9865314633493565e-01  8.2799305115282129e-01  7.6449297460756871e-01  7.0297548977542756e-01  6.3227640208126656e-01  5.6176414267690800e-01  5.0064686939125802e-01  4.5072769568391780e-01  4.1085623930679965e-01  3.7914788619746542e-01  3.5383593239919248e-01  3.3347704880180218e-01  3.1694605878424703e-01  3.0338272007882816e-01  2.9213533972157790e-01  2.8271254280766850e-01  2.7474498930934471e-01  2.6795617152966761e-01  2.6214076288739846e-01  2.5714900690639070e-01  2.5287589539681549e-01  2.4925421200776959e-01  2.4625084855622820e-01  2.4386613137617369e-01  2.4213625008654968e-01  2.4113931854266865e-01  2.4100620979327977e-01  2.4193824994280949e-01  2.4423538442227244e-01  2.4834095886043672e-01  2.5491336733320330e-01  2.6494086731908634e-01  2.7992280882645199e-01  3.0213217871215131e-01  3.3486634665386772e-01  3.8220128842835738e-01  4.4559087356553823e-01  5.1444542635398183e-01  5.7936805426644078e-01  5.1955391588243105e-01  6.0162032254145559e-01  7.4316056732294744e-01  7.1953826298679591e-01  7.0713255683354415e-01  6.7203115735952079e-01  6.1596277154996382e-01  5.5329948533355522e-01  4.9630959502211724e-01  4.4842904696886521e-01  4.0945443604435694e-01  3.7802807308875930e-01  3.5268499300597611e-01  3.3215180021424978e-01  3.1539677474090810e-01  3.0160854022588185e-01  2.9015834068898372e-01  2.8056279504268511e-01  2.7245201605956665e-01  2.6554408187329914e-01  2.5962541251890692e-01  2.5453616696926074e-01  2.5015976451435118e-01  2.4641579257247281e-01  2.4325578023683334e-01  2.4066155426096597e-01  2.3864615201464542e-01  2.3725757404940781e-01  2.3658606928529541e-01  2.3677625013406431e-01  2.3804627666388051e-01  2.4071785492793896e-01  2.4526316102240847e-01  2.5237835795737273e-01  2.6309760801606935e-01  2.7895909489812898e-01  3.0219976918979286e-01  3.3567980070164211e-01  3.8093217420108083e-01  4.3351602086139629e-01  4.6369522006032959e-01  4.3392791944997278e-01  3.1995639992466185e-01  4.9356125504008630e-01  5.7322965737426990e-01  6.2018794611833661e-01  6.1281188185433066e-01  5.7473953449815574e-01  5.2494163316496456e-01  4.7663464287568702e-01  4.3446535857282803e-01  3.9920051835424364e-01  3.7017082792448730e-01  3.4637779048762185e-01  3.2685249207514155e-01  3.1075990881723964e-01  2.9741421362716369e-01  2.8626575275962601e-01  2.7687997932585684e-01  2.6891602758975719e-01  2.6210785486413890e-01  2.5624878641925547e-01  2.5117941233914243e-01  2.4677846188900318e-01  2.4295622558535904e-01  2.3965015798928258e-01  2.3682240710928548e-01  2.3445915094968198e-01  2.3257177671978271e-01  2.3120012391965408e-01  2.3041825099148405e-01  2.3034350532921871e-01  2.3115010219607174e-01  2.3308893288407215e-01  2.3651580707826195e-01  2.4193001821551813e-01  2.5002251901396028e-01  2.6171576442315891e-01  2.7802262106334874e-01  2.9882077316869049e-01  3.1660303987539723e-01  2.8235455108940710e-01  2.8342804145154388e-01  2.2448833445986735e-01  2.9705033429817379e-01  4.5593289841379392e-01  5.2740031058457093e-01  5.4036545121091895e-01  5.1898874726107991e-01  4.8340904617550368e-01  4.4592771226394812e-01  4.1159045947515893e-01  3.8186085681711024e-01  3.5671759960509136e-01  3.3565923038341794e-01  3.1807186514805158e-01  3.0336759305324307e-01  2.9102981338505501e-01  2.8062356044375436e-01  2.7179112673196704e-01  2.6424226548495888e-01  2.5774323752339107e-01  2.5210660356222098e-01  2.4718248725037181e-01  2.4285146722062204e-01  2.3901901237995160e-01  2.3561129184221100e-01  2.3257218556914605e-01  2.2986134733042476e-01  2.2745320496140495e-01  2.2533680850762436e-01  2.2351643725166592e-01  2.2201282380294607e-01  2.2086468875494439e-01  2.2012988073170167e-01  2.1988456605979545e-01  2.2021723863425016e-01  2.2121193586735771e-01  2.2290498567582812e-01  2.2513539828258769e-01  2.2672358099031778e-01  2.2071564010954675e-01  1.7989742838827968e-01  2.1742041729614969e-01  2.1846656664475622e-01  2.3669385717366970e-01  3.7812394117913067e-01  4.4617496589688493e-01  4.6792130043081914e-01  4.5892382838191970e-01  4.3599018337655010e-01  4.0922534365309648e-01  3.8323302277799204e-01  3.5976493644386004e-01  3.3925618587361983e-01  3.2161884009685215e-01  3.0656513776541350e-01  2.9375059767760536e-01  2.8283547532901082e-01  2.7351123080175632e-01  2.6550932886342721e-01  2.5860151366601819e-01  2.5259619237373393e-01  2.4733339165502199e-01  2.4267952152823921e-01  2.3852250939341402e-01  2.3476751141720889e-01  2.3133322795749139e-01  2.2814876326156355e-01  2.2515092824374597e-01  2.2228186020079946e-01  2.1948680464737594e-01  2.1671185410718072e-01  2.1390134910038033e-01  2.1099450374831610e-01  2.0792062372060346e-01  2.0459218050104963e-01  2.0089546273212647e-01  1.9668118347500335e-01  1.9176327876962085e-01  1.8592837284521219e-01  1.7872799756099028e-01  1.6771622570047676e-01  1.4402461628878901e-01  2.0918797840148384e-01  2.1751646409344050e-01  2.1710997276851590e-01  3.2763546995992915e-01  3.8247986973446052e-01  4.0387756529252317e-01  4.0209783371792618e-01  3.8874538857797963e-01  3.7106238612869186e-01  3.5268873269840056e-01  3.3527881440783674e-01  3.1947813450425133e-01  3.0546735199050951e-01  2.9320310122494098e-01  2.8254044098274000e-01  2.7329485269919440e-01  2.6527516939762791e-01  2.5829986128315569e-01  2.5220406514484150e-01  2.4684143738999889e-01  2.4208327341808827e-01  2.3781628109436340e-01  2.3393977042117733e-01  2.3036264963712208e-01  2.2700040421124823e-01  2.2377211827569415e-01  2.2059753947903549e-01  2.1739416874698952e-01  2.1407436690448445e-01  2.1054251508485958e-01  2.0669236801550717e-01  2.0240496049515547e-01  1.9754792169129687e-01  1.9197822107128759e-01  1.8555295482728812e-01  1.7815864169760195e-01  1.6977909290556181e-01  1.6062279982408095e-01  1.5121769576042407e-01  1.4185177284192735e-01  1.2961131175592799e-01  2.0763555040095708e-01  2.1608227110393471e-01  2.0185031474562187e-01  2.9035672103755722e-01  3.3287149297851432e-01  3.5079370667172949e-01  3.5246610419247876e-01  3.4552810773904197e-01  3.3470186865957924e-01  3.2255354531210423e-01  3.1040133217634958e-01  2.9889716700216862e-01  2.8834179353413653e-01  2.7883743391807503e-01  2.7037596812096304e-01  2.6288966699886968e-01  2.5628207611187109e-01  2.5044604588682495e-01  2.4527374038840019e-01  2.4066156527673011e-01  2.3651197497079898e-01  2.3273338626975076e-01  2.2923895295296029e-01  2.2594464713798165e-01  2.2276690387975412e-01  2.1961998263645144e-01  2.1641316330723090e-01  2.1304792205377338e-01  2.0941533188701669e-01  2.0539413317724578e-01  2.0085027029923802e-01  1.9563928340267916e-01  1.8961394468481604e-01  1.8264117786373282e-01  1.7463482714282444e-01  1.6561439951366907e-01  1.5580047771827282e-01  1.4574478600898222e-01  1.3641390617675347e-01  1.2884066735081831e-01  1.2254797637329834e-01  2.0662674748004040e-01  2.1481119530280826e-01  1.9007281201786341e-01  2.6246983343556557e-01  2.9443554189320126e-01  3.0817066730136938e-01  3.1107114429713884e-01  3.0803589081046345e-01  3.0196939436885145e-01  2.9450406143012958e-01  2.8656238057981770e-01  2.7868366105314130e-01  2.7117693156588568e-01  2.6420394939898806e-01  2.5783173910181401e-01  2.5206708583345727e-01  2.4688024435215672e-01  2.4222051816457973e-01  2.3802612320253061e-01  2.3422999117319188e-01  2.3076277744614357e-01  2.2755395249860516e-01  2.2453157513690192e-01  2.2162114112130765e-01  2.1874377096709374e-01  2.1581393811301655e-01  2.1273694456919884e-01  2.0940643770761697e-01  2.0570245508216692e-01  2.0149082651288516e-01  1.9662530746099058e-01  1.9095464089539022e-01  1.8433786841292765e-01  1.7667252240315931e-01  1.6794133064520936e-01  1.5828194375684307e-01  1.4807568585884540e-01  1.3803106820927308e-01  1.2918658047394105e-01  1.2269238843396763e-01  1.1902555115773408e-01  2.0609782181406064e-01  2.1364059060259535e-01  1.7977996034072879e-01  2.3945252852673271e-01  2.6375643772594926e-01  2.7415545416689285e-01  2.7727329267417378e-01  2.7647452561691410e-01  2.7352428648510346e-01  2.6937659411685677e-01  2.6461326338931174e-01  2.5961989204308272e-01  2.5465223095977774e-01  2.4987287902166017e-01  2.4537584744975988e-01  2.4120581485041753e-01  2.3737316124607347e-01  2.3386506396244136e-01  2.3065330934961589e-01  2.2769941896862908e-01  2.2495769261736290e-01  2.2237665510087401e-01  2.1989928212945203e-01  2.1746228178373392e-01  2.1499464416742170e-01  2.1241565438533058e-01  2.0963260929759600e-01  2.0653861051809611e-01  2.0301106398765384e-01  1.9891194862067532e-01  1.9409157582415446e-01  1.8839849718026450e-01  1.8169927198264624e-01  1.7391273044632560e-01  1.6506284554651010e-01  1.5534973009455882e-01  1.4522594251086968e-01  1.3544337294286413e-01  1.2700734730531266e-01  1.2098174219107356e-01  1.1799101172563045e-01  2.0590661784162692e-01  2.1257953657290884e-01  1.7080478426640971e-01  2.2030144403375432e-01  2.3904608643906941e-01  2.4689547455120014e-01  2.4982868065103453e-01  2.5027409686559476e-01  2.4928993759047730e-01  2.474002947