<?xml version="1.0"?>
<VTKFile type="UnstructuredGrid"  version="0.1"  >
<UnstructuredGrid>
<Piece  NumberOfPoints="1681" NumberOfCells="3200">
<Points>
<DataArray  type="Float64"  NumberOfComponents="3"  format="ascii">0 0 0  0.025 0 0  0.05 0 0  0.075 0 0  0.1 0 0  0.125 0 0  0.15 0 0  0.175 0 0  0.2 0 0  0.225 0 0  0.25 0 0  0.275 0 0  0.3 0 0  0.325 0 0  0.35 0 0  0.375 0 0  0.4 0 0  0.425 0 0  0.45 0 0  0.475 0 0  0.5 0 0  0.525 0 0  0.55 0 0  0.575 0 0  0.6 0 0  0.625 0 0  0.65 0 0  0.675 0 0  0.7 0 0  0.725 0 0  0.75 0 0  0.775 0 0  0.8 0 0  0.825 0 0  0.85 0 0  0.875 0 0  0.9 0 0  0.925 0 0  0.95 0 0  0.975 0 0  1 0 0  0 0.025 0  0.025 0.025 0  0.05 0.025 0  0.075 0.025 0  0.1 0.025 0  0.125 0.025 0  0.15 0.025 0  0.175 0.025 0  0.2 0.025 0  0.225 0.025 0  0.25 0.025 0  0.275 0.025 0  0.3 0.025 0  0.325 0.025 0  0.35 0.025 0  0.375 0.025 0  0.4 0.025 0  0.425 0.025 0  0.45 0.025 0  0.475 0.025 0  0.5 0.025 0  0.525 0.025 0  0.55 0.025 0  0.575 0.025 0  0.6 0.025 0  0.625 0.025 0  0.65 0.025 0  0.675 0.025 0  0.7 0.025 0  0.725 0.025 0  0.75 0.025 0  0.775 0.025 0  0.8 0.025 0  0.825 0.025 0  0.85 0.025 0  0.875 0.025 0  0.9 0.025 0  0.925 0.025 0  0.95 0.025 0  0.975 0.025 0  1 0.025 0  0 0.05 0  0.025 0.05 0  0.05 0.05 0  0.075 0.05 0  0.1 0.05 0  0.125 0.05 0  0.15 0.05 0  0.175 0.05 0  0.2 0.05 0  0.225 0.05 0  0.25 0.05 0  0.275 0.05 0  0.3 0.05 0  0.325 0.05 0  0.35 0.05 0  0.375 0.05 0  0.4 0.05 0  0.425 0.05 0  0.45 0.05 0  0.475 0.05 0  0.5 0.05 0  0.525 0.05 0  0.55 0.05 0  0.575 0.05 0  0.6 0.05 0  0.625 0.05 0  0.65 0.05 0  0.675 0.05 0  0.7 0.05 0  0.725 0.05 0  0.75 0.05 0  0.775 0.05 0  0.8 0.05 0  0.825 0.05 0  0.85 0.05 0  0.875 0.05 0  0.9 0.05 0  0.925 0.05 0  0.95 0.05 0  0.975 0.05 0  1 0.05 0  0 0.075 0  0.025 0.075 0  0.05 0.075 0  0.075 0.075 0  0.1 0.075 0  0.125 0.075 0  0.15 0.075 0  0.175 0.075 0  0.2 0.075 0  0.225 0.075 0  0.25 0.075 0  0.275 0.075 0  0.3 0.075 0  0.325 0.075 0  0.35 0.075 0  0.375 0.075 0  0.4 0.075 0  0.425 0.075 0  0.45 0.075 0  0.475 0.075 0  0.5 0.075 0  0.525 0.075 0  0.55 0.075 0  0.575 0.075 0  0.6 0.075 0  0.625 0.075 0  0.65 0.075 0  0.675 0.075 0  0.7 0.075 0  0.725 0.075 0  0.75 0.075 0  0.775 0.075 0  0.8 0.075 0  0.825 0.075 0  0.85 0.075 0  0.875 0.075 0  0.9 0.075 0  0.925 0.075 0  0.95 0.075 0  0.975 0.075 0  1 0.075 0  0 0.1 0  0.025 0.1 0  0.05 0.1 0  0.075 0.1 0  0.1 0.1 0  0.125 0.1 0  0.15 0.1 0  0.175 0.1 0  0.2 0.1 0  0.225 0.1 0  0.25 0.1 0  0.275 0.1 0  0.3 0.1 0  0.325 0.1 0  0.35 0.1 0  0.375 0.1 0  0.4 0.1 0  0.425 0.1 0  0.45 0.1 0  0.475 0.1 0  0.5 0.1 0  0.525 0.1 0  0.55 0.1 0  0.575 0.1 0  0.6 0.1 0  0.625 0.1 0  0.65 0.1 0  0.675 0.1 0  0.7 0.1 0  0.725 0.1 0  0.75 0.1 0  0.775 0.1 0  0.8 0.1 0  0.825 0.1 0  0.85 0.1 0  0.875 0.1 0  0.9 0.1 0  0.925 0.1 0  0.95 0.1 0  0.975 0.1 0  1 0.1 0  0 0.125 0  0.025 0.125 0  0.05 0.125 0  0.075 0.125 0  0.1 0.125 0  0.125 0.125 0  0.15 0.125 0  0.175 0.125 0  0.2 0.125 0  0.225 0.125 0  0.25 0.125 0  0.275 0.125 0  0.3 0.125 0  0.325 0.125 0  0.35 0.125 0  0.375 0.125 0  0.4 0.125 0  0.425 0.125 0  0.45 0.125 0  0.475 0.125 0  0.5 0.125 0  0.525 0.125 0  0.55 0.125 0  0.575 0.125 0  0.6 0.125 0  0.625 0.125 0  0.65 0.125 0  0.675 0.125 0  0.7 0.125 0  0.725 0.125 0  0.75 0.125 0  0.775 0.125 0  0.8 0.125 0  0.825 0.125 0  0.85 0.125 0  0.875 0.125 0  0.9 0.125 0  0.925 0.125 0  0.95 0.125 0  0.975 0.125 0  1 0.125 0  0 0.15 0  0.025 0.15 0  0.05 0.15 0  0.075 0.15 0  0.1 0.15 0  0.125 0.15 0  0.15 0.15 0  0.175 0.15 0  0.2 0.15 0  0.225 0.15 0  0.25 0.15 0  0.275 0.15 0  0.3 0.15 0  0.325 0.15 0  0.35 0.15 0  0.375 0.15 0  0.4 0.15 0  0.425 0.15 0  0.45 0.15 0  0.475 0.15 0  0.5 0.15 0  0.525 0.15 0  0.55 0.15 0  0.575 0.15 0  0.6 0.15 0  0.625 0.15 0  0.65 0.15 0  0.675 0.15 0  0.7 0.15 0  0.725 0.15 0  0.75 0.15 0  0.775 0.15 0  0.8 0.15 0  0.825 0.15 0  0.85 0.15 0  0.875 0.15 0  0.9 0.15 0  0.925 0.15 0  0.95 0.15 0  0.975 0.15 0  1 0.15 0  0 0.175 0  0.025 0.175 0  0.05 0.175 0  0.075 0.175 0  0.1 0.175 0  0.125 0.175 0  0.15 0.175 0  0.175 0.175 0  0.2 0.175 0  0.225 0.175 0  0.25 0.175 0  0.275 0.175 0  0.3 0.175 0  0.325 0.175 0  0.35 0.175 0  0.375 0.175 0  0.4 0.175 0  0.425 0.175 0  0.45 0.175 0  0.475 0.175 0  0.5 0.175 0  0.525 0.175 0  0.55 0.175 0  0.575 0.175 0  0.6 0.175 0  0.625 0.175 0  0.65 0.175 0  0.675 0.175 0  0.7 0.175 0  0.725 0.175 0  0.75 0.175 0  0.775 0.175 0  0.8 0.175 0  0.825 0.175 0  0.85 0.175 0  0.875 0.175 0  0.9 0.175 0  0.925 0.175 0  0.95 0.175 0  0.975 0.175 0  1 0.175 0  0 0.2 0  0.025 0.2 0  0.05 0.2 0  0.075 0.2 0  0.1 0.2 0  0.125 0.2 0  0.15 0.2 0  0.175 0.2 0  0.2 0.2 0  0.225 0.2 0  0.25 0.2 0  0.275 0.2 0  0.3 0.2 0  0.325 0.2 0  0.35 0.2 0  0.375 0.2 0  0.4 0.2 0  0.425 0.2 0  0.45 0.2 0  0.475 0.2 0  0.5 0.2 0  0.525 0.2 0  0.55 0.2 0  0.575 0.2 0  0.6 0.2 0  0.625 0.2 0  0.65 0.2 0  0.675 0.2 0  0.7 0.2 0  0.725 0.2 0  0.75 0.2 0  0.775 0.2 0  0.8 0.2 0  0.825 0.2 0  0.85 0.2 0  0.875 0.2 0  0.9 0.2 0  0.925 0.2 0  0.95 0.2 0  0.975 0.2 0  1 0.2 0  0 0.225 0  0.025 0.225 0  0.05 0.225 0  0.075 0.225 0  0.1 0.225 0  0.125 0.225 0  0.15 0.225 0  0.175 0.225 0  0.2 0.225 0  0.225 0.225 0  0.25 0.225 0  0.275 0.225 0  0.3 0.225 0  0.325 0.225 0  0.35 0.225 0  0.375 0.225 0  0.4 0.225 0  0.425 0.225 0  0.45 0.225 0  0.475 0.225 0  0.5 0.225 0  0.525 0.225 0  0.55 0.225 0  0.575 0.225 0  0.6 0.225 0  0.625 0.225 0  0.65 0.225 0  0.675 0.225 0  0.7 0.225 0  0.725 0.225 0  0.75 0.225 0  0.775 0.225 0  0.8 0.225 0  0.825 0.225 0  0.85 0.225 0  0.875 0.225 0  0.9 0.225 0  0.925 0.225 0  0.95 0.225 0  0.975 0.225 0  1 0.225 0  0 0.25 0  0.025 0.25 0  0.05 0.25 0  0.075 0.25 0  0.1 0.25 0  0.125 0.25 0  0.15 0.25 0  0.175 0.25 0  0.2 0.25 0  0.225 0.25 0  0.25 0.25 0  0.275 0.25 0  0.3 0.25 0  0.325 0.25 0  0.35 0.25 0  0.375 0.25 0  0.4 0.25 0  0.425 0.25 0  0.45 0.25 0  0.475 0.25 0  0.5 0.25 0  0.525 0.25 0  0.55 0.25 0  0.575 0.25 0  0.6 0.25 0  0.625 0.25 0  0.65 0.25 0  0.675 0.25 0  0.7 0.25 0  0.725 0.25 0  0.75 0.25 0  0.775 0.25 0  0.8 0.25 0  0.825 0.25 0  0.85 0.25 0  0.875 0.25 0  0.9 0.25 0  0.925 0.25 0  0.95 0.25 0  0.975 0.25 0  1 0.25 0  0 0.275 0  0.025 0.275 0  0.05 0.275 0  0.075 0.275 0  0.1 0.275 0  0.125 0.275 0  0.15 0.275 0  0.175 0.275 0  0.2 0.275 0  0.225 0.275 0  0.25 0.275 0  0.275 0.275 0  0.3 0.275 0  0.325 0.275 0  0.35 0.275 0  0.375 0.275 0  0.4 0.275 0  0.425 0.275 0  0.45 0.275 0  0.475 0.275 0  0.5 0.275 0  0.525 0.275 0  0.55 0.275 0  0.575 0.275 0  0.6 0.275 0  0.625 0.275 0  0.65 0.275 0  0.675 0.275 0  0.7 0.275 0  0.725 0.275 0  0.75 0.275 0  0.775 0.275 0  0.8 0.275 0  0.825 0.275 0  0.85 0.275 0  0.875 0.275 0  0.9 0.275 0  0.925 0.275 0  0.95 0.275 0  0.975 0.275 0  1 0.275 0  0 0.3 0  0.025 0.3 0  0.05 0.3 0  0.075 0.3 0  0.1 0.3 0  0.125 0.3 0  0.15 0.3 0  0.175 0.3 0  0.2 0.3 0  0.225 0.3 0  0.25 0.3 0  0.275 0.3 0  0.3 0.3 0  0.325 0.3 0  0.35 0.3 0  0.375 0.3 0  0.4 0.3 0  0.425 0.3 0  0.45 0.3 0  0.475 0.3 0  0.5 0.3 0  0.525 0.3 0  0.55 0.3 0  0.575 0.3 0  0.6 0.3 0  0.625 0.3 0  0.65 0.3 0  0.675 0.3 0  0.7 0.3 0  0.725 0.3 0  0.75 0.3 0  0.775 0.3 0  0.8 0.3 0  0.825 0.3 0  0.85 0.3 0  0.875 0.3 0  0.9 0.3 0  0.925 0.3 0  0.95 0.3 0  0.975 0.3 0  1 0.3 0  0 0.325 0  0.025 0.325 0  0.05 0.325 0  0.075 0.325 0  0.1 0.325 0  0.125 0.325 0  0.15 0.325 0  0.175 0.325 0  0.2 0.325 0  0.225 0.325 0  0.25 0.325 0  0.275 0.325 0  0.3 0.325 0  0.325 0.325 0  0.35 0.325 0  0.375 0.325 0  0.4 0.325 0  0.425 0.325 0  0.45 0.325 0  0.475 0.325 0  0.5 0.325 0  0.525 0.325 0  0.55 0.325 0  0.575 0.325 0  0.6 0.325 0  0.625 0.325 0  0.65 0.325 0  0.675 0.325 0  0.7 0.325 0  0.725 0.325 0  0.75 0.325 0  0.775 0.325 0  0.8 0.325 0  0.825 0.325 0  0.85 0.325 0  0.875 0.325 0  0.9 0.325 0  0.925 0.325 0  0.95 0.325 0  0.975 0.325 0  1 0.325 0  0 0.35 0  0.025 0.35 0  0.05 0.35 0  0.075 0.35 0  0.1 0.35 0  0.125 0.35 0  0.15 0.35 0  0.175 0.35 0  0.2 0.35 0  0.225 0.35 0  0.25 0.35 0  0.275 0.35 0  0.3 0.35 0  0.325 0.35 0  0.35 0.35 0  0.375 0.35 0  0.4 0.35 0  0.425 0.35 0  0.45 0.35 0  0.475 0.35 0  0.5 0.35 0  0.525 0.35 0  0.55 0.35 0  0.575 0.35 0  0.6 0.35 0  0.625 0.35 0  0.65 0.35 0  0.675 0.35 0  0.7 0.35 0  0.725 0.35 0  0.75 0.35 0  0.775 0.35 0  0.8 0.35 0  0.825 0.35 0  0.85 0.35 0  0.875 0.35 0  0.9 0.35 0  0.925 0.35 0  0.95 0.35 0  0.975 0.35 0  1 0.35 0  0 0.375 0  0.025 0.375 0  0.05 0.375 0  0.075 0.375 0  0.1 0.375 0  0.125 0.375 0  0.15 0.375 0  0.175 0.375 0  0.2 0.375 0  0.225 0.375 0  0.25 0.375 0  0.275 0.375 0  0.3 0.375 0  0.325 0.375 0  0.35 0.375 0  0.375 0.375 0  0.4 0.375 0  0.425 0.375 0  0.45 0.375 0  0.475 0.375 0  0.5 0.375 0  0.525 0.375 0  0.55 0.375 0  0.575 0.375 0  0.6 0.375 0  0.625 0.375 0  0.65 0.375 0  0.675 0.375 0  0.7 0.375 0  0.725 0.375 0  0.75 0.375 0  0.775 0.375 0  0.8 0.375 0  0.825 0.375 0  0.85 0.375 0  0.875 0.375 0  0.9 0.375 0  0.925 0.375 0  0.95 0.375 0  0.975 0.375 0  1 0.375 0  0 0.4 0  0.025 0.4 0  0.05 0.4 0  0.075 0.4 0  0.1 0.4 0  0.125 0.4 0  0.15 0.4 0  0.175 0.4 0  0.2 0.4 0  0.225 0.4 0  0.25 0.4 0  0.275 0.4 0  0.3 0.4 0  0.325 0.4 0  0.35 0.4 0  0.375 0.4 0  0.4 0.4 0  0.425 0.4 0  0.45 0.4 0  0.475 0.4 0  0.5 0.4 0  0.525 0.4 0  0.55 0.4 0  0.575 0.4 0  0.6 0.4 0  0.625 0.4 0  0.65 0.4 0  0.675 0.4 0  0.7 0.4 0  0.725 0.4 0  0.75 0.4 0  0.775 0.4 0  0.8 0.4 0  0.825 0.4 0  0.85 0.4 0  0.875 0.4 0  0.9 0.4 0  0.925 0.4 0  0.95 0.4 0  0.975 0.4 0  1 0.4 0  0 0.425 0  0.025 0.425 0  0.05 0.425 0  0.075 0.425 0  0.1 0.425 0  0.125 0.425 0  0.15 0.425 0  0.175 0.425 0  0.2 0.425 0  0.225 0.425 0  0.25 0.425 0  0.275 0.425 0  0.3 0.425 0  0.325 0.425 0  0.35 0.425 0  0.375 0.425 0  0.4 0.425 0  0.425 0.425 0  0.45 0.425 0  0.475 0.425 0  0.5 0.425 0  0.525 0.425 0  0.55 0.425 0  0.575 0.425 0  0.6 0.425 0  0.625 0.425 0  0.65 0.425 0  0.675 0.425 0  0.7 0.425 0  0.725 0.425 0  0.75 0.425 0  0.775 0.425 0  0.8 0.425 0  0.825 0.425 0  0.85 0.425 0  0.875 0.425 0  0.9 0.425 0  0.925 0.425 0  0.95 0.425 0  0.975 0.425 0  1 0.425 0  0 0.45 0  0.02
[...]
<PointData  Scalars="ControlVisualisation"> 
<DataArray  type="Float64"  Name="ControlVisualisation"  format="ascii">3.7226684485825440e-01  3.5420867070050555e-01  3.5426846994000599e-01  3.5448929088697423e-01  3.5485664776339154e-01  3.5529664178851744e-01  3.5573046873443376e-01  3.5610161018027953e-01  3.5638243141431492e-01  3.5656830897897818e-01  3.5666833912221074e-01  3.5669753361860856e-01  3.5667186733018075e-01  3.5660575256210258e-01  3.5651108936780140e-01  3.5639717439246132e-01  3.5627099988759597e-01  3.5613768035889209e-01  3.5600087788304768e-01  3.5586317292202946e-01  3.5572636621941106e-01  3.5559171489607561e-01  3.5546011235562058e-01  3.5533222275493337e-01  3.5520857971926451e-01  3.5508965717295121e-01  3.5497591832886166e-01  3.5486784728829440e-01  3.5476596651865150e-01  3.5467084258124537e-01  3.5458308198654936e-01  3.5450331881481872e-01  3.5443219610989679e-01  3.5437034455046817e-01  3.5431836591826249e-01  3.5427684100355916e-01  3.5424638124156937e-01  3.5422761416110987e-01  3.5422039908356256e-01  3.5422081662604460e-01  3.9053842404851119e-01  3.5420612616126768e-01  3.0172959307251962e-01  3.0283128571630097e-01  3.0529266114133224e-01  3.0903083009560556e-01  3.1342346862336906e-01  3.1775387096902818e-01  3.2149462878337703e-01  3.2437593254468988e-01  3.2633911486489309e-01  3.2745643327952245e-01  3.2786118812008991e-01  3.2770142865139956e-01  3.2711483888857290e-01  3.2621808994932994e-01  3.2510454062283434e-01  3.2384605808245581e-01  3.2249644879381217e-01  3.2109517782217756e-01  3.1967077028421775e-01  3.1824367760047428e-01  3.1682858276792164e-01  3.1543620078441270e-01  3.1407465581229294e-01  3.1275051572372947e-01  3.1146955327568265e-01  3.1023728882011531e-01  3.0905935625694270e-01  3.0794172310128198e-01  3.0689078759197108e-01  3.0591337099195920e-01  3.0501662136826951e-01  3.0420784794114303e-01  3.0349431361539242e-01  3.0288303634340780e-01  3.0238067788331163e-01  3.0199343798637662e-01  3.0172602618765210e-01  3.0157567861643242e-01  3.0151992550692669e-01  3.5422081541765826e-01  3.5424384233328599e-01  3.0283510709300060e-01  3.0655931320061253e-01  3.1259030140149141e-01  3.2073642158565624e-01  3.2986980600848698e-01  3.3864268305619499e-01  3.4609104210995845e-01  3.5175321428274942e-01  3.5555907930640579e-01  3.5767210667392579e-01  3.5836158128299628e-01  3.5792018286486849e-01  3.5661931695117854e-01  3.5468987075631220e-01  3.5231783494324803e-01  3.4964749260413869e-01  3.4678773176527522e-01  3.4381905088418274e-01  3.4080008338699930e-01  3.3777318075872353e-01  3.3476896303794157e-01  3.3180991470430693e-01  3.2891316438471407e-01  3.2609259374974048e-01  3.2336040427995905e-01  3.2072824630472563e-01  3.1820799065480099e-01  3.1581220310557712e-01  3.1355436682445520e-01  3.1144888890168559e-01  3.0951092366940591e-01  3.0775604855464489e-01  3.0619983387765687e-01  3.0485734320029489e-01  3.0374245945283235e-01  3.0286627097622665e-01  3.0223142412160592e-01  3.0181639402585175e-01  3.0157570066202644e-01  3.5422037750527235e-01  3.5441325928619799e-01  3.0564791426472426e-01  3.1394539291826384e-01  3.2372203705601837e-01  3.3467471219432143e-01  3.4580755262346929e-01  3.5583285021786321e-01  3.6391064000516682e-01  3.6973088199623866e-01  3.7335679400404370e-01  3.7505212166766266e-01  3.7515815443412304e-01  3.7401968349766440e-01  3.7194670325487600e-01  3.6919906714858441e-01  3.6598445935098278e-01  3.6246316351004504e-01  3.5875559199453094e-01  3.5495030660027216e-01  3.5111140634635563e-01  3.4728483530565007e-01  3.4350352807252860e-01  3.3979148279184496e-01  3.3616691516486169e-01  3.3264465438620566e-01  3.2923792373765592e-01  3.2595962200291839e-01  3.2282319498800249e-01  3.1984316398300905e-01  3.1703536126587967e-01  3.1441691252734888e-01  3.1200600128760536e-01  3.0982144764455566e-01  3.0788211378885555e-01  3.0620604538360824e-01  3.0480879241944014e-01  3.0369874674079550e-01  3.0286294654215623e-01  3.0223549861756238e-01  3.0172713374524684e-01  3.5422754279389418e-01  3.5475270198678183e-01  3.1117091551428139e-01  3.2864527215999823e-01  3.4381511691845568e-01  3.5647733120547431e-01  3.6702164808476062e-01  3.7530466082749525e-01  3.8121973377493124e-01  3.8487806801589225e-01  3.8654509800943909e-01  3.8655298215404299e-01  3.8524151916877708e-01  3.8292400578139713e-01  3.7987052132699800e-01  3.7630264284453335e-01  3.7239519120023284e-01  3.6828173004892284e-01  3.6406155359271031e-01  3.5980676887082025e-01  3.5556873453875298e-01  3.5138355189059955e-01  3.4727655770657023e-01  3.4326589631036969e-01  3.3936529768703649e-01  3.3558619504281262e-01  3.3193930030445179e-01  3.2843573388282093e-01  3.2508778217209189e-01  3.2190933693491758e-01  3.1891605636922177e-01  3.1612527881074581e-01  3.1355571378444774e-01  3.1122692268653634e-01  3.0915854190113684e-01  3.0736896094242455e-01  3.0587224798772478e-01  3.0466912053522699e-01  3.0371996402269663e-01  3.0288662988467535e-01  3.0199994101429267e-01  3.5424639387663037e-01  3.5527596042897719e-01  3.2434227312625802e-01  3.5989813791632708e-01  3.8230202271719471e-01  3.9358527296395934e-01  3.9925258808154451e-01  4.0188712487927697e-01  4.0255654620144810e-01  4.0177951985770638e-01  3.9987842514166494e-01  3.9709891956315718e-01  3.9364875305287844e-01  3.8970787872999363e-01  3.8542942272100322e-01  3.8093930959857236e-01  3.7633721453055857e-01  3.7169909843025950e-01  3.6708075918545424e-01  3.6252174417781702e-01  3.5804914336863863e-01  3.5368099034976008e-01  3.4942915855963769e-01  3.4530174003551101e-01  3.4130494543572892e-01  3.3744458258104348e-01  3.3372717148876718e-01  3.3016074456031230e-01  3.2675536905353947e-01  3.2352341762714776e-01  3.2047960436267869e-01  3.1764079834573278e-01  3.1502562026629671e-01  3.1265380424929623e-01  3.1054520053006479e-01  3.0871788058167754e-01  3.0718327306560889e-01  3.0593127533974696e-01  3.0488533229026615e-01  3.0380528420296427e-01  3.0240289630880884e-01  3.5427748738669729e-01  3.6487178038984996e-01  3.6961817577317541e-01  4.3193869493071746e-01  4.5390694354345185e-01  4.5399130190516923e-01  4.4668832305004147e-01  4.3792342039007887e-01  4.2954613286306437e-01  4.2189796769771781e-01  4.1488572568690862e-01  4.0834711916106903e-01  4.0215242830497988e-01  3.9621917378437638e-01  3.9050187210060849e-01  3.8497828097078024e-01  3.7963851068811461e-01  3.7447796838530134e-01  3.6949343827598979e-01  3.6468130622772776e-01  3.6003709281493418e-01  3.5555570372849699e-01  3.5123201947756694e-01  3.4706159955328203e-01  3.4304137564007881e-01  3.3917026703320613e-01  3.3544968322178942e-01  3.3188389332906421e-01  3.2848024776739071e-01  3.2524923873394679e-01  3.2220438605610396e-01  3.1936193483399256e-01  3.1674034516842242e-01  3.1435951869273249e-01  3.1223954199237569e-01  3.1039808783361494e-01  3.0884327114100141e-01  3.0755113978933635e-01  3.0639731487750937e-01  3.0500899533202791e-01  3.0294012294201356e-01  3.5432086995714396e-01  4.8191603704032643e-01  5.3538176634669887e-01  5.7567950586029359e-01  5.6792245048916401e-01  5.4051123602473750e-01  5.0971726123418049e-01  4.8295439903520776e-01  4.6161598319937430e-01  4.4484249593030373e-01  4.3143317171151818e-01  4.2040096079597550e-01  4.1104140445636450e-01  4.0287700806674193e-01  3.9558934801146944e-01  3.8896565872939898e-01  3.8286174721012750e-01  3.7717758834239340e-01  3.7184172168718743e-01  3.6680146640726513e-01  3.6201688548062655e-01  3.5745712656933559e-01  3.5309825132811645e-01  3.4892198550944825e-01  3.4491502914659367e-01  3.4106869629080605e-01  3.3737873370277627e-01  3.3384521562162167e-01  3.3047243960491457e-01  3.2726876497056789e-01  3.2424634470230024e-01  3.2142070750044788e-01  3.1881014032676314e-01  3.1643477000931414e-01  3.1431500270558499e-01  3.1246805286372409e-01  3.1089793089991602e-01  3.0956340620708966e-01  3.0828069384004736e-01  3.0651294324891731e-01  3.0361704751788454e-01  3.5437685735329194e-01  7.0759907206553085e-01  7.8855133834514979e-01  7.4565371076586062e-01  7.0057838143316020e-01  6.4110477885777395e-01  5.8153488256372077e-01  5.3275732186234304e-01  4.9603964712306903e-01  4.6885294263421584e-01  4.4840868645887100e-01  4.3258577614768645e-01  4.1993498974323212e-01  4.0949633116975082e-01  4.0063497198059672e-01  3.9292651333572720e-01  3.8608239315538584e-01  3.7990243129794721e-01  3.7424472809171727e-01  3.6900650476933339e-01  3.6411184938783114e-01  3.5950384633755261e-01  3.5513950869113331e-01  3.5098651501166722e-01  3.4702111287884468e-01  3.4322677596054901e-01  3.3959334033239952e-01  3.3611643141078862e-01  3.3279704509237418e-01  3.2964117852463187e-01  3.2665942495661521e-01  3.2386645719626045e-01  3.2128031557293679e-01  3.1892134133138600e-01  3.1681025997906082e-01  3.1496363562615426e-01  3.1338033088909006e-01  3.1199794250785556e-01  3.1056093900494119e-01  3.0833571725851083e-01  3.0444148981380781e-01  3.5444605407234886e-01  7.9872118758371458e-01  8.8201918831412318e-01  8.4265321742856347e-01  8.0262165956430009e-01  7.2983225464036705e-01  6.4833832373474587e-01  5.7961925857804386e-01  5.2829908470218534e-01  4.9119217956750483e-01  4.6411255625429815e-01  4.4382748497171870e-01  4.2814706667065794e-01  4.1563700886071814e-01  4.0535720129688552e-01  3.9668269853527199e-01  3.8919010872049298e-01  3.8258666462599039e-01  3.7666573683426019e-01  3.7127860984051875e-01  3.6631634884089220e-01  3.6169801710275906e-01  3.5736295056352380e-01  3.5326566224576289e-01  3.4937247159846768e-01  3.4565927480741415e-01  3.4211006893031770e-01  3.3871596450418390e-01  3.3547449576663230e-01  3.3238908264906691e-01  3.2946852508798691e-01  3.2672642186102979e-01  3.2418039063008230e-01  3.2185085840983646e-01  3.1975873304425284e-01  3.1791955363580271e-01  3.1632569744704109e-01  3.1488916585167703e-01  3.1326936312007803e-01  3.1050133234507848e-01  3.0542393087609826e-01  3.5452931276079913e-01  8.1728604181430653e-01  9.0520836343984512e-01  8.7951598810269360e-01  8.5283883210794509e-01  7.8459183826736456e-01  6.9545996296041468e-01  6.1480643675830704e-01  5.5327965801246071e-01  5.0881206929050382e-01  4.7667474846009911e-01  4.5294281231212868e-01  4.3490676335696576e-01  4.2078361415732324e-01  4.0940343426564424e-01  3.9998802148575646e-01  3.9200972346345825e-01  3.8510338412014061e-01  3.7901119213528994e-01  3.7354767107399578e-01  3.6857711136801780e-01  3.6399881356506519e-01  3.5973732466484670e-01  3.5573592337714516e-01  3.5195225311156686e-01  3.4835539370265389e-01  3.4492390307081588e-01  3.4164450797599993e-01  3.3851121376280219e-01  3.3552465629149675e-01  3.3269154900617270e-01  3.3002408699333441e-01  3.2753914114968907e-01  3.2525692312133253e-01  3.2319819055466698e-01  3.2137683916916338e-01  3.1977705082741709e-01  3.1828013043907083e-01  3.1644580265749417e-01  3.1304065509972900e-01  3.0657792820570190e-01  3.5462774803883534e-01  7.9220924054752606e-01  8.8774768388791458e-01  8.7077197598735667e-01  8.5569668615131900e-01  7.9859155631589374e-01  7.1417141755490021e-01  6.3193077386735774e-01  5.6693922567214017e-01  5.1921599139240104e-01  4.8452786036425066e-01  4.5891714453352728e-01  4.3953475346618603e-01  4.2446629995657803e-01  4.1243886593149520e-01  4.0259735643713368e-01  3.9435728701332767e-01  3.8731139828020150e-01  3.8117048978589957e-01  3.7572550155034973e-01  3.7082284676071259e-01  3.6634812857207172e-01  3.6221525651629682e-01  3.5835910531597931e-01  3.5473053906481633e-01  3.5129304018902408e-01  3.4802043980238989e-01  3.4489540447451605e-01  3.4190843146287236e-01  3.3905716023736976e-01  3.3634583561549913e-01  3.3378475893066556e-01  3.3138951328782623e-01  3.2917953542903866e-01  3.2717480580753777e-01  3.2538660065835290e-01  3.2378867251582966e-01  3.2222560776750603e-01  3.2014113672035832e-01  3.1599314502291204e-01  3.0792082697099349e-01  3.5474279125305846e-01  6.7733514099794467e-01  8.2462382873414342e-01  8.1196645624767083e-01  8.1712695222720688e-01  7.7536458060013780e-01  7.0366561150179763e-01  6.2909141351646258e-01  5.6761737209871310e-01  5.2118559982358503e-01  4.8680923544060989e-01  4.6113467785718520e-01  4.4158190714435841e-01  4.2634927832774111e-01  4.1420629382003904e-01  4.0430923473501945e-01  3.9607174972192605e-01  3.8907960430440791e-01  3.8303519751743698e-01  3.7772124251590611e-01  3.7297671096561619e-01  3.6868069582626073e-01  3.6474146222718301e-01  3.6108895576512906e-01  3.5766965572411469e-01  3.5444304644554381e-01  3.5137922252124870e-01  3.4845729468082765e-01  3.4566435579424870e-01  3.4299481813961569e-01  3.4044995378869536e-01  3.3803745755315995e-01  3.3577077016290591e-01  3.3366760459164146e-01  3.3174608034724362e-01  3.3001332398120720e-01  3.2842964811785430e-01  3.2679561997509188e-01  3.2442045363375416e-01  3.1940920962996189e-01  3.0947477214934860e-01  3.5487627350386625e-01  4.3901166486350479e-01  6.4293243999711069e-01  7.1526524408623893e-01  7.4602582455078115e-01  7.2355624893298087e-01  6.6960094918159430e-01  6.0900016561008341e-01  5.5639491844684008e-01  5.1506238370179669e-01  4.8354624679011732e-01  4.5949756252034318e-01  4.4090720612319106e-01  4.2628341128747843e-01  4.1456288795883972e-01  4.0499240556702581e-01  3.9703467574649765e-01  3.9030191788142038e-01  3.8451050966310696e-01  3.7945020113312611e-01  3.7496311022012957e-01  3.7092927144901322e-01  3.6725660909543351e-01  3.6387393549334007e-01  3.6072604982719236e-01  3.5777032071711640e-01  3.5497433632978304e-01  3.5231433378671584e-01  3.4977419947752969e-01  3.4734487479872450e-01  3.4502401304860097e-01  3.4281570310229498e-01  3.4072995315446636e-01  3.3878122716076492e-01  3.3698398993292528e-01  3.3533881225144307e-01  3.3378837148913337e-01  3.3208010455397213e-01  3.2936731429728144e-01  3.2335339358267645e-01  3.1126807653352651e-01  3.5503053790209654e-01  3.6559948381877638e-01  4.5469382537923708e-01  6.0613138596543537e-01  6.5976632353012266e-01  6.5638472672038506e-01  6.2172722930193725e-01  5.7753170500638107e-01  5.3645249804109041e-01  5.0249123643347915e-01  4.7556442375186730e-01  4.5440091569608509e-01  4.3767860262422448e-01  4.2431616130368227e-01  4.1349242680438053e-01  4.0459769030234399e-01  3.9718076525779339e-01  3.9090621567504330e-01  3.8552263931624098e-01  3.8083981893598640e-01  3.7671239475788809e-01  3.7302819537579845e-01  3.6969987235626328e-01  3.6665888513454448e-01  3.6385117432316105e-01  3.6123406582169731e-01  3.5877409042384667e-01  3.5644549908917772e-01  3.5422931656253825e-01  3.5211280953760798e-01  3.5008924773593292e-01  3.4815778931134950e-01  3.4632315259597535e-01  3.4459420067621827e-01  3.4297885696245756e-01  3.4146733558513526e-01  3.3997863508092935e-01  3.3819531990464208e-01  3.3508960495148415e-01  3.2790870840278935e-01  3.1333705350816859e-01  3.5520858787333798e-01  3.6081720472658024e-01  3.9390019674477156e-01  5.2128767585823244e-01  5.8001429303112717e-01  5.8914770825910501e-01  5.7058881618937307e-01  5.4141093467008383e-01  5.1180185176692128e-01  4.8578501213904601e-01  4.6417992096447330e-01  4.4658590703898737e-01  4.3230444366908294e-01  4.2066136303844998e-01  4.1109385534350829e-01  4.0315564360503009e-01  3.9649974909948954e-01  3.9085798629253937e-01  3.8602295764448052e-01  3.8183365117720353e-01  3.7816435031223411e-01  3.7491623330580204e-01  3.7201105263437362e-01  3.6938639110887156e-01  3.6699210788710540e-01  3.6478768832543512e-01  3.6274029281991810e-01  3.6082336110030827e-01  3.5901567388326239e-01  3.5730080045743789e-01  3.5566686043202023e-01  3.5410647165485593e-01  3.5261653727745917e-01  3.5119683576049321e-01  3.4984421680000893e-01  3.4853251649117295e-01  3.4714805566292534e-01  3.4529282166635972e-01  3.4172769198247405e-01  3.3318255795204949e-01  3.1572847718971131e-01  3.5541428218998428e-01  3.5996624886056588e-01  3.7351909883110257e-01  4.6959839249129787e-01  5.1901158878311848e-01  5.3207358005552718e-01  5.2381649792300000e-01  5.0601934910947566e-01  4.8601312824331372e-01  4.6722476782049388e-01  4.5082195227039229e-01  4.3693729949685767e-01  4.2532551708549804e-01  4.1564233575292042e-01  4.0755219030181489e-01  4.0076265342594591e-01  3.9503077389440117e-01  3.9015915688624697e-01  3.8598909144181698e-01  3.8239348968500186e-01  3.7927061721607602e-01  3.7653885343787008e-01  3.7413243631025500e-01  3.7199805122916763e-01  3.7009210894966843e-01  3.6837857462629436e-01  3.6682723875442352e-01  3.6541235162689073e-01  3.6411157385683707e-01  3.6290522006314885e-01  3.6177578082213596e-01  3.6070765288956425e-01  3.5968675700605357e-01  3.5869888287724616e-01  3.5772287782069523e-01  3.5670662660185931e-01  3.5548992525558365e-01  3.5357228584095690e-01  3.4946599904612952e-01  3.3931495673389500e-01  3.1850289819481292e-01  3.5565258946040890e-01  3.5902384822586991e-01  3.5974384172350143e-01  4.3504492747471241e-01  4.7456447949161013e-01  4.8730118277381457e-01  4.8459339498279924e-01  4.7435319541703841e-01  4.6149306521945016e-01  4.4858287366421212e-01  4.3673231824713632e-01  4.2630040447050643e-01  4.1730561695234764e-01  4.0962746725574550e-01  4.0310135892687921e-01  3.9756020141763182e-01  3.9285152499618869e-01  3.8884309684724683e-01  3.8542337049478920e-01  3.8249974205265325e-01  3.7999604318039726e-01  3.7784992484018765e-01  3.7601040705120847e-01  3.7443568272499345e-01  3.7309117504027417e-01  3.7194781034451724e-01  3.7098045781760625e-01  3.7016649229010540e-01  3.6948445308848260e-01  3.6891279633095231e-01  3.6842875847559986e-01  3.6800731019620342e-01  3.6761994140704940e-01  3.6723201180437098e-01  3.6679408598227603e-01  3.6621295915615976e-01  3.6526005365580461e-01  3.6330031377659805e-01  3.5854991160123167e-01  3.4649011694026899e-01  3.2173910715805543e-01  3.5592991302721333e-01  3.5826952077575130e-01  3.4987664932928153e-01  4.1083532066736828e-01  4.4210812699809771e-01  4.5301210276763371e-01  4.5295245866235101e-01  4.4735811384714663e-01  4.3944357124898248e-01  4.3097210890464765e-01  4.2281706351013892e-01  4.1536538849272919e-01  4.0874958933982330e-01  4.0297518762345530e-01  3.9798859908099415e-01  3.9371263506124937e-01  3.9006497234607274e-01  3.8696728317467183e-01  3.8434933182052633e-01  3.8215035990528923e-01  3.8031906060131643e-01  3.7881285049429980e-01  3.7759681481194757e-01  3.7664250852651338e-01  3.7592668358740372e-01  3.7542994659226731e-01  3.7513531254273630e-01  3.7502659952715123e-01  3.7508660395798504e-01  3.7529500805309518e-01  3.7562598791256463e-01  3.7604547973724456e-01  3.7650783641768215e-01  3.7695044796266081e-01  3.7728125756431152e-01  3.7734250645696749e-01  3.7680162063321621e-01  3.7483894562072501e-01  3.6931110554278029e-01  3.5495312869450968e-01  3.2554019296811831e-01  3.5625449530142705e-01  3.5762973502517664e-01  3.4192212504779718e-01  3.9209563310790024e-01  4.1733107211632775e-01  4.2649005814640029e-01  4.2763632730329537e-01  4.2482316427336247e-01  4.2020508802451195e-01  4.1493730415198032e-01  4.0963727525508925e-01  4.0462665801240999e-01  4.0006003656892475e-01  3.9599766740514863e-01  3.9244706695337894e-01  3.8938781739025019e-01  3.8678644907288406e-01  3.8460522322686835e-01  3.8280716311966856e-01  3.8135876402357893e-01  3.8023129066758760e-01  3.7940121917266623e-01  3.7885015376250175e-01  3.7856439628847321e-01  3.7853424198133967e-01  3.7875299817490465e-01  3.7921566114038197e-01  3.7991713230685181e-01  3.8084980778444627e-01  3.8200033598324445e-01  3.8334530163996849e-01  3.8484555415308552e-01  3.8643857333053971e-01  3.8802711632683695e-01  3.8945838232608299e-01  3.9047417582348631e-01  3.9057925379577080e-01  3.8868846068296792e-01  3.8220782012999993e-01  3.6503587411420463e-01  3.3004170443496528e-01  3.5663682354818060e-01  3.5708990028779458e-01  3.3542148666509408e-01  3.7719702420332918e-01  3.9789647915730636e-01  4.0556473450213143e-01  4.0723278237509725e-01  4.0609673518852607e-01  4.0364881862794849e-01  4.006397624