<?xml version="1.0"?>
<VTKFile type="UnstructuredGrid"  version="0.1"  >
<UnstructuredGrid>
<Piece  NumberOfPoints="1681" NumberOfCells="3200">
<Points>
<DataArray  type="Float64"  NumberOfComponents="3"  format="ascii">0 0 0  0.025 0 0  0.05 0 0  0.075 0 0  0.1 0 0  0.125 0 0  0.15 0 0  0.175 0 0  0.2 0 0  0.225 0 0  0.25 0 0  0.275 0 0  0.3 0 0  0.325 0 0  0.35 0 0  0.375 0 0  0.4 0 0  0.425 0 0  0.45 0 0  0.475 0 0  0.5 0 0  0.525 0 0  0.55 0 0  0.575 0 0  0.6 0 0  0.625 0 0  0.65 0 0  0.675 0 0  0.7 0 0  0.725 0 0  0.75 0 0  0.775 0 0  0.8 0 0  0.825 0 0  0.85 0 0  0.875 0 0  0.9 0 0  0.925 0 0  0.95 0 0  0.975 0 0  1 0 0  0 0.025 0  0.025 0.025 0  0.05 0.025 0  0.075 0.025 0  0.1 0.025 0  0.125 0.025 0  0.15 0.025 0  0.175 0.025 0  0.2 0.025 0  0.225 0.025 0  0.25 0.025 0  0.275 0.025 0  0.3 0.025 0  0.325 0.025 0  0.35 0.025 0  0.375 0.025 0  0.4 0.025 0  0.425 0.025 0  0.45 0.025 0  0.475 0.025 0  0.5 0.025 0  0.525 0.025 0  0.55 0.025 0  0.575 0.025 0  0.6 0.025 0  0.625 0.025 0  0.65 0.025 0  0.675 0.025 0  0.7 0.025 0  0.725 0.025 0  0.75 0.025 0  0.775 0.025 0  0.8 0.025 0  0.825 0.025 0  0.85 0.025 0  0.875 0.025 0  0.9 0.025 0  0.925 0.025 0  0.95 0.025 0  0.975 0.025 0  1 0.025 0  0 0.05 0  0.025 0.05 0  0.05 0.05 0  0.075 0.05 0  0.1 0.05 0  0.125 0.05 0  0.15 0.05 0  0.175 0.05 0  0.2 0.05 0  0.225 0.05 0  0.25 0.05 0  0.275 0.05 0  0.3 0.05 0  0.325 0.05 0  0.35 0.05 0  0.375 0.05 0  0.4 0.05 0  0.425 0.05 0  0.45 0.05 0  0.475 0.05 0  0.5 0.05 0  0.525 0.05 0  0.55 0.05 0  0.575 0.05 0  0.6 0.05 0  0.625 0.05 0  0.65 0.05 0  0.675 0.05 0  0.7 0.05 0  0.725 0.05 0  0.75 0.05 0  0.775 0.05 0  0.8 0.05 0  0.825 0.05 0  0.85 0.05 0  0.875 0.05 0  0.9 0.05 0  0.925 0.05 0  0.95 0.05 0  0.975 0.05 0  1 0.05 0  0 0.075 0  0.025 0.075 0  0.05 0.075 0  0.075 0.075 0  0.1 0.075 0  0.125 0.075 0  0.15 0.075 0  0.175 0.075 0  0.2 0.075 0  0.225 0.075 0  0.25 0.075 0  0.275 0.075 0  0.3 0.075 0  0.325 0.075 0  0.35 0.075 0  0.375 0.075 0  0.4 0.075 0  0.425 0.075 0  0.45 0.075 0  0.475 0.075 0  0.5 0.075 0  0.525 0.075 0  0.55 0.075 0  0.575 0.075 0  0.6 0.075 0  0.625 0.075 0  0.65 0.075 0  0.675 0.075 0  0.7 0.075 0  0.725 0.075 0  0.75 0.075 0  0.775 0.075 0  0.8 0.075 0  0.825 0.075 0  0.85 0.075 0  0.875 0.075 0  0.9 0.075 0  0.925 0.075 0  0.95 0.075 0  0.975 0.075 0  1 0.075 0  0 0.1 0  0.025 0.1 0  0.05 0.1 0  0.075 0.1 0  0.1 0.1 0  0.125 0.1 0  0.15 0.1 0  0.175 0.1 0  0.2 0.1 0  0.225 0.1 0  0.25 0.1 0  0.275 0.1 0  0.3 0.1 0  0.325 0.1 0  0.35 0.1 0  0.375 0.1 0  0.4 0.1 0  0.425 0.1 0  0.45 0.1 0  0.475 0.1 0  0.5 0.1 0  0.525 0.1 0  0.55 0.1 0  0.575 0.1 0  0.6 0.1 0  0.625 0.1 0  0.65 0.1 0  0.675 0.1 0  0.7 0.1 0  0.725 0.1 0  0.75 0.1 0  0.775 0.1 0  0.8 0.1 0  0.825 0.1 0  0.85 0.1 0  0.875 0.1 0  0.9 0.1 0  0.925 0.1 0  0.95 0.1 0  0.975 0.1 0  1 0.1 0  0 0.125 0  0.025 0.125 0  0.05 0.125 0  0.075 0.125 0  0.1 0.125 0  0.125 0.125 0  0.15 0.125 0  0.175 0.125 0  0.2 0.125 0  0.225 0.125 0  0.25 0.125 0  0.275 0.125 0  0.3 0.125 0  0.325 0.125 0  0.35 0.125 0  0.375 0.125 0  0.4 0.125 0  0.425 0.125 0  0.45 0.125 0  0.475 0.125 0  0.5 0.125 0  0.525 0.125 0  0.55 0.125 0  0.575 0.125 0  0.6 0.125 0  0.625 0.125 0  0.65 0.125 0  0.675 0.125 0  0.7 0.125 0  0.725 0.125 0  0.75 0.125 0  0.775 0.125 0  0.8 0.125 0  0.825 0.125 0  0.85 0.125 0  0.875 0.125 0  0.9 0.125 0  0.925 0.125 0  0.95 0.125 0  0.975 0.125 0  1 0.125 0  0 0.15 0  0.025 0.15 0  0.05 0.15 0  0.075 0.15 0  0.1 0.15 0  0.125 0.15 0  0.15 0.15 0  0.175 0.15 0  0.2 0.15 0  0.225 0.15 0  0.25 0.15 0  0.275 0.15 0  0.3 0.15 0  0.325 0.15 0  0.35 0.15 0  0.375 0.15 0  0.4 0.15 0  0.425 0.15 0  0.45 0.15 0  0.475 0.15 0  0.5 0.15 0  0.525 0.15 0  0.55 0.15 0  0.575 0.15 0  0.6 0.15 0  0.625 0.15 0  0.65 0.15 0  0.675 0.15 0  0.7 0.15 0  0.725 0.15 0  0.75 0.15 0  0.775 0.15 0  0.8 0.15 0  0.825 0.15 0  0.85 0.15 0  0.875 0.15 0  0.9 0.15 0  0.925 0.15 0  0.95 0.15 0  0.975 0.15 0  1 0.15 0  0 0.175 0  0.025 0.175 0  0.05 0.175 0  0.075 0.175 0  0.1 0.175 0  0.125 0.175 0  0.15 0.175 0  0.175 0.175 0  0.2 0.175 0  0.225 0.175 0  0.25 0.175 0  0.275 0.175 0  0.3 0.175 0  0.325 0.175 0  0.35 0.175 0  0.375 0.175 0  0.4 0.175 0  0.425 0.175 0  0.45 0.175 0  0.475 0.175 0  0.5 0.175 0  0.525 0.175 0  0.55 0.175 0  0.575 0.175 0  0.6 0.175 0  0.625 0.175 0  0.65 0.175 0  0.675 0.175 0  0.7 0.175 0  0.725 0.175 0  0.75 0.175 0  0.775 0.175 0  0.8 0.175 0  0.825 0.175 0  0.85 0.175 0  0.875 0.175 0  0.9 0.175 0  0.925 0.175 0  0.95 0.175 0  0.975 0.175 0  1 0.175 0  0 0.2 0  0.025 0.2 0  0.05 0.2 0  0.075 0.2 0  0.1 0.2 0  0.125 0.2 0  0.15 0.2 0  0.175 0.2 0  0.2 0.2 0  0.225 0.2 0  0.25 0.2 0  0.275 0.2 0  0.3 0.2 0  0.325 0.2 0  0.35 0.2 0  0.375 0.2 0  0.4 0.2 0  0.425 0.2 0  0.45 0.2 0  0.475 0.2 0  0.5 0.2 0  0.525 0.2 0  0.55 0.2 0  0.575 0.2 0  0.6 0.2 0  0.625 0.2 0  0.65 0.2 0  0.675 0.2 0  0.7 0.2 0  0.725 0.2 0  0.75 0.2 0  0.775 0.2 0  0.8 0.2 0  0.825 0.2 0  0.85 0.2 0  0.875 0.2 0  0.9 0.2 0  0.925 0.2 0  0.95 0.2 0  0.975 0.2 0  1 0.2 0  0 0.225 0  0.025 0.225 0  0.05 0.225 0  0.075 0.225 0  0.1 0.225 0  0.125 0.225 0  0.15 0.225 0  0.175 0.225 0  0.2 0.225 0  0.225 0.225 0  0.25 0.225 0  0.275 0.225 0  0.3 0.225 0  0.325 0.225 0  0.35 0.225 0  0.375 0.225 0  0.4 0.225 0  0.425 0.225 0  0.45 0.225 0  0.475 0.225 0  0.5 0.225 0  0.525 0.225 0  0.55 0.225 0  0.575 0.225 0  0.6 0.225 0  0.625 0.225 0  0.65 0.225 0  0.675 0.225 0  0.7 0.225 0  0.725 0.225 0  0.75 0.225 0  0.775 0.225 0  0.8 0.225 0  0.825 0.225 0  0.85 0.225 0  0.875 0.225 0  0.9 0.225 0  0.925 0.225 0  0.95 0.225 0  0.975 0.225 0  1 0.225 0  0 0.25 0  0.025 0.25 0  0.05 0.25 0  0.075 0.25 0  0.1 0.25 0  0.125 0.25 0  0.15 0.25 0  0.175 0.25 0  0.2 0.25 0  0.225 0.25 0  0.25 0.25 0  0.275 0.25 0  0.3 0.25 0  0.325 0.25 0  0.35 0.25 0  0.375 0.25 0  0.4 0.25 0  0.425 0.25 0  0.45 0.25 0  0.475 0.25 0  0.5 0.25 0  0.525 0.25 0  0.55 0.25 0  0.575 0.25 0  0.6 0.25 0  0.625 0.25 0  0.65 0.25 0  0.675 0.25 0  0.7 0.25 0  0.725 0.25 0  0.75 0.25 0  0.775 0.25 0  0.8 0.25 0  0.825 0.25 0  0.85 0.25 0  0.875 0.25 0  0.9 0.25 0  0.925 0.25 0  0.95 0.25 0  0.975 0.25 0  1 0.25 0  0 0.275 0  0.025 0.275 0  0.05 0.275 0  0.075 0.275 0  0.1 0.275 0  0.125 0.275 0  0.15 0.275 0  0.175 0.275 0  0.2 0.275 0  0.225 0.275 0  0.25 0.275 0  0.275 0.275 0  0.3 0.275 0  0.325 0.275 0  0.35 0.275 0  0.375 0.275 0  0.4 0.275 0  0.425 0.275 0  0.45 0.275 0  0.475 0.275 0  0.5 0.275 0  0.525 0.275 0  0.55 0.275 0  0.575 0.275 0  0.6 0.275 0  0.625 0.275 0  0.65 0.275 0  0.675 0.275 0  0.7 0.275 0  0.725 0.275 0  0.75 0.275 0  0.775 0.275 0  0.8 0.275 0  0.825 0.275 0  0.85 0.275 0  0.875 0.275 0  0.9 0.275 0  0.925 0.275 0  0.95 0.275 0  0.975 0.275 0  1 0.275 0  0 0.3 0  0.025 0.3 0  0.05 0.3 0  0.075 0.3 0  0.1 0.3 0  0.125 0.3 0  0.15 0.3 0  0.175 0.3 0  0.2 0.3 0  0.225 0.3 0  0.25 0.3 0  0.275 0.3 0  0.3 0.3 0  0.325 0.3 0  0.35 0.3 0  0.375 0.3 0  0.4 0.3 0  0.425 0.3 0  0.45 0.3 0  0.475 0.3 0  0.5 0.3 0  0.525 0.3 0  0.55 0.3 0  0.575 0.3 0  0.6 0.3 0  0.625 0.3 0  0.65 0.3 0  0.675 0.3 0  0.7 0.3 0  0.725 0.3 0  0.75 0.3 0  0.775 0.3 0  0.8 0.3 0  0.825 0.3 0  0.85 0.3 0  0.875 0.3 0  0.9 0.3 0  0.925 0.3 0  0.95 0.3 0  0.975 0.3 0  1 0.3 0  0 0.325 0  0.025 0.325 0  0.05 0.325 0  0.075 0.325 0  0.1 0.325 0  0.125 0.325 0  0.15 0.325 0  0.175 0.325 0  0.2 0.325 0  0.225 0.325 0  0.25 0.325 0  0.275 0.325 0  0.3 0.325 0  0.325 0.325 0  0.35 0.325 0  0.375 0.325 0  0.4 0.325 0  0.425 0.325 0  0.45 0.325 0  0.475 0.325 0  0.5 0.325 0  0.525 0.325 0  0.55 0.325 0  0.575 0.325 0  0.6 0.325 0  0.625 0.325 0  0.65 0.325 0  0.675 0.325 0  0.7 0.325 0  0.725 0.325 0  0.75 0.325 0  0.775 0.325 0  0.8 0.325 0  0.825 0.325 0  0.85 0.325 0  0.875 0.325 0  0.9 0.325 0  0.925 0.325 0  0.95 0.325 0  0.975 0.325 0  1 0.325 0  0 0.35 0  0.025 0.35 0  0.05 0.35 0  0.075 0.35 0  0.1 0.35 0  0.125 0.35 0  0.15 0.35 0  0.175 0.35 0  0.2 0.35 0  0.225 0.35 0  0.25 0.35 0  0.275 0.35 0  0.3 0.35 0  0.325 0.35 0  0.35 0.35 0  0.375 0.35 0  0.4 0.35 0  0.425 0.35 0  0.45 0.35 0  0.475 0.35 0  0.5 0.35 0  0.525 0.35 0  0.55 0.35 0  0.575 0.35 0  0.6 0.35 0  0.625 0.35 0  0.65 0.35 0  0.675 0.35 0  0.7 0.35 0  0.725 0.35 0  0.75 0.35 0  0.775 0.35 0  0.8 0.35 0  0.825 0.35 0  0.85 0.35 0  0.875 0.35 0  0.9 0.35 0  0.925 0.35 0  0.95 0.35 0  0.975 0.35 0  1 0.35 0  0 0.375 0  0.025 0.375 0  0.05 0.375 0  0.075 0.375 0  0.1 0.375 0  0.125 0.375 0  0.15 0.375 0  0.175 0.375 0  0.2 0.375 0  0.225 0.375 0  0.25 0.375 0  0.275 0.375 0  0.3 0.375 0  0.325 0.375 0  0.35 0.375 0  0.375 0.375 0  0.4 0.375 0  0.425 0.375 0  0.45 0.375 0  0.475 0.375 0  0.5 0.375 0  0.525 0.375 0  0.55 0.375 0  0.575 0.375 0  0.6 0.375 0  0.625 0.375 0  0.65 0.375 0  0.675 0.375 0  0.7 0.375 0  0.725 0.375 0  0.75 0.375 0  0.775 0.375 0  0.8 0.375 0  0.825 0.375 0  0.85 0.375 0  0.875 0.375 0  0.9 0.375 0  0.925 0.375 0  0.95 0.375 0  0.975 0.375 0  1 0.375 0  0 0.4 0  0.025 0.4 0  0.05 0.4 0  0.075 0.4 0  0.1 0.4 0  0.125 0.4 0  0.15 0.4 0  0.175 0.4 0  0.2 0.4 0  0.225 0.4 0  0.25 0.4 0  0.275 0.4 0  0.3 0.4 0  0.325 0.4 0  0.35 0.4 0  0.375 0.4 0  0.4 0.4 0  0.425 0.4 0  0.45 0.4 0  0.475 0.4 0  0.5 0.4 0  0.525 0.4 0  0.55 0.4 0  0.575 0.4 0  0.6 0.4 0  0.625 0.4 0  0.65 0.4 0  0.675 0.4 0  0.7 0.4 0  0.725 0.4 0  0.75 0.4 0  0.775 0.4 0  0.8 0.4 0  0.825 0.4 0  0.85 0.4 0  0.875 0.4 0  0.9 0.4 0  0.925 0.4 0  0.95 0.4 0  0.975 0.4 0  1 0.4 0  0 0.425 0  0.025 0.425 0  0.05 0.425 0  0.075 0.425 0  0.1 0.425 0  0.125 0.425 0  0.15 0.425 0  0.175 0.425 0  0.2 0.425 0  0.225 0.425 0  0.25 0.425 0  0.275 0.425 0  0.3 0.425 0  0.325 0.425 0  0.35 0.425 0  0.375 0.425 0  0.4 0.425 0  0.425 0.425 0  0.45 0.425 0  0.475 0.425 0  0.5 0.425 0  0.525 0.425 0  0.55 0.425 0  0.575 0.425 0  0.6 0.425 0  0.625 0.425 0  0.65 0.425 0  0.675 0.425 0  0.7 0.425 0  0.725 0.425 0  0.75 0.425 0  0.775 0.425 0  0.8 0.425 0  0.825 0.425 0  0.85 0.425 0  0.875 0.425 0  0.9 0.425 0  0.925 0.425 0  0.95 0.425 0  0.975 0.425 0  1 0.425 0  0 0.45 0  0.02
[...]
<PointData  Scalars="ControlVisualisation"> 
<DataArray  type="Float64"  Name="ControlVisualisation"  format="ascii">3.7228955566001554e-01  3.5425055473951733e-01  3.5431230155633642e-01  3.5453461328906438e-01  3.5490288440874418e-01  3.5534380330708515e-01  3.5577918066693648e-01  3.5615103815530391e-01  3.5643252131635828e-01  3.5661855560552891e-01  3.5671837330008144e-01  3.5674825626409412e-01  3.5672102433560893e-01  3.5665707560792742e-01  3.5656425122254748e-01  3.5644997109273902e-01  3.5632418756781736e-01  3.5619040546100172e-01  3.5605352826166797e-01  3.5591466824293350e-01  3.5577777313529863e-01  3.5564364917447500e-01  3.5551266949633692e-01  3.5538419794674442e-01  3.5526063764763754e-01  3.5514154443574431e-01  3.5502716687707558e-01  3.5491842873823409e-01  3.5481542420882228e-01  3.5471963843142090e-01  3.5463180972006147e-01  3.5455135635643714e-01  3.5447917049638616e-01  3.5441635805156430e-01  3.5436341578532710e-01  3.5432136796433417e-01  3.5429012197699927e-01  3.5427057141257595e-01  3.5426259274615290e-01  3.5426222183360101e-01  3.9054231633447117e-01  3.5424667465614862e-01  3.0182400180557400e-01  3.0292400806903574e-01  3.0538104758398144e-01  3.0911535383871436e-01  3.1350117129883243e-01  3.1783073292854558e-01  3.2156800867400442e-01  3.2444801301489562e-01  3.2640845137360397e-01  3.2752158167953943e-01  3.2793149594422066e-01  3.2776406484791842e-01  3.2718743412119666e-01  3.2629510293136171e-01  3.2518494720861463e-01  3.2392765075729735e-01  3.2257894375321972e-01  3.2118010395460561e-01  3.1975718780489815e-01  3.1833164753208304e-01  3.1692144312004450e-01  3.1553042986695845e-01  3.1417156072694935e-01  3.1284511021193151e-01  3.1156656214870437e-01  3.1033860807254171e-01  3.0915952129559249e-01  3.0804006735587391e-01  3.0698771754348320e-01  3.0601169691382341e-01  3.0511722398364488e-01  3.0430655199017609e-01  3.0359074582972567e-01  3.0297805624527824e-01  3.0247622628609627e-01  3.0208964457680160e-01  3.0182189345455362e-01  3.0167104563033031e-01  3.0161481480081126e-01  3.5426220899389560e-01  3.5428240505576702e-01  3.0292951577360944e-01  3.0664917866709906e-01  3.1266892750744935e-01  3.2080226854424115e-01  3.2992283333749911e-01  3.3868977668794631e-01  3.4612578091524865e-01  3.5177681982498732e-01  3.5558608252155938e-01  3.5769036456353570e-01  3.5838169975785567e-01  3.5793937105941181e-01  3.5664927345047553e-01  3.5472127206605242e-01  3.5235076956928879e-01  3.4968650430599058e-01  3.4683368306990731e-01  3.4387229290093740e-01  3.4085499041578698e-01  3.3783310047693321e-01  3.3483753266086319e-01  3.3188087748617973e-01  3.2898198523133432e-01  3.2616278446811364e-01  3.2343327364027463e-01  3.2080785625360653e-01  3.1829053565804816e-01  3.1589612858217253e-01  3.1363851500218881e-01  3.1153428295192537e-01  3.0960117674864363e-01  3.0784558464907891e-01  3.0628733326627033e-01  3.0494553284553766e-01  3.0383209538189371e-01  3.0295805684583177e-01  3.0232470383710469e-01  3.0191058382296782e-01  3.0167073788204984e-01  3.5426251303732192e-01  3.5444973265954616e-01  3.0574118451967991e-01  3.1403310256589267e-01  3.2379484198742670e-01  3.3473415471061146e-01  3.4585226342908282e-01  3.5586962413939432e-01  3.6393800581464925e-01  3.6974115148444842e-01  3.7336789961087691e-01  3.7506027526785707e-01  3.7516455226356887e-01  3.7403151102346716e-01  3.7195921162034851e-01  3.6921562683223630e-01  3.6600705246478654e-01  3.6249479237241627e-01  3.5879352921205621e-01  3.5499539834176774e-01  3.5116222543387265e-01  3.4733276124285545e-01  3.4356402032841282e-01  3.3985486680816168e-01  3.3622654565282550e-01  3.3270491216285186e-01  3.2930506031517426e-01  3.2603476728428082e-01  3.2289970806643387e-01  3.1992250457026727e-01  3.1712001834043912e-01  3.1450265509403208e-01  3.1209429630317587e-01  3.0991076204331142e-01  3.0796953264568017e-01  3.0629302092724281e-01  3.0489781741930588e-01  3.0378958222936453e-01  3.0295651477701030e-01  3.0232907153513311e-01  3.0182221984927904e-01  3.5427034205581137e-01  3.5478700331081264e-01  3.1126045112781664e-01  3.2872776370777618e-01  3.4387587372394590e-01  3.5651920665934911e-01  3.6705273773294111e-01  3.7532171608774756e-01  3.8123372549969170e-01  3.8487822988980380e-01  3.8654898360064710e-01  3.8655257784823011e-01  3.8523513331849041e-01  3.8292337147737165e-01  3.7987232889560463e-01  3.7630665971237143e-01  3.7241099534136102e-01  3.6830680904695157e-01  3.6409117581738798e-01  3.5984649448978157e-01  3.5561067555126563e-01  3.5142276254703281e-01  3.4732416830444068e-01  3.4332207226461642e-01  3.3941989535033745e-01  3.3564471736945206e-01  3.3200344446759544e-01  3.2850902711488639e-01  3.2516066825921980e-01  3.2198586653195949e-01  3.1899854067421796e-01  3.1621043029496754e-01  3.1364249816436274e-01  3.1131389764402456e-01  3.0924613125530015e-01  3.0745594408420590e-01  3.0595881521850221e-01  3.0475804359011593e-01  3.0381088700064229e-01  3.0297922354969092e-01  3.0209565630468876e-01  3.5428999932130190e-01  3.5530905152678366e-01  3.2442644462367282e-01  3.5996290403433662e-01  3.8233501993885249e-01  3.9359600476146822e-01  3.9925204980676687e-01  4.0187281980908118e-01  4.0253954561892924e-01  4.0175884104009940e-01  3.9986695004207790e-01  3.9709246218878147e-01  3.9363113678818362e-01  3.8969117732313252e-01  3.8541568093957373e-01  3.8093187169091697e-01  3.7633707362763702e-01  3.7170987562379326e-01  3.6709709706243671e-01  3.6255174032956172e-01  3.5807710519626601e-01  3.5370946589546809e-01  3.4946848277231851e-01  3.4534645934788494e-01  3.4135313589442057e-01  3.3749357245572964e-01  3.3378626786621390e-01  3.3022928169628823e-01  3.2682446765545747e-01  3.2359471268506718e-01  3.2055533531214853e-01  3.1771954036234074e-01  3.1510742702396866e-01  3.1273661091873817e-01  3.1062892508526407e-01  3.0880351764027342e-01  3.0726785833955639e-01  3.0601707457040189e-01  3.0497272329988878e-01  3.0389559584790843e-01  3.0250011430767615e-01  3.5432217877293914e-01  3.6489252439435887e-01  3.6967302560291432e-01  4.3195083237717907e-01  4.5387481283362163e-01  4.5393720307487823e-01  4.4663631801924630e-01  4.3787158128857140e-01  4.2949816835178634e-01  4.2185577275428476e-01  4.1485591988547760e-01  4.0833048462371097e-01  4.0213086205259996e-01  3.9619816813836145e-01  3.9048788248226896e-01  3.8496713383396219e-01  3.7963618648057340e-01  3.7448126188221303e-01  3.6950536439547338e-01  3.6470612261965557e-01  3.6006054951607319e-01  3.5558170287799917e-01  3.5126241497349181e-01  3.4709646045369957e-01  3.4308536170929232e-01  3.3921613304358245e-01  3.3550348872480007e-01  3.3195074612824982e-01  3.2854771855906861e-01  3.2531838028172877e-01  3.2227609660946432e-01  3.1943676744726579e-01  3.1681764148598301e-01  3.1443658909363514e-01  3.1231849517697879e-01  3.1047915948800475e-01  3.0892620997470582e-01  3.0763612129966383e-01  3.0648191082147380e-01  3.0509847794148731e-01  3.0303733656993526e-01  3.5436644986101795e-01  4.8184365027047654e-01  5.3528138988537222e-01  5.7556760481185865e-01  5.6778286156712876e-01  5.4036851343863690e-01  5.0959302652465044e-01  4.8285109806061449e-01  4.6152757167557534e-01  4.4476896194448734e-01  4.3138351322606677e-01  4.2036286550272495e-01  4.1101045669597841e-01  4.0285734817458158e-01  3.9557468591386818e-01  3.8895328208043273e-01  3.8286081497494184e-01  3.7718002286282326e-01  3.7185192199541645e-01  3.6681860968075125e-01  3.6203686064517532e-01  3.5748029949265159e-01  3.5312289099467370e-01  3.4895503393550859e-01  3.4495445569893074e-01  3.4110933548095801e-01  3.3742480128694641e-01  3.3390548950770460e-01  3.3053606752768361e-01  3.2733396695481731e-01  3.2431202393207348e-01  3.2149014495814510e-01  3.1888353339801473e-01  3.1650576205727604e-01  3.1438984047880286e-01  3.1254486184191321e-01  3.1097539371242594e-01  3.0964100348211904e-01  3.0835991779899724e-01  3.0660035683914516e-01  3.0371456170102001e-01  3.5442325586009793e-01  7.0740735844617697e-01  7.8834358879821009e-01  7.4543455130617398e-01  7.0031857272471698e-01  6.4085049888542678e-01  5.8132923364204403e-01  5.3259915249854262e-01  4.9591200807691938e-01  4.6874342991147772e-01  4.4833140655025083e-01  4.3252731087631863e-01  4.1988329915022032e-01  4.0945801786603192e-01  4.0061176848106755e-01  3.9290358246850604e-01  3.8608539272801290e-01  3.7990001713660115e-01  3.7424558492423549e-01  3.6901740687348356e-01  3.6413065471617473e-01  3.5952747503548399e-01  3.5516102523699644e-01  3.5101860064691326e-01  3.4706266838577271e-01  3.4326384641405283e-01  3.3963511171164157e-01  3.3616505862317136e-01  3.3285279140229157e-01  3.2970163895533178e-01  3.2671919185711173e-01  3.2392969593952503e-01  3.2134635615586304e-01  3.1898974221347093e-01  3.1688247057632035e-01  3.1503590363585826e-01  3.1345229697431209e-01  3.1206835385392218e-01  3.1063604159768066e-01  3.0842139170952171e-01  3.0453847949436180e-01  3.5449317958825671e-01  7.9854067683821017e-01  8.8189807284342658e-01  8.4243876311776877e-01  8.0230126343594699e-01  7.2949602345044440e-01  6.4806523798334070e-01  5.7941435434772948e-01  5.2814179481783119e-01  4.9105475783510882e-01  4.6400459135766930e-01  4.4374850310642744e-01  4.2808549549361752e-01  4.1558239314499840e-01  4.0532615197602273e-01  3.9665586485690379e-01  3.8917868506946607e-01  3.8258195840375619e-01  3.7665675907087898e-01  3.7129232000077300e-01  3.6633404436784539e-01  3.6172370070430077e-01  3.5738474088424760e-01  3.5329684027414437e-01  3.4941066422346917e-01  3.4569314302469256e-01  3.4215146433434412e-01  3.3875942113290236e-01  3.3552546109726678e-01  3.3244653819686704e-01  3.2952788591661292e-01  3.2678563817930523e-01  3.2424165800033555e-01  3.2191907251095442e-01  3.1982620766060338e-01  3.1798505887727546e-01  3.1639501492206062e-01  3.1495926965515625e-01  3.1334453810179103e-01  3.1058422336415575e-01  3.0552068319691944e-01  3.5457732172341355e-01  8.1711625130388899e-01  9.0510566916887580e-01  8.7929465877840141e-01  8.5249094848987195e-01  7.8421088079672263e-01  6.9514594659354445e-01  6.1456007780440169e-01  5.5308558921583995e-01  5.0865279223037763e-01  4.7654796262887222e-01  4.5284220016930105e-01  4.3483347349759627e-01  4.2072119099135263e-01  4.0936002776235669e-01  3.9996467598852137e-01  3.9199141362795314e-01  3.8509645041819218e-01  3.7900944770539752e-01  3.7356143293133465e-01  3.6859271522184422e-01  3.6402068900821366e-01  3.5975392759781327e-01  3.5576252211843457e-01  3.5198513961237837e-01  3.4838003502870185e-01  3.4496123484712504e-01  3.4168912929921591e-01  3.3856043207468328e-01  3.3557481296095770e-01  3.3274440524086596e-01  3.3008138398388798e-01  3.2759765227466153e-01  3.2532199512895221e-01  3.2326456969054618e-01  3.2143803142114774e-01  3.1983878413899736e-01  3.1834285674122831e-01  3.1651484000710345e-01  3.1311824441653396e-01  3.0667234658946541e-01  3.5467651019606555e-01  7.9201907440183528e-01  8.8763810823972145e-01  8.7054292003318934e-01  8.5534425920500590e-01  7.9819992774763704e-01  7.1382432976093257e-01  6.3165173974196465e-01  5.6671977606728052e-01  5.1904911208946181e-01  4.8439352538763814e-01  4.5880880825151310e-01  4.3945301361040895e-01  4.2440711194021358e-01  4.1239622408344234e-01  4.0257858918722844e-01  3.9434121423471463e-01  3.8730302148073664e-01  3.8117572673176336e-01  3.7573912283355626e-01  3.7083619317844657e-01  3.6636578261503538e-01  3.6223259993647416e-01  3.5838060301440150e-01  3.5476360609849911e-01  3.5132022810855251e-01  3.4805361651009836e-01  3.4494369482410986e-01  3.4195954688642860e-01  3.3910694698890548e-01  3.3639658580444093e-01  3.3383686959918879e-01  3.3144570048981453e-01  3.2924108040856598e-01  3.2723901554896573e-01  3.2544101483487681e-01  3.2383854296394482e-01  3.2227650180345624e-01  3.2020026206485064e-01  3.1606329866801114e-01  3.0801273034771615e-01  3.5479161029545342e-01  6.7715475297010719e-01  8.2444383520019848e-01  8.1172316186441862e-01  8.1677679010880266e-01  7.7498348937231654e-01  7.0332296132505145e-01  6.2880489406691653e-01  5.6739240987472694e-01  5.2101618283671158e-01  4.8667754676343011e-01  4.6103305624892515e-01  4.4150204026325451e-01  4.2629438193697683e-01  4.1415852655419744e-01  4.0427445431455239e-01  3.9604016643230183e-01  3.8906418091903189e-01  3.8303609937558913e-01  3.7773472071697456e-01  3.7298920710928457e-01  3.6869300700134061e-01  3.6475698728461292e-01  3.6110497003644321e-01  3.5769827285036238e-01  3.5447413150345203e-01  3.5141149737380833e-01  3.4849871590062775e-01  3.4570533351271970e-01  3.4303893832291910e-01  3.4049795425243001e-01  3.3808305610503181e-01  3.3581763803755910e-01  3.3371598826331106e-01  3.3179736419836414e-01  3.3005793833292030e-01  3.2847018579364606e-01  3.2683897942734924e-01  3.2447185050043459e-01  3.1947265587188467e-01  3.0956457176034852e-01  3.5492573679964012e-01  4.3899825749570554e-01  6.4276872249813766e-01  7.1502774460474416e-01  7.4570452101518281e-01  7.2320922229611628e-01  6.6929339726510118e-01  6.0874193734145576e-01  5.5617868710020080e-01  5.1488955172637940e-01  4.8341625502461744e-01  4.5940024523392875e-01  4.4082981241435681e-01  4.2622605981364081e-01  4.1450633383235080e-01  4.0494786328279953e-01  3.9699942317333231e-01  3.9028483527449753e-01  3.8451212495257414e-01  3.7946370791673950e-01  3.7497591056085744e-01  3.7093996902476728e-01  3.6727220173045738e-01  3.6388845608195486e-01  3.6075113588566904e-01  3.5779169408016409e-01  3.5499864161133671e-01  3.5234821307442349e-01  3.4980878918199071e-01  3.4738533585219972e-01  3.4506702110681098e-01  3.4285563592299489e-01  3.4077431737887920e-01  3.3882501320315889e-01  3.3702862177132031e-01  3.3537839626399391e-01  3.3382436116101089e-01  3.3211668624195895e-01  3.2941291696789959e-01  3.2341322567081132e-01  3.1135743766678553e-01  3.5508086059315436e-01  3.6565105028393413e-01  4.5465962546505406e-01  6.0594477682041070e-01  6.5950408703951713e-01  6.5610280999712689e-01  6.2145856399685817e-01  5.7729566647817432e-01  5.3624807741544644e-01  5.0231824762493538e-01  4.7543092516909796e-01  4.5430251428575619e-01  4.3760505480634848e-01  4.2425138086758607e-01  4.1342471312437828e-01  4.0454355158414590e-01  3.9714317463183696e-01  3.9088490345267241e-01  3.8552420819008909e-01  3.8085175511455616e-01  3.7672206837774974e-01  3.7303152147027896e-01  3.6971061913444342e-01  3.6667113301109727e-01  3.6386758810640002e-01  3.6124107660734917e-01  3.5878108759054594e-01  3.5646393353143424e-01  3.5425414326680565e-01  3.5214289853252462e-01  3.5011588693198914e-01  3.4818447453464796e-01  3.4635599780217047e-01  3.4462854090305262e-01  3.4301182048379536e-01  3.4149662356191240e-01  3.4000460849356778e-01  3.3822574275500844e-01  3.3512714921006670e-01  3.2796585221480384e-01  3.1342509109508021e-01  3.5525945304058115e-01  3.6087212275469843e-01  3.9391601209093530e-01  5.2114887457404613e-01  5.7980290241467092e-01  5.8891159997713438e-01  5.7036002937963182e-01  5.4121176656772640e-01  5.1162917697497778e-01  4.8562588701166121e-01  4.6405019788842344e-01  4.4649000933447086e-01  4.3223599004473534e-01  4.2060185664327193e-01  4.1102768222531899e-01  4.0310184025212159e-01  3.9645537562518890e-01  3.9082635809114424e-01  3.8601358126597607e-01  3.8183237333624592e-01  3.7816754200826302e-01  3.7491846022152953e-01  3.7201534529920749e-01  3.6939060186014500e-01  3.6700062324158661e-01  3.6478540325370928e-01  3.6273458442275808e-01  3.6082845900786942e-01  3.5902333147510190e-01  3.5732058656598398e-01  3.5568226630532535e-01  3.5412386111124700e-01  3.5263313334765189e-01  3.5121884797135106e-01  3.4986874737165030e-01  3.4855532077886786e-01  3.4716620741929444e-01  3.4531158252845823e-01  3.4176060504951633e-01  3.3323235740594981e-01  3.1581510835697901e-01  3.5546596048658130e-01  3.6002077930989984e-01  3.7355475231011931e-01  4.6951060171427483e-01  5.1886291738699275e-01  5.3190289843630223e-01  5.2363840505315273e-01  5.0586691894030245e-01  4.8588128709800649e-01  4.6710251075510673e-01  4.5071655611340300e-01  4.3686441922074015e-01  4.2527283493728701e-01  4.1559758776506084e-01  4.0751210472094229e-01  4.0072906697650240e-01  3.9500571262978817e-01  3.9013631669353782e-01  3.8597981335986536e-01  3.8238906381233634e-01  3.7927511028955690e-01  3.7655245861447234e-01  3.7414693165492124e-01  3.7200552213826654e-01  3.7010282979385073e-01  3.6837852348057976e-01  3.6682723292028074e-01  3.6541045476494627e-01  3.6411167405754918e-01  3.6291365095735345e-01  3.6178731994304958e-01  3.6072298916603146e-01  3.5969783133386435e-01  3.5871202805939650e-01  3.5774336674887319e-01  3.5672271127098043e-01  3.5550291262852035e-01  3.5358811324181499e-01  3.4948561238228276e-01  3.3935396800563888e-01  3.1858158359975502e-01  3.5570457470718925e-01  3.5907681318390622e-01  3.5978186062502965e-01  4.3498157030524359e-01  4.7446050775051085e-01  4.8717813393172577e-01  4.8445131935881752e-01  4.7423471741375073e-01  4.6138570542161600e-01  4.4848562824516741e-01  4.3664795665810013e-01  4.2623885298018771e-01  4.1725878484135676e-01  4.0959405905796137e-01  4.0307300091028164e-01  3.9753321828736865e-01  3.9282511967120387e-01  3.8882717121350829e-01  3.8541577917445757e-01  3.8250148174278065e-01  3.8000466553571771e-01  3.7786425782625999e-01  3.7602331119589932e-01  3.7444591584451781e-01  3.7309781102192369e-01  3.7194906640268799e-01  3.7098004285649838e-01  3.7016898308988083e-01  3.6948995980899840e-01  3.6891245658822841e-01  3.6843083330554188e-01  3.6800802636124086e-01  3.6761701477290021e-01  3.6723212205154415e-01  3.6679901244669838e-01  3.6621554698287817e-01  3.6525794544068640e-01  3.6330415676277883e-01  3.5856339302658613e-01  3.4651666307275619e-01  3.2181429787938021e-01  3.5598231746115078e-01  3.5832162925048067e-01  3.4992256993378201e-01  4.1080317335126121e-01  4.4204208284144381e-01  4.5292813939063764e-01  4.5285980214325544e-01  4.4727785309410062e-01  4.3936937942696080e-01  4.3090185166097683e-01  4.2275932043630127e-01  4.1531902446735380e-01  4.0871347282578185e-01  4.0295069868671890e-01  3.9797298058966291e-01  3.9369052687757583e-01  3.9004780122680144e-01  3.8696208337075183e-01  3.8435125030645578e-01  3.8216213029201535e-01  3.8033409112223027e-01  3.7882352823136400e-01  3.7760519266664871e-01  3.7664972718307199e-01  3.7593127414108790e-01  3.7543043881010268e-01  3.7512711918509706e-01  3.7502101684306466e-01  3.7508910231005832e-01  3.7528907660271421e-01  3.7561527352977847e-01  3.7602889549413704e-01  3.7649195258073875e-01  3.7693483789393700e-01  3.7726725398088184e-01  3.7732466722621061e-01  3.7677792129332838e-01  3.7481707194299868e-01  3.6930881032678775e-01  3.5498068670987160e-01  3.2561785172689661e-01  3.5630781258938654e-01  3.5768245664575665e-01  3.4197676421897616e-01  3.9208052536967286e-01  4.1729237262212682e-01  4.2644022265371240e-01  4.2758062589260942e-01  4.2477347781559849e-01  4.2015822511432649e-01  4.1489056222784337e-01  4.0959185423597427e-01  4.0459058068105941e-01  4.0003413692777262e-01  3.9598309590271519e-01  3.9243931546576927e-01  3.8937195081991083e-01  3.8677406343598369e-01  3.8460954491056959e-01  3.8281401029593382e-01  3.8136727976678325e-01  3.8024081983527869e-01  3.7940786438511703e-01  3.7884772014059309e-01  3.7856156278737868e-01  3.7853078765793835e-01  3.7873959070265406e-01  3.7919485934159131e-01  3.7989488578699471e-01  3.8082985218654714e-01  3.8197066780661881e-01  3.8330903107183156e-01  3.8480573947387653e-01  3.8639898819405633e-01  3.8799483110715088e-01  3.8942010014000078e-01  3.9042877181589675e-01  3.9053662908246201e-01  3.8865095253581672e-01  3.8218755787945574e-01  3.6505030938569760e-01  3.3011558955549158e-01  3.5669176448845880e-01  3.5714294975304800e-01  3.3548071242502481e-01  3.7719450574243363e-01  3.9787216466378078e-01  4.0553405252763536e-01  4.0720008181829426e-01  4.0606492343786982e-01  4.0361030903326378e-01  4.006007751