<?xml version="1.0"?>
<VTKFile type="UnstructuredGrid"  version="0.1"  >
<UnstructuredGrid>
<Piece  NumberOfPoints="1681" NumberOfCells="3200">
<Points>
<DataArray  type="Float64"  NumberOfComponents="3"  format="ascii">0 0 0  0.025 0 0  0.05 0 0  0.075 0 0  0.1 0 0  0.125 0 0  0.15 0 0  0.175 0 0  0.2 0 0  0.225 0 0  0.25 0 0  0.275 0 0  0.3 0 0  0.325 0 0  0.35 0 0  0.375 0 0  0.4 0 0  0.425 0 0  0.45 0 0  0.475 0 0  0.5 0 0  0.525 0 0  0.55 0 0  0.575 0 0  0.6 0 0  0.625 0 0  0.65 0 0  0.675 0 0  0.7 0 0  0.725 0 0  0.75 0 0  0.775 0 0  0.8 0 0  0.825 0 0  0.85 0 0  0.875 0 0  0.9 0 0  0.925 0 0  0.95 0 0  0.975 0 0  1 0 0  0 0.025 0  0.025 0.025 0  0.05 0.025 0  0.075 0.025 0  0.1 0.025 0  0.125 0.025 0  0.15 0.025 0  0.175 0.025 0  0.2 0.025 0  0.225 0.025 0  0.25 0.025 0  0.275 0.025 0  0.3 0.025 0  0.325 0.025 0  0.35 0.025 0  0.375 0.025 0  0.4 0.025 0  0.425 0.025 0  0.45 0.025 0  0.475 0.025 0  0.5 0.025 0  0.525 0.025 0  0.55 0.025 0  0.575 0.025 0  0.6 0.025 0  0.625 0.025 0  0.65 0.025 0  0.675 0.025 0  0.7 0.025 0  0.725 0.025 0  0.75 0.025 0  0.775 0.025 0  0.8 0.025 0  0.825 0.025 0  0.85 0.025 0  0.875 0.025 0  0.9 0.025 0  0.925 0.025 0  0.95 0.025 0  0.975 0.025 0  1 0.025 0  0 0.05 0  0.025 0.05 0  0.05 0.05 0  0.075 0.05 0  0.1 0.05 0  0.125 0.05 0  0.15 0.05 0  0.175 0.05 0  0.2 0.05 0  0.225 0.05 0  0.25 0.05 0  0.275 0.05 0  0.3 0.05 0  0.325 0.05 0  0.35 0.05 0  0.375 0.05 0  0.4 0.05 0  0.425 0.05 0  0.45 0.05 0  0.475 0.05 0  0.5 0.05 0  0.525 0.05 0  0.55 0.05 0  0.575 0.05 0  0.6 0.05 0  0.625 0.05 0  0.65 0.05 0  0.675 0.05 0  0.7 0.05 0  0.725 0.05 0  0.75 0.05 0  0.775 0.05 0  0.8 0.05 0  0.825 0.05 0  0.85 0.05 0  0.875 0.05 0  0.9 0.05 0  0.925 0.05 0  0.95 0.05 0  0.975 0.05 0  1 0.05 0  0 0.075 0  0.025 0.075 0  0.05 0.075 0  0.075 0.075 0  0.1 0.075 0  0.125 0.075 0  0.15 0.075 0  0.175 0.075 0  0.2 0.075 0  0.225 0.075 0  0.25 0.075 0  0.275 0.075 0  0.3 0.075 0  0.325 0.075 0  0.35 0.075 0  0.375 0.075 0  0.4 0.075 0  0.425 0.075 0  0.45 0.075 0  0.475 0.075 0  0.5 0.075 0  0.525 0.075 0  0.55 0.075 0  0.575 0.075 0  0.6 0.075 0  0.625 0.075 0  0.65 0.075 0  0.675 0.075 0  0.7 0.075 0  0.725 0.075 0  0.75 0.075 0  0.775 0.075 0  0.8 0.075 0  0.825 0.075 0  0.85 0.075 0  0.875 0.075 0  0.9 0.075 0  0.925 0.075 0  0.95 0.075 0  0.975 0.075 0  1 0.075 0  0 0.1 0  0.025 0.1 0  0.05 0.1 0  0.075 0.1 0  0.1 0.1 0  0.125 0.1 0  0.15 0.1 0  0.175 0.1 0  0.2 0.1 0  0.225 0.1 0  0.25 0.1 0  0.275 0.1 0  0.3 0.1 0  0.325 0.1 0  0.35 0.1 0  0.375 0.1 0  0.4 0.1 0  0.425 0.1 0  0.45 0.1 0  0.475 0.1 0  0.5 0.1 0  0.525 0.1 0  0.55 0.1 0  0.575 0.1 0  0.6 0.1 0  0.625 0.1 0  0.65 0.1 0  0.675 0.1 0  0.7 0.1 0  0.725 0.1 0  0.75 0.1 0  0.775 0.1 0  0.8 0.1 0  0.825 0.1 0  0.85 0.1 0  0.875 0.1 0  0.9 0.1 0  0.925 0.1 0  0.95 0.1 0  0.975 0.1 0  1 0.1 0  0 0.125 0  0.025 0.125 0  0.05 0.125 0  0.075 0.125 0  0.1 0.125 0  0.125 0.125 0  0.15 0.125 0  0.175 0.125 0  0.2 0.125 0  0.225 0.125 0  0.25 0.125 0  0.275 0.125 0  0.3 0.125 0  0.325 0.125 0  0.35 0.125 0  0.375 0.125 0  0.4 0.125 0  0.425 0.125 0  0.45 0.125 0  0.475 0.125 0  0.5 0.125 0  0.525 0.125 0  0.55 0.125 0  0.575 0.125 0  0.6 0.125 0  0.625 0.125 0  0.65 0.125 0  0.675 0.125 0  0.7 0.125 0  0.725 0.125 0  0.75 0.125 0  0.775 0.125 0  0.8 0.125 0  0.825 0.125 0  0.85 0.125 0  0.875 0.125 0  0.9 0.125 0  0.925 0.125 0  0.95 0.125 0  0.975 0.125 0  1 0.125 0  0 0.15 0  0.025 0.15 0  0.05 0.15 0  0.075 0.15 0  0.1 0.15 0  0.125 0.15 0  0.15 0.15 0  0.175 0.15 0  0.2 0.15 0  0.225 0.15 0  0.25 0.15 0  0.275 0.15 0  0.3 0.15 0  0.325 0.15 0  0.35 0.15 0  0.375 0.15 0  0.4 0.15 0  0.425 0.15 0  0.45 0.15 0  0.475 0.15 0  0.5 0.15 0  0.525 0.15 0  0.55 0.15 0  0.575 0.15 0  0.6 0.15 0  0.625 0.15 0  0.65 0.15 0  0.675 0.15 0  0.7 0.15 0  0.725 0.15 0  0.75 0.15 0  0.775 0.15 0  0.8 0.15 0  0.825 0.15 0  0.85 0.15 0  0.875 0.15 0  0.9 0.15 0  0.925 0.15 0  0.95 0.15 0  0.975 0.15 0  1 0.15 0  0 0.175 0  0.025 0.175 0  0.05 0.175 0  0.075 0.175 0  0.1 0.175 0  0.125 0.175 0  0.15 0.175 0  0.175 0.175 0  0.2 0.175 0  0.225 0.175 0  0.25 0.175 0  0.275 0.175 0  0.3 0.175 0  0.325 0.175 0  0.35 0.175 0  0.375 0.175 0  0.4 0.175 0  0.425 0.175 0  0.45 0.175 0  0.475 0.175 0  0.5 0.175 0  0.525 0.175 0  0.55 0.175 0  0.575 0.175 0  0.6 0.175 0  0.625 0.175 0  0.65 0.175 0  0.675 0.175 0  0.7 0.175 0  0.725 0.175 0  0.75 0.175 0  0.775 0.175 0  0.8 0.175 0  0.825 0.175 0  0.85 0.175 0  0.875 0.175 0  0.9 0.175 0  0.925 0.175 0  0.95 0.175 0  0.975 0.175 0  1 0.175 0  0 0.2 0  0.025 0.2 0  0.05 0.2 0  0.075 0.2 0  0.1 0.2 0  0.125 0.2 0  0.15 0.2 0  0.175 0.2 0  0.2 0.2 0  0.225 0.2 0  0.25 0.2 0  0.275 0.2 0  0.3 0.2 0  0.325 0.2 0  0.35 0.2 0  0.375 0.2 0  0.4 0.2 0  0.425 0.2 0  0.45 0.2 0  0.475 0.2 0  0.5 0.2 0  0.525 0.2 0  0.55 0.2 0  0.575 0.2 0  0.6 0.2 0  0.625 0.2 0  0.65 0.2 0  0.675 0.2 0  0.7 0.2 0  0.725 0.2 0  0.75 0.2 0  0.775 0.2 0  0.8 0.2 0  0.825 0.2 0  0.85 0.2 0  0.875 0.2 0  0.9 0.2 0  0.925 0.2 0  0.95 0.2 0  0.975 0.2 0  1 0.2 0  0 0.225 0  0.025 0.225 0  0.05 0.225 0  0.075 0.225 0  0.1 0.225 0  0.125 0.225 0  0.15 0.225 0  0.175 0.225 0  0.2 0.225 0  0.225 0.225 0  0.25 0.225 0  0.275 0.225 0  0.3 0.225 0  0.325 0.225 0  0.35 0.225 0  0.375 0.225 0  0.4 0.225 0  0.425 0.225 0  0.45 0.225 0  0.475 0.225 0  0.5 0.225 0  0.525 0.225 0  0.55 0.225 0  0.575 0.225 0  0.6 0.225 0  0.625 0.225 0  0.65 0.225 0  0.675 0.225 0  0.7 0.225 0  0.725 0.225 0  0.75 0.225 0  0.775 0.225 0  0.8 0.225 0  0.825 0.225 0  0.85 0.225 0  0.875 0.225 0  0.9 0.225 0  0.925 0.225 0  0.95 0.225 0  0.975 0.225 0  1 0.225 0  0 0.25 0  0.025 0.25 0  0.05 0.25 0  0.075 0.25 0  0.1 0.25 0  0.125 0.25 0  0.15 0.25 0  0.175 0.25 0  0.2 0.25 0  0.225 0.25 0  0.25 0.25 0  0.275 0.25 0  0.3 0.25 0  0.325 0.25 0  0.35 0.25 0  0.375 0.25 0  0.4 0.25 0  0.425 0.25 0  0.45 0.25 0  0.475 0.25 0  0.5 0.25 0  0.525 0.25 0  0.55 0.25 0  0.575 0.25 0  0.6 0.25 0  0.625 0.25 0  0.65 0.25 0  0.675 0.25 0  0.7 0.25 0  0.725 0.25 0  0.75 0.25 0  0.775 0.25 0  0.8 0.25 0  0.825 0.25 0  0.85 0.25 0  0.875 0.25 0  0.9 0.25 0  0.925 0.25 0  0.95 0.25 0  0.975 0.25 0  1 0.25 0  0 0.275 0  0.025 0.275 0  0.05 0.275 0  0.075 0.275 0  0.1 0.275 0  0.125 0.275 0  0.15 0.275 0  0.175 0.275 0  0.2 0.275 0  0.225 0.275 0  0.25 0.275 0  0.275 0.275 0  0.3 0.275 0  0.325 0.275 0  0.35 0.275 0  0.375 0.275 0  0.4 0.275 0  0.425 0.275 0  0.45 0.275 0  0.475 0.275 0  0.5 0.275 0  0.525 0.275 0  0.55 0.275 0  0.575 0.275 0  0.6 0.275 0  0.625 0.275 0  0.65 0.275 0  0.675 0.275 0  0.7 0.275 0  0.725 0.275 0  0.75 0.275 0  0.775 0.275 0  0.8 0.275 0  0.825 0.275 0  0.85 0.275 0  0.875 0.275 0  0.9 0.275 0  0.925 0.275 0  0.95 0.275 0  0.975 0.275 0  1 0.275 0  0 0.3 0  0.025 0.3 0  0.05 0.3 0  0.075 0.3 0  0.1 0.3 0  0.125 0.3 0  0.15 0.3 0  0.175 0.3 0  0.2 0.3 0  0.225 0.3 0  0.25 0.3 0  0.275 0.3 0  0.3 0.3 0  0.325 0.3 0  0.35 0.3 0  0.375 0.3 0  0.4 0.3 0  0.425 0.3 0  0.45 0.3 0  0.475 0.3 0  0.5 0.3 0  0.525 0.3 0  0.55 0.3 0  0.575 0.3 0  0.6 0.3 0  0.625 0.3 0  0.65 0.3 0  0.675 0.3 0  0.7 0.3 0  0.725 0.3 0  0.75 0.3 0  0.775 0.3 0  0.8 0.3 0  0.825 0.3 0  0.85 0.3 0  0.875 0.3 0  0.9 0.3 0  0.925 0.3 0  0.95 0.3 0  0.975 0.3 0  1 0.3 0  0 0.325 0  0.025 0.325 0  0.05 0.325 0  0.075 0.325 0  0.1 0.325 0  0.125 0.325 0  0.15 0.325 0  0.175 0.325 0  0.2 0.325 0  0.225 0.325 0  0.25 0.325 0  0.275 0.325 0  0.3 0.325 0  0.325 0.325 0  0.35 0.325 0  0.375 0.325 0  0.4 0.325 0  0.425 0.325 0  0.45 0.325 0  0.475 0.325 0  0.5 0.325 0  0.525 0.325 0  0.55 0.325 0  0.575 0.325 0  0.6 0.325 0  0.625 0.325 0  0.65 0.325 0  0.675 0.325 0  0.7 0.325 0  0.725 0.325 0  0.75 0.325 0  0.775 0.325 0  0.8 0.325 0  0.825 0.325 0  0.85 0.325 0  0.875 0.325 0  0.9 0.325 0  0.925 0.325 0  0.95 0.325 0  0.975 0.325 0  1 0.325 0  0 0.35 0  0.025 0.35 0  0.05 0.35 0  0.075 0.35 0  0.1 0.35 0  0.125 0.35 0  0.15 0.35 0  0.175 0.35 0  0.2 0.35 0  0.225 0.35 0  0.25 0.35 0  0.275 0.35 0  0.3 0.35 0  0.325 0.35 0  0.35 0.35 0  0.375 0.35 0  0.4 0.35 0  0.425 0.35 0  0.45 0.35 0  0.475 0.35 0  0.5 0.35 0  0.525 0.35 0  0.55 0.35 0  0.575 0.35 0  0.6 0.35 0  0.625 0.35 0  0.65 0.35 0  0.675 0.35 0  0.7 0.35 0  0.725 0.35 0  0.75 0.35 0  0.775 0.35 0  0.8 0.35 0  0.825 0.35 0  0.85 0.35 0  0.875 0.35 0  0.9 0.35 0  0.925 0.35 0  0.95 0.35 0  0.975 0.35 0  1 0.35 0  0 0.375 0  0.025 0.375 0  0.05 0.375 0  0.075 0.375 0  0.1 0.375 0  0.125 0.375 0  0.15 0.375 0  0.175 0.375 0  0.2 0.375 0  0.225 0.375 0  0.25 0.375 0  0.275 0.375 0  0.3 0.375 0  0.325 0.375 0  0.35 0.375 0  0.375 0.375 0  0.4 0.375 0  0.425 0.375 0  0.45 0.375 0  0.475 0.375 0  0.5 0.375 0  0.525 0.375 0  0.55 0.375 0  0.575 0.375 0  0.6 0.375 0  0.625 0.375 0  0.65 0.375 0  0.675 0.375 0  0.7 0.375 0  0.725 0.375 0  0.75 0.375 0  0.775 0.375 0  0.8 0.375 0  0.825 0.375 0  0.85 0.375 0  0.875 0.375 0  0.9 0.375 0  0.925 0.375 0  0.95 0.375 0  0.975 0.375 0  1 0.375 0  0 0.4 0  0.025 0.4 0  0.05 0.4 0  0.075 0.4 0  0.1 0.4 0  0.125 0.4 0  0.15 0.4 0  0.175 0.4 0  0.2 0.4 0  0.225 0.4 0  0.25 0.4 0  0.275 0.4 0  0.3 0.4 0  0.325 0.4 0  0.35 0.4 0  0.375 0.4 0  0.4 0.4 0  0.425 0.4 0  0.45 0.4 0  0.475 0.4 0  0.5 0.4 0  0.525 0.4 0  0.55 0.4 0  0.575 0.4 0  0.6 0.4 0  0.625 0.4 0  0.65 0.4 0  0.675 0.4 0  0.7 0.4 0  0.725 0.4 0  0.75 0.4 0  0.775 0.4 0  0.8 0.4 0  0.825 0.4 0  0.85 0.4 0  0.875 0.4 0  0.9 0.4 0  0.925 0.4 0  0.95 0.4 0  0.975 0.4 0  1 0.4 0  0 0.425 0  0.025 0.425 0  0.05 0.425 0  0.075 0.425 0  0.1 0.425 0  0.125 0.425 0  0.15 0.425 0  0.175 0.425 0  0.2 0.425 0  0.225 0.425 0  0.25 0.425 0  0.275 0.425 0  0.3 0.425 0  0.325 0.425 0  0.35 0.425 0  0.375 0.425 0  0.4 0.425 0  0.425 0.425 0  0.45 0.425 0  0.475 0.425 0  0.5 0.425 0  0.525 0.425 0  0.55 0.425 0  0.575 0.425 0  0.6 0.425 0  0.625 0.425 0  0.65 0.425 0  0.675 0.425 0  0.7 0.425 0  0.725 0.425 0  0.75 0.425 0  0.775 0.425 0  0.8 0.425 0  0.825 0.425 0  0.85 0.425 0  0.875 0.425 0  0.9 0.425 0  0.925 0.425 0  0.95 0.425 0  0.975 0.425 0  1 0.425 0  0 0.45 0  0.02
[...]
<PointData  Scalars="ControlVisualisation"> 
<DataArray  type="Float64"  Name="ControlVisualisation"  format="ascii">4.6120682167454075e-01  4.4601927898395743e-01  4.4602491945917788e-01  4.4613911521726840e-01  4.4638213691338036e-01  4.4670778280683121e-01  4.4704934383313727e-01  4.4735230237927376e-01  4.4758657993813206e-01  4.4774397570940533e-01  4.4783019523076006e-01  4.4785736890241717e-01  4.4783907330987094e-01  4.4778771955116248e-01  4.4771353716021312e-01  4.4762443864041063e-01  4.4752628434771036e-01  4.4742327714797320e-01  4.4731835527610286e-01  4.4721353068234571e-01  4.4711015981717100e-01  4.4700915122041357e-01  4.4691112027015262e-01  4.4681650215138025e-01  4.4672563269966903e-01  4.4663880479810114e-01  4.4655630610857416e-01  4.4647844236173034e-01  4.4640554925614800e-01  4.4633799522723194e-01  4.4627617694225602e-01  4.4622050944438896e-01  4.4617141374832625e-01  4.4612930714154819e-01  4.4609460479540436e-01  4.4606774370059926e-01  4.4604920234301781e-01  4.4603930608321496e-01  4.4603718306902329e-01  4.4603879500190846e-01  4.7641025245440061e-01  4.4601691246452402e-01  4.0084026345989376e-01  4.0144244212400504e-01  4.0308876238365055e-01  4.0591406303636779e-01  4.0950315470128906e-01  4.1322043680206383e-01  4.1653211022618308e-01  4.1913248496384614e-01  4.2092762249056792e-01  4.2196361162316648e-01  4.2235577442293304e-01  4.2223937580521309e-01  4.2174217867053965e-01  4.2097253224615899e-01  4.2001654567796193e-01  4.1893974447279758e-01  4.1779045991619096e-01  4.1660351570869630e-01  4.1540356783874738e-01  4.1420787899094430e-01  4.1302851280712510e-01  4.1187401650916267e-01  4.1075068319173735e-01  4.0966348083490095e-01  4.0861672088027701e-01  4.0761452321046598e-01  4.0666112012771194e-01  4.0576103071423508e-01  4.0491912916783779e-01  4.0414062650972143e-01  4.0343098503298636e-01  4.0279579074231175e-01  4.0224062147018386e-01  4.0177096009587754e-01  4.0139216521826410e-01  4.0110914948340337e-01  4.0092434726340764e-01  4.0083086223952880e-01  4.0080427837465277e-01  4.4603879417197212e-01  4.4599696309740849e-01  4.0138647297443020e-01  4.0406302850976833e-01  4.0897330409951904e-01  4.1602660740139330e-01  4.2431533247313102e-01  4.3255888912662366e-01  4.3972841843672783e-01  4.4527015045187329e-01  4.4904556477737512e-01  4.5118031655772045e-01  4.5192705971489761e-01  4.5157271325851756e-01  4.5038699321435771e-01  4.4859974421910581e-01  4.4639529423406604e-01  4.4391546772260282e-01  4.4126614533144665e-01  4.3852459698288032e-01  4.3574627268869359e-01  4.3297055362695447e-01  4.3022538089853185e-01  4.2753086277829705e-01  4.2490202237024749e-01  4.2235084994489891e-01  4.1988780235441098e-01  4.1752286333403038e-01  4.1526625147940227e-01  4.1312884075483186e-01  4.1112234285641386e-01  4.0925929208531292e-01  4.0755287169110255e-01  4.0601662470755118e-01  4.0466409180526175e-01  4.0350837120336797e-01  4.0256134006024563e-01  4.0183142819883583e-01  4.0131718101767250e-01  4.0099532186475295e-01  4.0083079214669431e-01  4.4603716349862288e-01  4.4602741258136513e-01  4.0305124150533134e-01  4.0985270199330431e-01  4.1912886472930566e-01  4.2985875405531260e-01  4.4096795851377446e-01  4.5117059682851590e-01  4.5954044857482856e-01  4.6567086318530915e-01  4.6956589736862553e-01  4.7146863030967556e-01  4.7172342002425360e-01  4.7068843416189826e-01  4.6868907357852063e-01  4.6599864432832261e-01  4.6283499479268736e-01  4.5936530757240279e-01  4.5571420771734172e-01  4.5197248874412649e-01  4.4820513588077238e-01  4.4445813299240550e-01  4.4076396707691251e-01  4.3714594168153015e-01  4.3362148022199587e-01  4.3020460528539572e-01  4.2690775693333977e-01  4.2374308127450255e-01  4.2072328988115526e-01  4.1786216535017423e-01  4.1517477011079917e-01  4.1267740432896666e-01  4.1038735179643465e-01  4.0832244026526565e-01  4.0650039064933269e-01  4.0493773765181995e-01  4.0364750829580104e-01  4.0263339767431816e-01  4.0187648820622768e-01  4.0131951084571182e-01  4.0092455599775267e-01  4.4603920765854255e-01  4.4614645361068933e-01  4.0681786909452383e-01  4.2242411983405448e-01  4.3850915602583118e-01  4.5233297489796676e-01  4.6376992068702877e-01  4.7278023249182261e-01  4.7930969049037742e-01  4.8346000876526790e-01  4.8548626925968769e-01  4.8572756356003782e-01  4.8454345980658009e-01  4.8227188058206705e-01  4.7920675519813022e-01  4.7558990637430482e-01  4.7161191575588268e-01  4.6741783118988506e-01  4.6311484777291334e-01  4.5878020897031407e-01  4.5446840576340042e-01  4.5021729593353782e-01  4.4605307947907979e-01  4.4199422185560017e-01  4.3805447592515906e-01  4.3424516011698888e-01  4.3057683220267562e-01  4.2706047139187936e-01  4.2370825485792907e-01  4.2053399247289130e-01  4.1755326680873389e-01  4.1478331305917870e-01  4.1224265855066305e-01  4.0995050245383341e-01  4.0792568825786268e-01  4.0618473344060568e-01  4.0473732114635086e-01  4.0357531848521666e-01  4.0264921177851604e-01  4.0184450390872628e-01  4.0111187600898562e-01  4.4604900401993819e-01  4.4647646202180336e-01  4.1790640573251125e-01  4.5209745101961418e-01  4.7780842599212869e-01  4.9179983875238914e-01  4.9889661559887366e-01  5.0226098850046208e-01  5.0335040180445068e-01  5.0283104442257176e-01  5.0107119980485226e-01  4.9833628376915590e-01  4.9485124337537606e-01  4.9081433268846064e-01  4.8639663468107197e-01  4.8173994700085249e-01  4.7695680791474077e-01  4.7213287977288515e-01  4.6733082641585710e-01  4.6259476092462093e-01  4.5795460732486898e-01  4.5343001153184115e-01  4.4903365336924494e-01  4.4477394290718097e-01  4.4065715016708668e-01  4.3668904083108229e-01  4.3287609059800919e-01  4.2922633976343266e-01  4.2574993519365306e-01  4.2245939328092730e-01  4.1936960604806234e-01  4.1649760085406851e-01  4.1386204058224246e-01  4.1148238028299572e-01  4.0937737443634709e-01  4.0756198475166361e-01  4.0604002345587509e-01  4.0478610771973578e-01  4.0370704062139018e-01  4.0260433601293016e-01  4.0140362421915060e-01  4.4606763058958437e-01  4.5591916674562250e-01  4.6418388818656914e-01  5.2746677329202907e-01  5.5463962672029532e-01  5.5781447800352579e-01  5.5141018614782222e-01  5.4248747502183969e-01  5.3365527913004918e-01  5.2554834258230410e-01  5.1813556889623524e-01  5.1124437712722048e-01  5.0472497787312509e-01  4.9848171004158315e-01  4.9246364484384453e-01  4.8664797042004748e-01  4.8102641725142298e-01  4.7559650894998096e-01  4.7035681041338517e-01  4.6530487081640809e-01  4.6043676692090341e-01  4.5574748882998622e-01  4.5123169724280959e-01  4.4688458235133066e-01  4.4270268073887409e-01  4.3868457906872604e-01  4.3483147102234776e-01  4.3114755092163276e-01  4.2764023317266708e-01  4.2432018692962120e-01  4.2120117238345850e-01  4.1829965564693083e-01  4.1563414655805037e-01  4.1322409494339873e-01  4.1108784075328930e-01  4.0923813012416327e-01  4.0767109860995454e-01  4.0633889414914609e-01  4.0509083649065131e-01  4.0361660925151088e-01  4.0180357569385750e-01  4.4609515019253920e-01  5.8181365073319835e-01  6.4631309481219223e-01  6.8510824691055883e-01  6.7933738794117993e-01  6.5314116621397478e-01  6.2161721028174255e-01  5.9299705803860114e-01  5.6971427978251654e-01  5.5134243730713772e-01  5.3672109135451052e-01  5.2477662869893438e-01  5.1470997828689369e-01  5.0597342403821244e-01  4.9820328038473005e-01  4.9115942105456767e-01  4.8468147505918630e-01  4.7865973735753448e-01  4.7301669674998087e-01  4.6769562231196576e-01  4.6265365330197034e-01  4.5785769428873169e-01  4.5328202937699436e-01  4.4890697475460328e-01  4.4471814632491380e-01  4.4070607815317248e-01  4.3686602316490819e-01  4.3319782368022097e-01  4.2970577136134686e-01  4.2639839358864556e-01  4.2328811034203101e-01  4.2039069866135936e-01  4.1772445755316767e-01  4.1530880943293258e-01  4.1316158267641073e-01  4.1129280209717894e-01  4.0968906895151180e-01  4.0827444371798027e-01  4.0682632597847906e-01  4.0489439146964323e-01  4.0231523231478172e-01  4.4613164875134964e-01  8.1320041442564284e-01  8.9088079945539245e-01  8.5642009765181393e-01  8.1664370359472871e-01  7.6073433466414564e-01  7.0054660552738079e-01  6.4857833689306488e-01  6.0833637844598365e-01  5.7825469960695930e-01  5.5566955460644119e-01  5.3830518952164219e-01  5.2452979477565875e-01  5.1324309904897469e-01  5.0371637641123324e-01  4.9546570856416772e-01  4.8816538827653827e-01  4.8159188070112424e-01  4.7558826882917993e-01  4.7004180858304517e-01  4.6486974238183632e-01  4.6001030246560570e-01  4.5541698688876669e-01  4.5105491042343920e-01  4.4689847649628189e-01  4.4292988886682266e-01  4.3913818851245923e-01  4.3551860250119273e-01  4.3207205243886132e-01  4.2880470529386644e-01  4.2572746594787503e-01  4.2285530420375705e-01  4.2020624798327338e-01  4.1779965548303116e-01  4.1565269820405221e-01  4.1377203858043371e-01  4.1213258641142841e-01  4.1062419463771832e-01  4.0893728681835340e-01  4.0645269309739857e-01  4.0294388367341771e-01  4.4617743151327377e-01  8.9530218183798316e-01  9.5071539422412987e-01  9.3060299767533949e-01  9.0648804238115988e-01  8.4819123589565038e-01  7.7104970676122253e-01  6.9982348879875655e-01  6.4413054903741873e-01  6.0310173531749300e-01  5.7306811114089107e-01  5.5067434625445899e-01  5.3349187225916239e-01  5.1988693843194167e-01  5.0878130064787319e-01  4.9946055849553650e-01  4.9144453850906150e-01  4.8440430665351109e-01  4.7810982092273641e-01  4.7239686201481856e-01  4.6714597300454330e-01  4.6226891368366674e-01  4.5769986741199126e-01  4.5338969145240998e-01  4.4930213928618773e-01  4.4541137070802056e-01  4.4170030176499486e-01  4.3815949068611382e-01  4.3478634290271029e-01  4.3158446857073757e-01  4.2856304887141139e-01  4.2573605672945136e-01  4.2312109172919110e-01  4.2073729045396047e-01  4.1860086253347678e-01  4.1671422922905937e-01  4.1503807837260459e-01  4.1342137170982068e-01  4.1145169042638940e-01  4.0831097103707875e-01  4.0369703836033083e-01  4.4623300983866876e-01  9.0928987090773616e-01  9.6249138392255840e-01  9.5219164958833358e-01  9.4155796561526139e-01  8.9536044671320680e-01  8.1717488387664172e-01  7.3668042639698050e-01  6.7112126879430223e-01  6.2233927371894593e-01  5.8677866424406810e-01  5.6056587201889341e-01  5.4076633117812478e-01  5.2537342753405336e-01  5.1305332025167061e-01  5.0291861547019090e-01  4.9437111202796347e-01  4.8700016435923926e-01  4.8051827834542410e-01  4.7472025086745151e-01  4.6945699590893353e-01  4.6461857466544709e-01  4.6012306588853680e-01  4.5590919902265425e-01  4.5193144884147057e-01  4.4815676070309407e-01  4.4456236228668561e-01  4.4113429257046871e-01  4.3786638391580979e-01  4.3475949253265911e-01  4.3182079629804099e-01  4.2906295754688040e-01  4.2650282701748132e-01  4.2415896624731253e-01  4.2204608035134339e-01  4.2016115711235474e-01  4.1844767389273174e-01  4.1670630973830625e-01  4.1440482548920277e-01  4.1049448406885825e-01  4.0458466862521830e-01  4.4629909042716281e-01  8.8795248715689190e-01  9.5331826669214037e-01  9.4623918223912351e-01  9.3964372088401893e-01  9.0256165424371559e-01  8.3197245636175376e-01  7.5266398310016702e-01  6.8486668959527863e-01  6.3315568299815828e-01  5.9503663205840862e-01  5.6685262996466801e-01  5.4561387257339100e-01  5.2920383243889557e-01  5.1618679145911539e-01  5.0559424362435690e-01  4.9676640744624850e-01  4.8924654492410807e-01  4.8271271894659318e-01  4.7693389348644610e-01  4.7174147769813918e-01  4.6701066734865071e-01  4.6264806814654097e-01  4.5858340853465634e-01  4.5476395874461256e-01  4.5115076814225347e-01  4.4771613701726198e-01  4.4444192521236520e-01  4.4131841130833038e-01  4.3834347637841387e-01  4.3552190381391215e-01  4.3286454624742626e-01  4.3038694019635215e-01  4.2810642478433031e-01  4.2603531072926049e-01  4.2416352297276244e-01  4.2241372397389121e-01  4.2052997590182256e-01  4.1784177442581533e-01  4.1303570911063564e-01  4.0561966213125955e-01  4.4637659660921053e-01  7.7991288771972278e-01  9.1504150647611904e-01  9.0149223427915981e-01  9.0400198892380701e-01  8.7569459990595566e-01  8.1681724462406169e-01  7.4671474583649766e-01  6.8390130442981945e-01  6.3433119409680583e-01  5.9693986688888900e-01  5.6888324863710338e-01  5.4756071801878470e-01  5.3102711494404409e-01  5.1791593289471494e-01  5.0728181437119868e-01  4.9846803937046286e-01  4.9101276166370367e-01  4.8458617394159031e-01  4.7894898840314548e-01  4.7392494247300898e-01  4.6938243787718176e-01  4.6522215943513012e-01  4.6136865808353905e-01  4.5776460341169434e-01  4.5436686333107829e-01  4.5114385165359522e-01  4.4807375993690851e-01  4.4514339443473516e-01  4.4234739175766669e-01  4.3968759108686228e-01  4.3717227203705822e-01  4.3481473200068615e-01  4.3262999696677673e-01  4.3062656516065212e-01  4.2878501731925889e-01  4.2700271619908164e-01  4.2495749498415231e-01  4.2182026445078680e-01  4.1597623199385519e-01  4.0681852936405549e-01  4.4646671515747310e-01  5.3149607980580260e-01  7.4045049820400621e-01  8.0609308147428649e-01  8.3397546692146007e-01  8.2129421614704579e-01  7.7822676941415314e-01  7.2256595892636588e-01  6.6989697261624581e-01  6.2649174287261189e-01  5.9264527196832284e-01  5.6661781337331574e-01  5.4649138761483584e-01  5.3070502103166606e-01  5.1810217028595729e-01  5.0785137839234240e-01  4.9935761850770799e-01  4.9219231009994890e-01  4.8604331438789139e-01  4.8068038411235747e-01  4.7593148395417179e-01  4.7166652430794337e-01  4.6778612301737671e-01  4.6421379894275994e-01  4.6089053737303343e-01  4.5777102079567333e-01  4.5482104821963271e-01  4.5201581246617062e-01  4.4933879192841841e-01  4.4678105241346672e-01  4.4434074057454986e-01  4.4202244524295708e-01  4.3983578632901071e-01  4.3779171940445166e-01  4.3589269201938663e-01  4.3410664877655181e-01  4.3229986289632716e-01  4.3007257052925174e-01  4.2641442047730954e-01  4.1936932415208572e-01  4.0820239336979280e-01  4.4657096511802741e-01  4.5448679205070530e-01  5.3447525237405968e-01  6.8434663746991831e-01  7.4466814129235903e-01  7.5137589147662187e-01  7.2622926514475439e-01  6.8694138902088864e-01  6.4673314189012765e-01  6.1171367932440890e-01  5.8321901402058685e-01  5.6058100255690946e-01  5.4264289991867498e-01  5.2832166132124558e-01  5.1674850760583224e-01  5.0726353734172891e-01  4.9937446912017158e-01  4.9271487928762603e-01  4.8701066099776263e-01  4.8205507156845173e-01  4.7769068565610756e-01  4.7379646081047272e-01  4.7027847831803365e-01  4.6706330868958573e-01  4.6409326113543753e-01  4.6132300261149350e-01  4.5871719013611223e-01  4.5624886628327255e-01  4.5389843218306836e-01  4.5165303606307627e-01  4.4950618178895874e-01  4.4745721690427026e-01  4.4550994673532890e-01  4.4366851559268106e-01  4.4192580360983974e-01  4.4023222752105379e-01  4.3841518795758128e-01  4.3598348775279727e-01  4.3171988974131120e-01  4.2328343945397395e-01  4.0979831811959661e-01  4.4669128894847815e-01  4.5021165963935417e-01  4.7329248800854323e-01  5.9474064842220187e-01  6.6268414866788028e-01  6.8203765030500463e-01  6.7178815714659590e-01  6.4719395602456298e-01  6.1901145734840113e-01  5.9273053573016821e-01  5.7024167886560750e-01  5.5167145583907473e-01  5.3651539189882735e-01  5.2414390500022334e-01  5.1398430049777810e-01  5.0556602459494349e-01  4.9851771812585605e-01  4.9255075897465150e-01  4.8744168336626970e-01  4.8301714815315294e-01  4.7914203451109655e-01  4.7571034010226165e-01  4.7263830402040141e-01  4.6985924947518809e-01  4.6731973088539980e-01  4.6497667437740536e-01  4.6279528618144133e-01  4.6074756840960363e-01  4.5881132422689974e-01  4.5696954552541841e-01  4.5521002871807514e-01  4.5352488367449689e-01  4.5190908026142601e-01  4.5035580488120153e-01  4.4884288092104396e-01  4.4729574451626802e-01  4.4549199100730202e-01  4.4283154693818805e-01  4.3786097398042978e-01  4.2780697228892395e-01  4.1164106684541213e-01  4.4683016861101066e-01  4.4971472882175872e-01  4.5561536626257126e-01  5.4510465445963996e-01  6.0222381191029528e-01  6.2418808661366343e-01  6.2283611182190790e-01  6.0904508912026634e-01  5.9066478587452265e-01  5.7212450869483011e-01  5.5535769284054615e-01  5.4091637215088373e-01  5.2874039852408794e-01  5.1855177566397914e-01  5.1002955289141449e-01  5.0287651764267838e-01  4.9683918098451785e-01  4.9170911658876221e-01  4.8731783649258886e-01  4.8353011307912325e-01  4.8023760442632929e-01  4.7735336824585062e-01  4.7480734805135794e-01  4.7254273485389736e-01  4.7051306030468060e-01  4.6867988291287910e-01  4.6701095392863995e-01  4.6547877896302337e-01  4.6405951594360428e-01  4.6273215432764586e-01  4.6147787015118547e-01  4.6027924378169410e-01  4.5911840954889527e-01  4.5797156326101496e-01  4.5679300220475050e-01  4.5547156695843743e-01  4.5371894774834676e-01  4.5080323147210427e-01  4.4500078195104092e-01  4.3305480877284963e-01  4.1377541334596984e-01  4.4699076774336094e-01  4.4914856886707505e-01  4.4485810524145586e-01  5.1427959731776274e-01  5.5983544301667598e-01  5.7971893692506415e-01  5.8246730060407115e-01  5.7551895271021447e-01  5.6422011986506626e-01  5.5181567679370025e-01  5.3994035364559279e-01  5.2926223973056696e-01  5.1995395365134012e-01  5.1196315596785813e-01  5.0515123744902091e-01  4.9935810676161124e-01  4.9443034815218256e-01  4.9023185035886413e-01  4.8664643336721836e-01  4.8357699732489640e-01  4.8094333210673135e-01  4.7867956380956378e-01  4.7673165908091375e-01  4.7505514131920762e-01  4.7361304798321363e-01  4.7237410389467016e-01  4.7131106698501446e-01  4.7039920343226582e-01  4.6961485708733464e-01  4.6893407856515479e-01  4.6833123127268106e-01  4.6777727096601635e-01  4.6723672519662102e-01  4.6666046944007106e-01  4.6596641479550804e-01  4.6498848345035576e-01  4.6334772970860011e-01  4.6014838185605100e-01  4.5335621985518404e-01  4.3917752388286535e-01  4.1625913522774521e-01  4.4717709241436948e-01  4.4869439483167245e-01  4.3748919295217831e-01  4.9353838386596283e-01  5.2969295177363063e-01  5.4624818882540738e-01  5.5039139426006523e-01  5.4738713530513072e-01  5.4082732116759169e-01  5.3293858862363241e-01  5.2494656299768727e-01  5.1745322569491126e-01  5.1070726618286932e-01  5.0477256901024714e-01  4.9962317780205451e-01  4.9519400074522868e-01  4.9140714445278211e-01  4.8818501579519635e-01  4.8545640510135096e-01  4.8315886220015319e-01  4.8123915328634470e-01  4.7965275073170860e-01  4.7836285415592583e-01  4.7733918760816191e-01  4.7655667457886913e-01  4.7599400997063718e-01  4.7563209991515382e-01  4.7545231238517205e-01  4.7543446466911782e-01  4.7555445667137430e-01  4.7578139508757383e-01  4.7607383056432212e-01  4.7637401609704827e-01  4.7659691090966722e-01  4.7660533459817161e-01  4.7614949384536237e-01  4.7471989086095212e-01  4.7120859089336692e-01  4.6322099245939036e-01  4.4637469186697937e-01  4.1916688082635944e-01  4.4739414861070476e-01  4.4829353861961474e-01  4.3155215361361254e-01  4.7771957348241906e-01  5.0700649881079551e-01  5.2066397874387182e-01  5.2503409038172566e-01  5.2421112686451377e-01  5.2069835089653760e-01  5.1598683155956770e-01  5.1093165765793636e-01  5.0599896211874462e-01  5.0142474764059819e-01  4.9731357962515044e-01  4.9369674250801765e-01  4.9056641822600155e-01  4.8789562812679182e-01  4.8564975247833808e-01  4.8379306400628874e-01  4.8229227774455841e-01  4.8111831821984891e-01  4.8024701509710438e-01  4.7965914027492973e-01  4.7934000862566556e-01  4.7927873750618261e-01  4.7946716872545148e-01  4.7989838375736038e-01  4.8056467716482110e-01  4.8145478649091278e-01  4.8255009538630195e-01  4.8381938643918948e-01  4.8521142875919110e-01  4.8664381577404314e-01  4.8798425064993550e-01  4.8901507683888401e-01  4.8935757980771222e-01  4.8830551361706576e-01  4.8446154083025361e-01  4.7500377663052945e-01  4.5491640445658615e-01  4.2259511247409565e-01  4.4764797947126156e-01  4.4794537801484324e-01  4.2666755557784991e-01  4.6517912574350917e-01  4.8930076927317340e-01  5.0060472259058941e-01  5.0476653694714269e-01  5.0514692135592620e-01  5.0356947171636479e-01  5.010444394