<?xml version="1.0"?>
<VTKFile type="UnstructuredGrid"  version="0.1"  >
<UnstructuredGrid>
<Piece  NumberOfPoints="1681" NumberOfCells="3200">
<Points>
<DataArray  type="Float64"  NumberOfComponents="3"  format="ascii">0 0 0  0.025 0 0  0.05 0 0  0.075 0 0  0.1 0 0  0.125 0 0  0.15 0 0  0.175 0 0  0.2 0 0  0.225 0 0  0.25 0 0  0.275 0 0  0.3 0 0  0.325 0 0  0.35 0 0  0.375 0 0  0.4 0 0  0.425 0 0  0.45 0 0  0.475 0 0  0.5 0 0  0.525 0 0  0.55 0 0  0.575 0 0  0.6 0 0  0.625 0 0  0.65 0 0  0.675 0 0  0.7 0 0  0.725 0 0  0.75 0 0  0.775 0 0  0.8 0 0  0.825 0 0  0.85 0 0  0.875 0 0  0.9 0 0  0.925 0 0  0.95 0 0  0.975 0 0  1 0 0  0 0.025 0  0.025 0.025 0  0.05 0.025 0  0.075 0.025 0  0.1 0.025 0  0.125 0.025 0  0.15 0.025 0  0.175 0.025 0  0.2 0.025 0  0.225 0.025 0  0.25 0.025 0  0.275 0.025 0  0.3 0.025 0  0.325 0.025 0  0.35 0.025 0  0.375 0.025 0  0.4 0.025 0  0.425 0.025 0  0.45 0.025 0  0.475 0.025 0  0.5 0.025 0  0.525 0.025 0  0.55 0.025 0  0.575 0.025 0  0.6 0.025 0  0.625 0.025 0  0.65 0.025 0  0.675 0.025 0  0.7 0.025 0  0.725 0.025 0  0.75 0.025 0  0.775 0.025 0  0.8 0.025 0  0.825 0.025 0  0.85 0.025 0  0.875 0.025 0  0.9 0.025 0  0.925 0.025 0  0.95 0.025 0  0.975 0.025 0  1 0.025 0  0 0.05 0  0.025 0.05 0  0.05 0.05 0  0.075 0.05 0  0.1 0.05 0  0.125 0.05 0  0.15 0.05 0  0.175 0.05 0  0.2 0.05 0  0.225 0.05 0  0.25 0.05 0  0.275 0.05 0  0.3 0.05 0  0.325 0.05 0  0.35 0.05 0  0.375 0.05 0  0.4 0.05 0  0.425 0.05 0  0.45 0.05 0  0.475 0.05 0  0.5 0.05 0  0.525 0.05 0  0.55 0.05 0  0.575 0.05 0  0.6 0.05 0  0.625 0.05 0  0.65 0.05 0  0.675 0.05 0  0.7 0.05 0  0.725 0.05 0  0.75 0.05 0  0.775 0.05 0  0.8 0.05 0  0.825 0.05 0  0.85 0.05 0  0.875 0.05 0  0.9 0.05 0  0.925 0.05 0  0.95 0.05 0  0.975 0.05 0  1 0.05 0  0 0.075 0  0.025 0.075 0  0.05 0.075 0  0.075 0.075 0  0.1 0.075 0  0.125 0.075 0  0.15 0.075 0  0.175 0.075 0  0.2 0.075 0  0.225 0.075 0  0.25 0.075 0  0.275 0.075 0  0.3 0.075 0  0.325 0.075 0  0.35 0.075 0  0.375 0.075 0  0.4 0.075 0  0.425 0.075 0  0.45 0.075 0  0.475 0.075 0  0.5 0.075 0  0.525 0.075 0  0.55 0.075 0  0.575 0.075 0  0.6 0.075 0  0.625 0.075 0  0.65 0.075 0  0.675 0.075 0  0.7 0.075 0  0.725 0.075 0  0.75 0.075 0  0.775 0.075 0  0.8 0.075 0  0.825 0.075 0  0.85 0.075 0  0.875 0.075 0  0.9 0.075 0  0.925 0.075 0  0.95 0.075 0  0.975 0.075 0  1 0.075 0  0 0.1 0  0.025 0.1 0  0.05 0.1 0  0.075 0.1 0  0.1 0.1 0  0.125 0.1 0  0.15 0.1 0  0.175 0.1 0  0.2 0.1 0  0.225 0.1 0  0.25 0.1 0  0.275 0.1 0  0.3 0.1 0  0.325 0.1 0  0.35 0.1 0  0.375 0.1 0  0.4 0.1 0  0.425 0.1 0  0.45 0.1 0  0.475 0.1 0  0.5 0.1 0  0.525 0.1 0  0.55 0.1 0  0.575 0.1 0  0.6 0.1 0  0.625 0.1 0  0.65 0.1 0  0.675 0.1 0  0.7 0.1 0  0.725 0.1 0  0.75 0.1 0  0.775 0.1 0  0.8 0.1 0  0.825 0.1 0  0.85 0.1 0  0.875 0.1 0  0.9 0.1 0  0.925 0.1 0  0.95 0.1 0  0.975 0.1 0  1 0.1 0  0 0.125 0  0.025 0.125 0  0.05 0.125 0  0.075 0.125 0  0.1 0.125 0  0.125 0.125 0  0.15 0.125 0  0.175 0.125 0  0.2 0.125 0  0.225 0.125 0  0.25 0.125 0  0.275 0.125 0  0.3 0.125 0  0.325 0.125 0  0.35 0.125 0  0.375 0.125 0  0.4 0.125 0  0.425 0.125 0  0.45 0.125 0  0.475 0.125 0  0.5 0.125 0  0.525 0.125 0  0.55 0.125 0  0.575 0.125 0  0.6 0.125 0  0.625 0.125 0  0.65 0.125 0  0.675 0.125 0  0.7 0.125 0  0.725 0.125 0  0.75 0.125 0  0.775 0.125 0  0.8 0.125 0  0.825 0.125 0  0.85 0.125 0  0.875 0.125 0  0.9 0.125 0  0.925 0.125 0  0.95 0.125 0  0.975 0.125 0  1 0.125 0  0 0.15 0  0.025 0.15 0  0.05 0.15 0  0.075 0.15 0  0.1 0.15 0  0.125 0.15 0  0.15 0.15 0  0.175 0.15 0  0.2 0.15 0  0.225 0.15 0  0.25 0.15 0  0.275 0.15 0  0.3 0.15 0  0.325 0.15 0  0.35 0.15 0  0.375 0.15 0  0.4 0.15 0  0.425 0.15 0  0.45 0.15 0  0.475 0.15 0  0.5 0.15 0  0.525 0.15 0  0.55 0.15 0  0.575 0.15 0  0.6 0.15 0  0.625 0.15 0  0.65 0.15 0  0.675 0.15 0  0.7 0.15 0  0.725 0.15 0  0.75 0.15 0  0.775 0.15 0  0.8 0.15 0  0.825 0.15 0  0.85 0.15 0  0.875 0.15 0  0.9 0.15 0  0.925 0.15 0  0.95 0.15 0  0.975 0.15 0  1 0.15 0  0 0.175 0  0.025 0.175 0  0.05 0.175 0  0.075 0.175 0  0.1 0.175 0  0.125 0.175 0  0.15 0.175 0  0.175 0.175 0  0.2 0.175 0  0.225 0.175 0  0.25 0.175 0  0.275 0.175 0  0.3 0.175 0  0.325 0.175 0  0.35 0.175 0  0.375 0.175 0  0.4 0.175 0  0.425 0.175 0  0.45 0.175 0  0.475 0.175 0  0.5 0.175 0  0.525 0.175 0  0.55 0.175 0  0.575 0.175 0  0.6 0.175 0  0.625 0.175 0  0.65 0.175 0  0.675 0.175 0  0.7 0.175 0  0.725 0.175 0  0.75 0.175 0  0.775 0.175 0  0.8 0.175 0  0.825 0.175 0  0.85 0.175 0  0.875 0.175 0  0.9 0.175 0  0.925 0.175 0  0.95 0.175 0  0.975 0.175 0  1 0.175 0  0 0.2 0  0.025 0.2 0  0.05 0.2 0  0.075 0.2 0  0.1 0.2 0  0.125 0.2 0  0.15 0.2 0  0.175 0.2 0  0.2 0.2 0  0.225 0.2 0  0.25 0.2 0  0.275 0.2 0  0.3 0.2 0  0.325 0.2 0  0.35 0.2 0  0.375 0.2 0  0.4 0.2 0  0.425 0.2 0  0.45 0.2 0  0.475 0.2 0  0.5 0.2 0  0.525 0.2 0  0.55 0.2 0  0.575 0.2 0  0.6 0.2 0  0.625 0.2 0  0.65 0.2 0  0.675 0.2 0  0.7 0.2 0  0.725 0.2 0  0.75 0.2 0  0.775 0.2 0  0.8 0.2 0  0.825 0.2 0  0.85 0.2 0  0.875 0.2 0  0.9 0.2 0  0.925 0.2 0  0.95 0.2 0  0.975 0.2 0  1 0.2 0  0 0.225 0  0.025 0.225 0  0.05 0.225 0  0.075 0.225 0  0.1 0.225 0  0.125 0.225 0  0.15 0.225 0  0.175 0.225 0  0.2 0.225 0  0.225 0.225 0  0.25 0.225 0  0.275 0.225 0  0.3 0.225 0  0.325 0.225 0  0.35 0.225 0  0.375 0.225 0  0.4 0.225 0  0.425 0.225 0  0.45 0.225 0  0.475 0.225 0  0.5 0.225 0  0.525 0.225 0  0.55 0.225 0  0.575 0.225 0  0.6 0.225 0  0.625 0.225 0  0.65 0.225 0  0.675 0.225 0  0.7 0.225 0  0.725 0.225 0  0.75 0.225 0  0.775 0.225 0  0.8 0.225 0  0.825 0.225 0  0.85 0.225 0  0.875 0.225 0  0.9 0.225 0  0.925 0.225 0  0.95 0.225 0  0.975 0.225 0  1 0.225 0  0 0.25 0  0.025 0.25 0  0.05 0.25 0  0.075 0.25 0  0.1 0.25 0  0.125 0.25 0  0.15 0.25 0  0.175 0.25 0  0.2 0.25 0  0.225 0.25 0  0.25 0.25 0  0.275 0.25 0  0.3 0.25 0  0.325 0.25 0  0.35 0.25 0  0.375 0.25 0  0.4 0.25 0  0.425 0.25 0  0.45 0.25 0  0.475 0.25 0  0.5 0.25 0  0.525 0.25 0  0.55 0.25 0  0.575 0.25 0  0.6 0.25 0  0.625 0.25 0  0.65 0.25 0  0.675 0.25 0  0.7 0.25 0  0.725 0.25 0  0.75 0.25 0  0.775 0.25 0  0.8 0.25 0  0.825 0.25 0  0.85 0.25 0  0.875 0.25 0  0.9 0.25 0  0.925 0.25 0  0.95 0.25 0  0.975 0.25 0  1 0.25 0  0 0.275 0  0.025 0.275 0  0.05 0.275 0  0.075 0.275 0  0.1 0.275 0  0.125 0.275 0  0.15 0.275 0  0.175 0.275 0  0.2 0.275 0  0.225 0.275 0  0.25 0.275 0  0.275 0.275 0  0.3 0.275 0  0.325 0.275 0  0.35 0.275 0  0.375 0.275 0  0.4 0.275 0  0.425 0.275 0  0.45 0.275 0  0.475 0.275 0  0.5 0.275 0  0.525 0.275 0  0.55 0.275 0  0.575 0.275 0  0.6 0.275 0  0.625 0.275 0  0.65 0.275 0  0.675 0.275 0  0.7 0.275 0  0.725 0.275 0  0.75 0.275 0  0.775 0.275 0  0.8 0.275 0  0.825 0.275 0  0.85 0.275 0  0.875 0.275 0  0.9 0.275 0  0.925 0.275 0  0.95 0.275 0  0.975 0.275 0  1 0.275 0  0 0.3 0  0.025 0.3 0  0.05 0.3 0  0.075 0.3 0  0.1 0.3 0  0.125 0.3 0  0.15 0.3 0  0.175 0.3 0  0.2 0.3 0  0.225 0.3 0  0.25 0.3 0  0.275 0.3 0  0.3 0.3 0  0.325 0.3 0  0.35 0.3 0  0.375 0.3 0  0.4 0.3 0  0.425 0.3 0  0.45 0.3 0  0.475 0.3 0  0.5 0.3 0  0.525 0.3 0  0.55 0.3 0  0.575 0.3 0  0.6 0.3 0  0.625 0.3 0  0.65 0.3 0  0.675 0.3 0  0.7 0.3 0  0.725 0.3 0  0.75 0.3 0  0.775 0.3 0  0.8 0.3 0  0.825 0.3 0  0.85 0.3 0  0.875 0.3 0  0.9 0.3 0  0.925 0.3 0  0.95 0.3 0  0.975 0.3 0  1 0.3 0  0 0.325 0  0.025 0.325 0  0.05 0.325 0  0.075 0.325 0  0.1 0.325 0  0.125 0.325 0  0.15 0.325 0  0.175 0.325 0  0.2 0.325 0  0.225 0.325 0  0.25 0.325 0  0.275 0.325 0  0.3 0.325 0  0.325 0.325 0  0.35 0.325 0  0.375 0.325 0  0.4 0.325 0  0.425 0.325 0  0.45 0.325 0  0.475 0.325 0  0.5 0.325 0  0.525 0.325 0  0.55 0.325 0  0.575 0.325 0  0.6 0.325 0  0.625 0.325 0  0.65 0.325 0  0.675 0.325 0  0.7 0.325 0  0.725 0.325 0  0.75 0.325 0  0.775 0.325 0  0.8 0.325 0  0.825 0.325 0  0.85 0.325 0  0.875 0.325 0  0.9 0.325 0  0.925 0.325 0  0.95 0.325 0  0.975 0.325 0  1 0.325 0  0 0.35 0  0.025 0.35 0  0.05 0.35 0  0.075 0.35 0  0.1 0.35 0  0.125 0.35 0  0.15 0.35 0  0.175 0.35 0  0.2 0.35 0  0.225 0.35 0  0.25 0.35 0  0.275 0.35 0  0.3 0.35 0  0.325 0.35 0  0.35 0.35 0  0.375 0.35 0  0.4 0.35 0  0.425 0.35 0  0.45 0.35 0  0.475 0.35 0  0.5 0.35 0  0.525 0.35 0  0.55 0.35 0  0.575 0.35 0  0.6 0.35 0  0.625 0.35 0  0.65 0.35 0  0.675 0.35 0  0.7 0.35 0  0.725 0.35 0  0.75 0.35 0  0.775 0.35 0  0.8 0.35 0  0.825 0.35 0  0.85 0.35 0  0.875 0.35 0  0.9 0.35 0  0.925 0.35 0  0.95 0.35 0  0.975 0.35 0  1 0.35 0  0 0.375 0  0.025 0.375 0  0.05 0.375 0  0.075 0.375 0  0.1 0.375 0  0.125 0.375 0  0.15 0.375 0  0.175 0.375 0  0.2 0.375 0  0.225 0.375 0  0.25 0.375 0  0.275 0.375 0  0.3 0.375 0  0.325 0.375 0  0.35 0.375 0  0.375 0.375 0  0.4 0.375 0  0.425 0.375 0  0.45 0.375 0  0.475 0.375 0  0.5 0.375 0  0.525 0.375 0  0.55 0.375 0  0.575 0.375 0  0.6 0.375 0  0.625 0.375 0  0.65 0.375 0  0.675 0.375 0  0.7 0.375 0  0.725 0.375 0  0.75 0.375 0  0.775 0.375 0  0.8 0.375 0  0.825 0.375 0  0.85 0.375 0  0.875 0.375 0  0.9 0.375 0  0.925 0.375 0  0.95 0.375 0  0.975 0.375 0  1 0.375 0  0 0.4 0  0.025 0.4 0  0.05 0.4 0  0.075 0.4 0  0.1 0.4 0  0.125 0.4 0  0.15 0.4 0  0.175 0.4 0  0.2 0.4 0  0.225 0.4 0  0.25 0.4 0  0.275 0.4 0  0.3 0.4 0  0.325 0.4 0  0.35 0.4 0  0.375 0.4 0  0.4 0.4 0  0.425 0.4 0  0.45 0.4 0  0.475 0.4 0  0.5 0.4 0  0.525 0.4 0  0.55 0.4 0  0.575 0.4 0  0.6 0.4 0  0.625 0.4 0  0.65 0.4 0  0.675 0.4 0  0.7 0.4 0  0.725 0.4 0  0.75 0.4 0  0.775 0.4 0  0.8 0.4 0  0.825 0.4 0  0.85 0.4 0  0.875 0.4 0  0.9 0.4 0  0.925 0.4 0  0.95 0.4 0  0.975 0.4 0  1 0.4 0  0 0.425 0  0.025 0.425 0  0.05 0.425 0  0.075 0.425 0  0.1 0.425 0  0.125 0.425 0  0.15 0.425 0  0.175 0.425 0  0.2 0.425 0  0.225 0.425 0  0.25 0.425 0  0.275 0.425 0  0.3 0.425 0  0.325 0.425 0  0.35 0.425 0  0.375 0.425 0  0.4 0.425 0  0.425 0.425 0  0.45 0.425 0  0.475 0.425 0  0.5 0.425 0  0.525 0.425 0  0.55 0.425 0  0.575 0.425 0  0.6 0.425 0  0.625 0.425 0  0.65 0.425 0  0.675 0.425 0  0.7 0.425 0  0.725 0.425 0  0.75 0.425 0  0.775 0.425 0  0.8 0.425 0  0.825 0.425 0  0.85 0.425 0  0.875 0.425 0  0.9 0.425 0  0.925 0.425 0  0.95 0.425 0  0.975 0.425 0  1 0.425 0  0 0.45 0  0.02
[...]
<PointData  Scalars="ControlVisualisation"> 
<DataArray  type="Float64"  Name="ControlVisualisation"  format="ascii">3.7226702227564840e-01  3.5420899789974447e-01  3.5426881235377128e-01  3.5448964494679797e-01  3.5485700896530825e-01  3.5529701021556853e-01  3.5573084927336018e-01  3.5610199631294942e-01  3.5638282271797650e-01  3.5656870150697584e-01  3.5666872999055355e-01  3.5669792986527893e-01  3.5667225134602887e-01  3.5660615349911651e-01  3.5651150466964010e-01  3.5639758684170353e-01  3.5627141539118395e-01  3.5613809224880749e-01  3.5600128918922108e-01  3.5586357520486095e-01  3.5572676781162021e-01  3.5559212060805490e-01  3.5546052293341701e-01  3.5533262878652927e-01  3.5520898639720072e-01  3.5509006251764330e-01  3.5497631868389828e-01  3.5486824243194132e-01  3.5476635288345693e-01  3.5467122377573901e-01  3.5458346264891377e-01  3.5450369408538546e-01  3.5443256307506710e-01  3.5437070400917597e-01  3.5431871784903529e-01  3.5427718884937398e-01  3.5424672294537068e-01  3.5422794974431338e-01  3.5422072870158922e-01  3.5422114008463934e-01  3.9053845445515378e-01  3.5420644292719994e-01  3.0173033059608073e-01  3.0283201006581367e-01  3.0529335161859877e-01  3.0903149039735939e-01  3.1342407563875907e-01  3.1775447141672258e-01  3.2149520202905563e-01  3.2437649563926119e-01  3.2633965652356345e-01  3.2745694222057509e-01  3.2786173736670243e-01  3.2770191796705095e-01  3.2711540600448208e-01  3.2621869157681627e-01  3.2510516876124440e-01  3.2384669548662554e-01  3.2249709324665315e-01  3.2109584126740759e-01  3.1967144538021292e-01  3.1824436482394536e-01  3.1682930819548921e-01  3.1543693690453917e-01  3.1407541283609181e-01  3.1275125469841475e-01  3.1147031111160706e-01  3.1023808032883954e-01  3.0906013874891786e-01  3.0794249136924312e-01  3.0689154481135855e-01  3.0591413911670456e-01  3.0501740727860582e-01  3.0420861901982799e-01  3.0349506694644363e-01  3.0288377864143612e-01  3.0238142431000326e-01  3.0199418955484780e-01  3.0172677510531881e-01  3.0157642362610920e-01  3.0152066678464190e-01  3.5422113878538886e-01  3.5424414358631090e-01  3.0283584461615193e-01  3.0656001523205301e-01  3.1259091563074526e-01  3.2073693598386721e-01  3.2987022025940699e-01  3.3864305095291253e-01  3.4609131349043942e-01  3.5175339868988009e-01  3.5555929025624861e-01  3.5767224930505037e-01  3.5836173844906283e-01  3.5792033276356022e-01  3.5661955097215653e-01  3.5469011606418821e-01  3.5231809222943222e-01  3.4964779736460250e-01  3.4678809073810252e-01  3.4381946681224917e-01  3.4080051232218450e-01  3.3777364885317329e-01  3.3476949870567951e-01  3.3181046906746697e-01  3.2891370201501829e-01  3.2609314208151968e-01  3.2336097353736115e-01  3.2072886821978680e-01  3.1820863549858580e-01  3.1581285873365683e-01  3.1355502419228221e-01  3.1144955600230212e-01  3.0951162872888766e-01  3.0775674801302200e-01  3.0620051742523341e-01  3.0485803214017476e-01  3.0374315969112031e-01  3.0286698800990791e-01  3.0223215282525151e-01  3.0181712983907938e-01  3.0157644309534459e-01  3.5422070666918165e-01  3.5441354421717131e-01  3.0564864289446381e-01  3.1394607810838948e-01  3.2372260581010009e-01  3.3467517656085694e-01  3.4580790190548494e-01  3.5583313749672696e-01  3.6391085378760629e-01  3.6973096222175672e-01  3.7335688076134294e-01  3.7505218536380663e-01  3.7515820441413866e-01  3.7401977589461399e-01  3.7194680097056337e-01  3.6919919651327832e-01  3.6598463584899532e-01  3.6246341059556830e-01  3.5875588836109434e-01  3.5495065885816918e-01  3.5111180334643372e-01  3.4728520970436016e-01  3.4350400063965808e-01  3.3979197794948468e-01  3.3616738099983701e-01  3.3264512512157701e-01  3.2923844821040466e-01  3.2596020903987694e-01  3.2282379271022843e-01  3.1984378379381001e-01  3.1703602260922237e-01  3.1441758235058526e-01  3.1200669105064105e-01  3.0982214537104025e-01  3.0788279670731555e-01  3.0620672483889366e-01  3.0480948788513279e-01  3.0369945635007461e-01  3.0286367749972276e-01  3.0223622961171043e-01  3.0172787656044819e-01  3.5422787714287907e-01  3.5475296994964745e-01  3.1117161496890178e-01  3.2864591658618753e-01  3.4381559155225383e-01  3.5647765833764589e-01  3.6702189095792814e-01  3.7530479406364692e-01  3.8121984307866130e-01  3.8487806928045565e-01  3.8654512836378208e-01  3.8655297899559510e-01  3.8524146928234293e-01  3.8292400082619704e-01  3.7987053544777255e-01  3.7630267422441288e-01  3.7239531466260828e-01  3.6828192596672976e-01  3.6406178500232600e-01  3.5980707920842370e-01  3.5556906218307044e-01  3.5138385820530194e-01  3.4727692964184093e-01  3.4326633515843474e-01  3.3936572420545019e-01  3.3558665222080186e-01  3.3193980140037899e-01  3.2843630645152055e-01  3.2508835156016430e-01  3.2190993478618735e-01  3.1891670073883022e-01  3.1612594401643013e-01  3.1355639174635708e-01  3.1122760213724276e-01  3.0915922615152669e-01  3.0736964045706694e-01  3.0587292425325924e-01  3.0466981520452269e-01  3.0372067431544508e-01  3.0288735322887611e-01  3.0200068874471486e-01  3.5424673452353661e-01  3.5527621893752298e-01  3.2434293067625902e-01  3.5989864387098242e-01  3.8230228049237752e-01  3.9358535680105006e-01  3.9925258387652751e-01  4.0188701312768399e-01  4.0255641339244036e-01  4.0177935831422723e-01  3.9987833549787838e-01  3.9709886911797493e-01  3.9364861543414498e-01  3.8970774825815419e-01  3.8542931536983721e-01  3.8093925149343777e-01  3.7633721342982113e-01  3.7169918262198520e-01  3.6708088681738854e-01  3.6252197850856099e-01  3.5804936180718794e-01  3.5368121280148879e-01  3.4942946576144446e-01  3.4530208938398171e-01  3.4130532190088797e-01  3.3744496529126178e-01  3.3372763315125681e-01  3.3016127997426137e-01  3.2675590885367556e-01  3.2352397458605719e-01  3.2048019597489219e-01  3.1764141348048375e-01  3.1502625934288725e-01  3.1265445113722440e-01  3.1054585458854117e-01  3.0871854958068190e-01  3.0718393384804332e-01  3.0593194560564380e-01  3.0488601499118312e-01  3.0380598971996287e-01  3.0240365577842998e-01  3.5427783651700828e-01  3.6487194244257093e-01  3.6961860426152010e-01  4.3193878974877559e-01  4.5390669253748273e-01  4.5399087928365239e-01  4.4668791678534259e-01  4.3792301542162404e-01  4.2954575816301260e-01  4.2189763806968517e-01  4.1488549284318643e-01  4.0834698921161594e-01  4.0215225982883646e-01  3.9621900968770490e-01  3.9050176281333387e-01  3.8497819388904769e-01  3.7963849253134280e-01  3.7447799411418775e-01  3.6949353144315583e-01  3.6468150009404876e-01  3.6003727605931418e-01  3.5555590683455196e-01  3.5123225692799842e-01  3.4706187188757343e-01  3.4304171926043420e-01  3.3917062533971243e-01  3.3545010355182564e-01  3.3188441558492898e-01  3.2848077485102944e-01  3.2524977886957712e-01  3.2220494626087498e-01  3.1936251942837951e-01  3.1674094900933353e-01  3.1436012076877662e-01  3.1224015877677669e-01  3.1039872116755884e-01  3.0884391906140041e-01  3.0755180366717999e-01  3.0639797574329825e-01  3.0500969437257902e-01  3.0294088237748878e-01  3.5432122602857857e-01  4.8191547155293402e-01  5.3538098220308405e-01  5.7567863168629452e-01  5.6792136001675175e-01  5.4051012107205731e-01  5.0971629070928914e-01  4.8295359204521671e-01  4.6161529252617323e-01  4.4484192148082935e-01  4.3143278377809463e-01  4.2040066319452030e-01  4.1104116269162821e-01  4.0287685448313576e-01  3.9558923347076880e-01  3.8896556204268451e-01  3.8286173992748118e-01  3.7717760736093248e-01  3.7184180137226958e-01  3.6680160033097853e-01  3.6201704152714914e-01  3.5745730759683558e-01  3.5309844381385413e-01  3.4892224368464125e-01  3.4491533714788059e-01  3.4106901376525223e-01  3.3737909358398244e-01  3.3384568648284041e-01  3.3047293666795807e-01  3.2726927433022202e-01  3.2424685779020918e-01  3.2142124994773441e-01  3.1881071367540914e-01  3.1643532460110169e-01  3.1431558734028159e-01  3.1246865289752696e-01  3.1089853604149015e-01  3.0956401239908860e-01  3.0828131273974485e-01  3.0651362612623456e-01  3.0361780930130516e-01  3.5437721981967468e-01  7.0759757439358162e-01  7.8854971540010310e-01  7.4565199868626875e-01  7.0057635180054412e-01  6.4110279241579293e-01  5.8153327602881522e-01  5.3275608623902027e-01  4.9603865000340858e-01  4.6885208711788129e-01  4.4840808274614696e-01  4.3258531941541450e-01  4.1993458593492966e-01  4.0949603186519201e-01  4.0063479071423452e-01  3.9292633419917594e-01  3.8608241658812786e-01  3.7990241243845385e-01  3.7424473478531595e-01  3.6900658993686419e-01  3.6411199629556179e-01  3.5950403092557620e-01  3.5513967677896813e-01  3.5098676566551246e-01  3.4702143751158215e-01  3.4322706555592852e-01  3.3959366665153728e-01  3.3611681128787924e-01  3.3279748058404618e-01  3.2964165084314218e-01  3.2665989185724892e-01  3.2386695121902320e-01  3.2128083148374625e-01  3.1892187568091601e-01  3.1681082409018818e-01  3.1496420018578919e-01  3.1338089309008282e-01  3.1199849256318424e-01  3.1056152570841500e-01  3.0833638654962575e-01  3.0444224749980014e-01  3.5444642221814626e-01  7.9871977742891709e-01  8.8201824215680957e-01  8.4265154210572135e-01  8.0261915662113070e-01  7.2982962799327089e-01  6.4833619038151324e-01  5.7961765786068720e-01  5.2829785594937950e-01  4.9119110602523636e-01  4.6411171282962277e-01  4.4382686796326337e-01  4.2814658567496738e-01  4.1563658220127847e-01  4.0535695873875610e-01  3.9668248890985508e-01  3.8919001947862397e-01  3.8258662786085573e-01  3.7666566669973123e-01  3.7127871694465930e-01  3.6631648707882458e-01  3.6169821774374483e-01  3.5736312079009513e-01  3.5326590580935896e-01  3.4937276996028110e-01  3.4565953938683819e-01  3.4211039231232698e-01  3.3871630398853592e-01  3.3547489390916557e-01  3.3238953149335115e-01  3.2946898881637621e-01  3.2672688446050036e-01  3.2418086925242606e-01  3.2185139130022855e-01  3.1975926015777001e-01  3.1792006536451040e-01  3.1632623895701972e-01  3.1488971350447476e-01  3.1326995038905647e-01  3.1050197989194828e-01  3.0542468670782996e-01  3.5452968780810595e-01  8.1728471540627379e-01  9.0520756118943912e-01  8.7951425907206116e-01  8.5283611443176677e-01  7.8458886221736079e-01  6.9545750985611343e-01  6.1480451219553500e-01  5.5327814194180347e-01  5.0881082501382746e-01  4.7667375800577660e-01  4.5294202632736363e-01  4.3490619081461374e-01  4.2078312650587224e-01  4.0940309517287343e-01  3.9998783911010433e-01  3.9200958042653095e-01  3.8510332995387453e-01  3.7901117850775673e-01  3.7354777858199534e-01  3.6857723326574343e-01  3.6399898445661522e-01  3.5973745436740545e-01  3.5573613116722724e-01  3.5195251002179545e-01  3.4835558620135554e-01  3.4492419470765617e-01  3.4164485655897670e-01  3.3851159825757798e-01  3.3552504811674716e-01  3.3269196192049932e-01  3.3002453459896519e-01  3.2753959824017059e-01  3.2525743146560571e-01  3.2319870911026122e-01  3.2137731720468121e-01  3.1977753308970708e-01  3.1828062045862987e-01  3.1644634197912558e-01  3.1304126122955811e-01  3.0657866580465459e-01  3.5462812897011875e-01  7.9220775496448281e-01  8.8774682788000459e-01  8.7077018659608385e-01  8.5569393298253837e-01  7.9858849690298850e-01  7.1416870609572125e-01  6.3192859404526758e-01  5.6693751132592640e-01  5.1921468772679935e-01  4.8452681093580136e-01  4.5891629820757923e-01  4.3953411491223487e-01  4.2446583757820272e-01  4.1243853281223170e-01  4.0259720982687286e-01  3.9435716145234895e-01  3.8731133284041885e-01  3.8117053069706147e-01  3.7572560796018040e-01  3.7082295102328677e-01  3.6634826648593005e-01  3.6221539200356156e-01  3.5835927325657740e-01  3.5473079738537255e-01  3.5129325258178246e-01  3.4802069897972254e-01  3.4489578172002550e-01  3.4190883077793560e-01  3.3905754917281145e-01  3.3634623207733971e-01  3.3378516602060926e-01  3.3138995222375889e-01  3.2918001622007353e-01  3.2717530741576428e-01  3.2538702574336303e-01  3.2378906210511127e-01  3.2222600535308327e-01  3.2014159860913927e-01  3.1599369306507380e-01  3.0792154492264356e-01  3.5474317262873029e-01  6.7733373180182099e-01  8.2462242261981666e-01  8.1196455562540715e-01  8.1712421675132285e-01  7.7536160350521932e-01  7.0366293470940378e-01  6.2908917521881880e-01  5.6761561468777055e-01  5.2118427633352837e-01  4.8680820668512292e-01  4.6113388398644906e-01  4.4158128322213580e-01  4.2634884947566043e-01  4.1420592066087392e-01  4.0430896302943958e-01  3.9607150299241833e-01  3.8907948381650664e-01  3.8303520456277712e-01  3.7772134780797523e-01  3.7297680858582655e-01  3.6868079200149151e-01  3.6474158350934910e-01  3.6108908086904712e-01  3.5766987928187444e-01  3.5444328928285196e-01  3.5137947465326469e-01  3.4845761826451044e-01  3.4566467591328720e-01  3.4299516280767395e-01  3.4045032876960868e-01  3.3803781377027320e-01  3.3577113629600286e-01  3.3366798256618546e-01  3.3174648097806747e-01  3.3001367250972236e-01  3.2842996479926756e-01  3.2679595870029876e-01  3.2442085514745861e-01  3.1940970527370977e-01  3.0947547366632427e-01  3.5487665991246276e-01  4.3901156012478704e-01  6.4293116103160675e-01  7.1526338873390360e-01  7.4602331451892190e-01  7.2355353795156285e-01  6.6959854657775320e-01  6.0899814832390564e-01  5.5639322924174617e-01  5.1506103353375765e-01  4.8354523129095001e-01  4.5949680227508510e-01  4.4090660152145666e-01  4.2628296325622278e-01  4.1456244615648297e-01  4.0499205760150375e-01  3.9703440035244819e-01  3.9030178443163582e-01  3.8451052228179172e-01  3.7945030664848289e-01  3.7496321021673551e-01  3.7092935501876262e-01  3.6725673090551758e-01  3.6387404892856878e-01  3.6072624580015566e-01  3.5777048768640318e-01  3.5497452620329606e-01  3.5231459845262236e-01  3.4977446969323100e-01  3.4734519088156218e-01  3.4502434902870810e-01  3.4281601505856402e-01  3.4073029972898033e-01  3.3878156921850544e-01  3.3698433859804688e-01  3.3533912148281347e-01  3.3378865264141777e-01  3.3208039033110232e-01  3.2936767054657046e-01  3.2335386099255770e-01  3.1126877462510222e-01  3.5503093102431216e-01  3.6559988665738868e-01  4.5469355820858792e-01  6.0612992816977695e-01  6.5976427493160705e-01  6.5638252437936284e-01  6.2172513048135014e-01  5.7752986106705206e-01  5.3645090110166638e-01  5.0248988504025549e-01  4.7556338085734923e-01  4.5440014698162179e-01  4.3767802806669365e-01  4.2431565523717368e-01  4.1349189782329165e-01  4.0459726736922175e-01  3.9718047159881270e-01  3.9090604918338911e-01  3.8552265157232563e-01  3.8083991218173430e-01  3.7671247032846655e-01  3.7302822135933794e-01  3.6969995631038338e-01  3.6665898081528542e-01  3.6385130254807707e-01  3.6123412059014337e-01  3.5877414508590105e-01  3.5644564309953630e-01  3.5422951050941953e-01  3.5211304459364529e-01  3.5008945584204876e-01  3.4815799777703144e-01  3.4632340918360932e-01  3.4459446894299367e-01  3.4297911447437257e-01  3.4146756438359732e-01  3.3997883798592726e-01  3.3819555756876718e-01  3.3508989824824170e-01  3.2790915481178529e-01  3.1333774126016473e-01  3.5520898523339212e-01  3.6081763374769255e-01  3.9390032029468103e-01  5.2128659153886825e-01  5.8001264164194755e-01  5.8914586377485778e-01  5.7058702890066371e-01  5.4140937876351303e-01  5.1180050282680378e-01  4.8578376904927234e-01  4.6417890756431518e-01  4.4658515788354120e-01  4.3230390890752896e-01  4.2066089817289082e-01  4.1109333839732976e-01  4.0315522329179054e-01  3.9649940245271514e-01  3.9085773921217964e-01  3.8602288439595955e-01  3.8183364119467561e-01  3.7816437524584934e-01  3.7491625070252760e-01  3.7201108616878670e-01  3.6938642400337374e-01  3.6699217440928361e-01  3.6478767047439337e-01  3.6274024822576600e-01  3.6082340092529919e-01  3.5901573370457573e-01  3.5730095502704989e-01  3.5566698078311670e-01  3.5410660750175682e-01  3.5261666692640575e-01  3.5119700772047624e-01  3.4984440843349418e-01  3.4853269463888159e-01  3.4714819746493419e-01  3.4529296822671884e-01  3.4172794910023874e-01  3.3318294698672235e-01  3.1572915395471934e-01  3.5541468590222686e-01  3.5996667485390232e-01  3.7351937735703933e-01  4.6959770666738720e-01  5.1901042735817449e-01  5.3207224668612851e-01  5.2381510665671216e-01  5.0601815832089558e-01  4.8601209829674163e-01  4.6722381274501185e-01  4.5082112891278003e-01  4.3693673015418105e-01  4.2532510553113967e-01  4.1564198618043607e-01  4.0755187715217933e-01  4.0076239104769984e-01  3.9503057811512821e-01  3.9015897845804742e-01  3.8598901896119131e-01  3.8239345510996559e-01  3.7927065231608686e-01  3.7653895972187551e-01  3.7413254954827729e-01  3.7199810959211038e-01  3.7009219270119148e-01  3.6837857422674264e-01  3.6682723870884704e-01  3.6541233680855423e-01  3.6411157463960769e-01  3.6290528592552107e-01  3.6177587096605884e-01  3.6070777269696835e-01  3.5968684351900015e-01  3.5869898556776258e-01  3.5772303788075305e-01  3.5670675225572701e-01  3.5549002671329022e-01  3.5357240948503799e-01  3.4946615226603894e-01  3.3931526149099883e-01  3.1850351288731199e-01  3.5565299557055452e-01  3.5902426198954618e-01  3.5974413872818245e-01  4.3504443252680097e-01  4.7456366726157306e-01  4.8730022151295166e-01  4.8459228508420460e-01  4.7435226986369111e-01  4.6149222652182281e-01  4.4858211398038383e-01  4.3673165921213447e-01  4.2629992362860908e-01  4.1730525109863736e-01  4.0962720627000609e-01  4.0310113739329106e-01  3.9755999062469266e-01  3.9285131871707990e-01  3.8884297243576782e-01  3.8542331119119067e-01  3.8249975564315930e-01  3.7999611053846882e-01  3.7785003680986023e-01  3.7601050785873374e-01  3.7443576266639833e-01  3.7309122688074120e-01  3.7194782015687744e-01  3.7098045457591888e-01  3.7016651174830023e-01  3.6948449610713135e-01  3.6891279367687302e-01  3.6842877468422713e-01  3.6800731579090395e-01  3.6761991854410475e-01  3.6723201266562489e-01  3.6679412446794857e-01  3.6621297937233166e-01  3.6526003718637140e-01  3.6330034379810944e-01  3.5855001691848903e-01  3.4649032431936971e-01  3.2173969454999213e-01  3.5593032241206030e-01  3.5826992784855693e-01  3.4987700806227862e-01  4.1083506953167043e-01  4.4210761105937013e-01  4.5301144684347500e-01  4.5295173482713252e-01  4.4735748684798582e-01  4.3944299166047396e-01  4.3097156005317100e-01  4.2281661241969348e-01  4.1536502629571631e-01  4.0874930719664454e-01  4.0297499631522304e-01  3.9798847706891993e-01  3.9371246235152407e-01  3.9006483820482729e-01  3.8696724255366377e-01  3.8434934680778998e-01  3.8215045185586682e-01  3.8031917802014997e-01  3.7881293390906884e-01  3.7759688025997379e-01  3.7664256491885251e-01  3.7592671944893252e-01  3.7542995043748628e-01  3.7513524853600611e-01  3.7502655591507306e-01  3.7508662347517857e-01  3.7529496171644533e-01  3.7562590421151820e-01  3.7604535018069152e-01  3.7650771233272085e-01  3.7695032601638423e-01  3.7728114816794123e-01  3.7734236709641716e-01  3.7680143549333578e-01  3.7483877474296651e-01  3.6931108761249126e-01  3.5495334397846662e-01  3.2554079964042998e-01  3.5625491181751417e-01  3.5763014688789424e-01  3.4192255189047155e-01  3.9209551508584300e-01  4.1733076979483846e-01  4.2648966883019146e-01  4.2763589216237741e-01  4.2482277612141850e-01  4.2020472193019759e-01  4.1493693900281214e-01  4.0963692042486666e-01  4.0462637617532743e-01  4.0005983424023167e-01  3.9599755357217981e-01  3.9244700639854935e-01  3.8938769344017610e-01  3.8678635231595559e-01  3.8460525698797765e-01  3.8280721660999362e-01  3.8135883054879383e-01  3.8023136510970179e-01  3.7940127108524457e-01  3.7885013475098200e-01  3.7856437415308652e-01  3.7853421499607237e-01  3.7875289343537089e-01  3.7921549863617049e-01  3.7991695851644053e-01  3.8084965189077891e-01  3.8200010421465097e-01  3.8334501829331497e-01  3.8484524311974105e-01  3.8643826409038917e-01  3.8802686411383269e-01  3.8945808326461601e-01  3.9047382112615825e-01  3.9057892081036438e-01  3.8868816766831388e-01  3.8220766184075383e-01  3.6503598688293365e-01  3.3004228162751342e-01  3.5663725274828334e-01  3.5709031471164349e-01  3.3542194933832309e-01  3.7719700452904492e-01  3.9789628921182918e-01  4.0556449481372170e-01  4.0723252691746825e-01  4.0609648667427461e-01  4.0364851778995936e-01  4.006394578