<?xml version="1.0"?>
<VTKFile type="UnstructuredGrid"  version="0.1"  >
<UnstructuredGrid>
<Piece  NumberOfPoints="1681" NumberOfCells="3200">
<Points>
<DataArray  type="Float64"  NumberOfComponents="3"  format="ascii">0 0 0  0.025 0 0  0.05 0 0  0.075 0 0  0.1 0 0  0.125 0 0  0.15 0 0  0.175 0 0  0.2 0 0  0.225 0 0  0.25 0 0  0.275 0 0  0.3 0 0  0.325 0 0  0.35 0 0  0.375 0 0  0.4 0 0  0.425 0 0  0.45 0 0  0.475 0 0  0.5 0 0  0.525 0 0  0.55 0 0  0.575 0 0  0.6 0 0  0.625 0 0  0.65 0 0  0.675 0 0  0.7 0 0  0.725 0 0  0.75 0 0  0.775 0 0  0.8 0 0  0.825 0 0  0.85 0 0  0.875 0 0  0.9 0 0  0.925 0 0  0.95 0 0  0.975 0 0  1 0 0  0 0.025 0  0.025 0.025 0  0.05 0.025 0  0.075 0.025 0  0.1 0.025 0  0.125 0.025 0  0.15 0.025 0  0.175 0.025 0  0.2 0.025 0  0.225 0.025 0  0.25 0.025 0  0.275 0.025 0  0.3 0.025 0  0.325 0.025 0  0.35 0.025 0  0.375 0.025 0  0.4 0.025 0  0.425 0.025 0  0.45 0.025 0  0.475 0.025 0  0.5 0.025 0  0.525 0.025 0  0.55 0.025 0  0.575 0.025 0  0.6 0.025 0  0.625 0.025 0  0.65 0.025 0  0.675 0.025 0  0.7 0.025 0  0.725 0.025 0  0.75 0.025 0  0.775 0.025 0  0.8 0.025 0  0.825 0.025 0  0.85 0.025 0  0.875 0.025 0  0.9 0.025 0  0.925 0.025 0  0.95 0.025 0  0.975 0.025 0  1 0.025 0  0 0.05 0  0.025 0.05 0  0.05 0.05 0  0.075 0.05 0  0.1 0.05 0  0.125 0.05 0  0.15 0.05 0  0.175 0.05 0  0.2 0.05 0  0.225 0.05 0  0.25 0.05 0  0.275 0.05 0  0.3 0.05 0  0.325 0.05 0  0.35 0.05 0  0.375 0.05 0  0.4 0.05 0  0.425 0.05 0  0.45 0.05 0  0.475 0.05 0  0.5 0.05 0  0.525 0.05 0  0.55 0.05 0  0.575 0.05 0  0.6 0.05 0  0.625 0.05 0  0.65 0.05 0  0.675 0.05 0  0.7 0.05 0  0.725 0.05 0  0.75 0.05 0  0.775 0.05 0  0.8 0.05 0  0.825 0.05 0  0.85 0.05 0  0.875 0.05 0  0.9 0.05 0  0.925 0.05 0  0.95 0.05 0  0.975 0.05 0  1 0.05 0  0 0.075 0  0.025 0.075 0  0.05 0.075 0  0.075 0.075 0  0.1 0.075 0  0.125 0.075 0  0.15 0.075 0  0.175 0.075 0  0.2 0.075 0  0.225 0.075 0  0.25 0.075 0  0.275 0.075 0  0.3 0.075 0  0.325 0.075 0  0.35 0.075 0  0.375 0.075 0  0.4 0.075 0  0.425 0.075 0  0.45 0.075 0  0.475 0.075 0  0.5 0.075 0  0.525 0.075 0  0.55 0.075 0  0.575 0.075 0  0.6 0.075 0  0.625 0.075 0  0.65 0.075 0  0.675 0.075 0  0.7 0.075 0  0.725 0.075 0  0.75 0.075 0  0.775 0.075 0  0.8 0.075 0  0.825 0.075 0  0.85 0.075 0  0.875 0.075 0  0.9 0.075 0  0.925 0.075 0  0.95 0.075 0  0.975 0.075 0  1 0.075 0  0 0.1 0  0.025 0.1 0  0.05 0.1 0  0.075 0.1 0  0.1 0.1 0  0.125 0.1 0  0.15 0.1 0  0.175 0.1 0  0.2 0.1 0  0.225 0.1 0  0.25 0.1 0  0.275 0.1 0  0.3 0.1 0  0.325 0.1 0  0.35 0.1 0  0.375 0.1 0  0.4 0.1 0  0.425 0.1 0  0.45 0.1 0  0.475 0.1 0  0.5 0.1 0  0.525 0.1 0  0.55 0.1 0  0.575 0.1 0  0.6 0.1 0  0.625 0.1 0  0.65 0.1 0  0.675 0.1 0  0.7 0.1 0  0.725 0.1 0  0.75 0.1 0  0.775 0.1 0  0.8 0.1 0  0.825 0.1 0  0.85 0.1 0  0.875 0.1 0  0.9 0.1 0  0.925 0.1 0  0.95 0.1 0  0.975 0.1 0  1 0.1 0  0 0.125 0  0.025 0.125 0  0.05 0.125 0  0.075 0.125 0  0.1 0.125 0  0.125 0.125 0  0.15 0.125 0  0.175 0.125 0  0.2 0.125 0  0.225 0.125 0  0.25 0.125 0  0.275 0.125 0  0.3 0.125 0  0.325 0.125 0  0.35 0.125 0  0.375 0.125 0  0.4 0.125 0  0.425 0.125 0  0.45 0.125 0  0.475 0.125 0  0.5 0.125 0  0.525 0.125 0  0.55 0.125 0  0.575 0.125 0  0.6 0.125 0  0.625 0.125 0  0.65 0.125 0  0.675 0.125 0  0.7 0.125 0  0.725 0.125 0  0.75 0.125 0  0.775 0.125 0  0.8 0.125 0  0.825 0.125 0  0.85 0.125 0  0.875 0.125 0  0.9 0.125 0  0.925 0.125 0  0.95 0.125 0  0.975 0.125 0  1 0.125 0  0 0.15 0  0.025 0.15 0  0.05 0.15 0  0.075 0.15 0  0.1 0.15 0  0.125 0.15 0  0.15 0.15 0  0.175 0.15 0  0.2 0.15 0  0.225 0.15 0  0.25 0.15 0  0.275 0.15 0  0.3 0.15 0  0.325 0.15 0  0.35 0.15 0  0.375 0.15 0  0.4 0.15 0  0.425 0.15 0  0.45 0.15 0  0.475 0.15 0  0.5 0.15 0  0.525 0.15 0  0.55 0.15 0  0.575 0.15 0  0.6 0.15 0  0.625 0.15 0  0.65 0.15 0  0.675 0.15 0  0.7 0.15 0  0.725 0.15 0  0.75 0.15 0  0.775 0.15 0  0.8 0.15 0  0.825 0.15 0  0.85 0.15 0  0.875 0.15 0  0.9 0.15 0  0.925 0.15 0  0.95 0.15 0  0.975 0.15 0  1 0.15 0  0 0.175 0  0.025 0.175 0  0.05 0.175 0  0.075 0.175 0  0.1 0.175 0  0.125 0.175 0  0.15 0.175 0  0.175 0.175 0  0.2 0.175 0  0.225 0.175 0  0.25 0.175 0  0.275 0.175 0  0.3 0.175 0  0.325 0.175 0  0.35 0.175 0  0.375 0.175 0  0.4 0.175 0  0.425 0.175 0  0.45 0.175 0  0.475 0.175 0  0.5 0.175 0  0.525 0.175 0  0.55 0.175 0  0.575 0.175 0  0.6 0.175 0  0.625 0.175 0  0.65 0.175 0  0.675 0.175 0  0.7 0.175 0  0.725 0.175 0  0.75 0.175 0  0.775 0.175 0  0.8 0.175 0  0.825 0.175 0  0.85 0.175 0  0.875 0.175 0  0.9 0.175 0  0.925 0.175 0  0.95 0.175 0  0.975 0.175 0  1 0.175 0  0 0.2 0  0.025 0.2 0  0.05 0.2 0  0.075 0.2 0  0.1 0.2 0  0.125 0.2 0  0.15 0.2 0  0.175 0.2 0  0.2 0.2 0  0.225 0.2 0  0.25 0.2 0  0.275 0.2 0  0.3 0.2 0  0.325 0.2 0  0.35 0.2 0  0.375 0.2 0  0.4 0.2 0  0.425 0.2 0  0.45 0.2 0  0.475 0.2 0  0.5 0.2 0  0.525 0.2 0  0.55 0.2 0  0.575 0.2 0  0.6 0.2 0  0.625 0.2 0  0.65 0.2 0  0.675 0.2 0  0.7 0.2 0  0.725 0.2 0  0.75 0.2 0  0.775 0.2 0  0.8 0.2 0  0.825 0.2 0  0.85 0.2 0  0.875 0.2 0  0.9 0.2 0  0.925 0.2 0  0.95 0.2 0  0.975 0.2 0  1 0.2 0  0 0.225 0  0.025 0.225 0  0.05 0.225 0  0.075 0.225 0  0.1 0.225 0  0.125 0.225 0  0.15 0.225 0  0.175 0.225 0  0.2 0.225 0  0.225 0.225 0  0.25 0.225 0  0.275 0.225 0  0.3 0.225 0  0.325 0.225 0  0.35 0.225 0  0.375 0.225 0  0.4 0.225 0  0.425 0.225 0  0.45 0.225 0  0.475 0.225 0  0.5 0.225 0  0.525 0.225 0  0.55 0.225 0  0.575 0.225 0  0.6 0.225 0  0.625 0.225 0  0.65 0.225 0  0.675 0.225 0  0.7 0.225 0  0.725 0.225 0  0.75 0.225 0  0.775 0.225 0  0.8 0.225 0  0.825 0.225 0  0.85 0.225 0  0.875 0.225 0  0.9 0.225 0  0.925 0.225 0  0.95 0.225 0  0.975 0.225 0  1 0.225 0  0 0.25 0  0.025 0.25 0  0.05 0.25 0  0.075 0.25 0  0.1 0.25 0  0.125 0.25 0  0.15 0.25 0  0.175 0.25 0  0.2 0.25 0  0.225 0.25 0  0.25 0.25 0  0.275 0.25 0  0.3 0.25 0  0.325 0.25 0  0.35 0.25 0  0.375 0.25 0  0.4 0.25 0  0.425 0.25 0  0.45 0.25 0  0.475 0.25 0  0.5 0.25 0  0.525 0.25 0  0.55 0.25 0  0.575 0.25 0  0.6 0.25 0  0.625 0.25 0  0.65 0.25 0  0.675 0.25 0  0.7 0.25 0  0.725 0.25 0  0.75 0.25 0  0.775 0.25 0  0.8 0.25 0  0.825 0.25 0  0.85 0.25 0  0.875 0.25 0  0.9 0.25 0  0.925 0.25 0  0.95 0.25 0  0.975 0.25 0  1 0.25 0  0 0.275 0  0.025 0.275 0  0.05 0.275 0  0.075 0.275 0  0.1 0.275 0  0.125 0.275 0  0.15 0.275 0  0.175 0.275 0  0.2 0.275 0  0.225 0.275 0  0.25 0.275 0  0.275 0.275 0  0.3 0.275 0  0.325 0.275 0  0.35 0.275 0  0.375 0.275 0  0.4 0.275 0  0.425 0.275 0  0.45 0.275 0  0.475 0.275 0  0.5 0.275 0  0.525 0.275 0  0.55 0.275 0  0.575 0.275 0  0.6 0.275 0  0.625 0.275 0  0.65 0.275 0  0.675 0.275 0  0.7 0.275 0  0.725 0.275 0  0.75 0.275 0  0.775 0.275 0  0.8 0.275 0  0.825 0.275 0  0.85 0.275 0  0.875 0.275 0  0.9 0.275 0  0.925 0.275 0  0.95 0.275 0  0.975 0.275 0  1 0.275 0  0 0.3 0  0.025 0.3 0  0.05 0.3 0  0.075 0.3 0  0.1 0.3 0  0.125 0.3 0  0.15 0.3 0  0.175 0.3 0  0.2 0.3 0  0.225 0.3 0  0.25 0.3 0  0.275 0.3 0  0.3 0.3 0  0.325 0.3 0  0.35 0.3 0  0.375 0.3 0  0.4 0.3 0  0.425 0.3 0  0.45 0.3 0  0.475 0.3 0  0.5 0.3 0  0.525 0.3 0  0.55 0.3 0  0.575 0.3 0  0.6 0.3 0  0.625 0.3 0  0.65 0.3 0  0.675 0.3 0  0.7 0.3 0  0.725 0.3 0  0.75 0.3 0  0.775 0.3 0  0.8 0.3 0  0.825 0.3 0  0.85 0.3 0  0.875 0.3 0  0.9 0.3 0  0.925 0.3 0  0.95 0.3 0  0.975 0.3 0  1 0.3 0  0 0.325 0  0.025 0.325 0  0.05 0.325 0  0.075 0.325 0  0.1 0.325 0  0.125 0.325 0  0.15 0.325 0  0.175 0.325 0  0.2 0.325 0  0.225 0.325 0  0.25 0.325 0  0.275 0.325 0  0.3 0.325 0  0.325 0.325 0  0.35 0.325 0  0.375 0.325 0  0.4 0.325 0  0.425 0.325 0  0.45 0.325 0  0.475 0.325 0  0.5 0.325 0  0.525 0.325 0  0.55 0.325 0  0.575 0.325 0  0.6 0.325 0  0.625 0.325 0  0.65 0.325 0  0.675 0.325 0  0.7 0.325 0  0.725 0.325 0  0.75 0.325 0  0.775 0.325 0  0.8 0.325 0  0.825 0.325 0  0.85 0.325 0  0.875 0.325 0  0.9 0.325 0  0.925 0.325 0  0.95 0.325 0  0.975 0.325 0  1 0.325 0  0 0.35 0  0.025 0.35 0  0.05 0.35 0  0.075 0.35 0  0.1 0.35 0  0.125 0.35 0  0.15 0.35 0  0.175 0.35 0  0.2 0.35 0  0.225 0.35 0  0.25 0.35 0  0.275 0.35 0  0.3 0.35 0  0.325 0.35 0  0.35 0.35 0  0.375 0.35 0  0.4 0.35 0  0.425 0.35 0  0.45 0.35 0  0.475 0.35 0  0.5 0.35 0  0.525 0.35 0  0.55 0.35 0  0.575 0.35 0  0.6 0.35 0  0.625 0.35 0  0.65 0.35 0  0.675 0.35 0  0.7 0.35 0  0.725 0.35 0  0.75 0.35 0  0.775 0.35 0  0.8 0.35 0  0.825 0.35 0  0.85 0.35 0  0.875 0.35 0  0.9 0.35 0  0.925 0.35 0  0.95 0.35 0  0.975 0.35 0  1 0.35 0  0 0.375 0  0.025 0.375 0  0.05 0.375 0  0.075 0.375 0  0.1 0.375 0  0.125 0.375 0  0.15 0.375 0  0.175 0.375 0  0.2 0.375 0  0.225 0.375 0  0.25 0.375 0  0.275 0.375 0  0.3 0.375 0  0.325 0.375 0  0.35 0.375 0  0.375 0.375 0  0.4 0.375 0  0.425 0.375 0  0.45 0.375 0  0.475 0.375 0  0.5 0.375 0  0.525 0.375 0  0.55 0.375 0  0.575 0.375 0  0.6 0.375 0  0.625 0.375 0  0.65 0.375 0  0.675 0.375 0  0.7 0.375 0  0.725 0.375 0  0.75 0.375 0  0.775 0.375 0  0.8 0.375 0  0.825 0.375 0  0.85 0.375 0  0.875 0.375 0  0.9 0.375 0  0.925 0.375 0  0.95 0.375 0  0.975 0.375 0  1 0.375 0  0 0.4 0  0.025 0.4 0  0.05 0.4 0  0.075 0.4 0  0.1 0.4 0  0.125 0.4 0  0.15 0.4 0  0.175 0.4 0  0.2 0.4 0  0.225 0.4 0  0.25 0.4 0  0.275 0.4 0  0.3 0.4 0  0.325 0.4 0  0.35 0.4 0  0.375 0.4 0  0.4 0.4 0  0.425 0.4 0  0.45 0.4 0  0.475 0.4 0  0.5 0.4 0  0.525 0.4 0  0.55 0.4 0  0.575 0.4 0  0.6 0.4 0  0.625 0.4 0  0.65 0.4 0  0.675 0.4 0  0.7 0.4 0  0.725 0.4 0  0.75 0.4 0  0.775 0.4 0  0.8 0.4 0  0.825 0.4 0  0.85 0.4 0  0.875 0.4 0  0.9 0.4 0  0.925 0.4 0  0.95 0.4 0  0.975 0.4 0  1 0.4 0  0 0.425 0  0.025 0.425 0  0.05 0.425 0  0.075 0.425 0  0.1 0.425 0  0.125 0.425 0  0.15 0.425 0  0.175 0.425 0  0.2 0.425 0  0.225 0.425 0  0.25 0.425 0  0.275 0.425 0  0.3 0.425 0  0.325 0.425 0  0.35 0.425 0  0.375 0.425 0  0.4 0.425 0  0.425 0.425 0  0.45 0.425 0  0.475 0.425 0  0.5 0.425 0  0.525 0.425 0  0.55 0.425 0  0.575 0.425 0  0.6 0.425 0  0.625 0.425 0  0.65 0.425 0  0.675 0.425 0  0.7 0.425 0  0.725 0.425 0  0.75 0.425 0  0.775 0.425 0  0.8 0.425 0  0.825 0.425 0  0.85 0.425 0  0.875 0.425 0  0.9 0.425 0  0.925 0.425 0  0.95 0.425 0  0.975 0.425 0  1 0.425 0  0 0.45 0  0.02
[...]
<PointData  Scalars="ControlVisualisation"> 
<DataArray  type="Float64"  Name="ControlVisualisation"  format="ascii">3.7227252255057269e-01  3.5421914169527957e-01  3.5427942782841321e-01  3.5450062147128819e-01  3.5486820690819421e-01  3.5530843215129304e-01  3.5574264670013866e-01  3.5611396715635879e-01  3.5639495387191222e-01  3.5658087061764626e-01  3.5668084764878477e-01  3.5671021426184013e-01  3.5668415656395785e-01  3.5661858330520424e-01  3.5652437981247576e-01  3.5641037354864918e-01  3.5628429678862988e-01  3.5615086161556353e-01  3.5601404045887347e-01  3.5587604673383927e-01  3.5573921792999841e-01  3.5560469844710230e-01  3.5547325162200372e-01  3.5534521653429835e-01  3.5522159418274041e-01  3.5510262897009315e-01  3.5498873044758722e-01  3.5488049263268995e-01  3.5477833092350675e-01  3.5468304152633851e-01  3.5459526390250101e-01  3.5451532818304371e-01  3.5444393968971977e-01  3.5438184790928651e-01  3.5432962836891752e-01  3.5428797272782880e-01  3.5425731640978397e-01  3.5423835345861371e-01  3.5423094748412054e-01  3.5423116791312603e-01  3.9053939711860919e-01  3.5421626327048666e-01  3.0175319522202004e-01  3.0285446627132456e-01  3.0531475772038508e-01  3.0905196100115467e-01  3.1344289426444627e-01  3.1777308643141955e-01  3.2151297372979115e-01  3.2439395263646331e-01  3.2635644896727417e-01  3.2747272035622782e-01  3.2787876505097852e-01  3.2771708767812879e-01  3.2713298767076671e-01  3.2623734316729586e-01  3.2512464224052373e-01  3.2386645622198640e-01  3.2251707250416156e-01  3.2111640932491264e-01  3.1969237463348255e-01  3.1826567005191597e-01  3.1685179782274286e-01  3.1545975802135018e-01  3.1409888200630115e-01  3.1277416431195032e-01  3.1149380545924499e-01  3.1026261859698728e-01  3.0908439748078331e-01  3.0796630912975931e-01  3.0691502004518428e-01  3.0593795243726113e-01  3.0504177198613508e-01  3.0423252391810196e-01  3.0351842163448889e-01  3.0290679128489362e-01  3.0240456494983697e-01  3.0201748959957669e-01  3.0174999297009264e-01  3.0159952033580095e-01  3.0154364779646275e-01  3.5423116379691411e-01  3.5425348300011517e-01  3.0285870922938962e-01  3.0658177953509574e-01  3.1260995789986201e-01  3.2075288330175378e-01  3.2988306282177593e-01  3.3865445644729086e-01  3.4609972679885742e-01  3.5175911565986689e-01  3.5556583010053705e-01  3.5767667113979873e-01  3.5836661089451621e-01  3.5792497990664207e-01  3.5662680606528951e-01  3.5469772107251729e-01  3.5232606858797988e-01  3.4965724551564997e-01  3.4679921957499976e-01  3.4383236136933054e-01  3.4081381012455991e-01  3.3778816066684697e-01  3.3478610541914955e-01  3.3182765537439685e-01  3.2893036957175686e-01  3.2611014140423161e-01  3.2337862159397784e-01  3.2074814876347507e-01  3.1822862687609232e-01  3.1583318444471187e-01  3.1357540383879484e-01  3.1147023738370622e-01  3.0953348690693833e-01  3.0777843254623277e-01  3.0622170869351800e-01  3.0487939058006647e-01  3.0376486840304134e-01  3.0288921741080271e-01  3.0225474401712116e-01  3.0183994144144582e-01  3.0159945993304432e-01  3.5423091137321588e-01  3.5442237761649115e-01  3.0567123179510713e-01  3.1396732029880364e-01  3.2374023826283338e-01  3.3468957280213563e-01  3.4581873030888283e-01  3.5584204368509459e-01  3.6391748144775060e-01  3.6973344936461844e-01  3.7335957040178036e-01  3.7505416006479531e-01  3.7515975388919642e-01  3.7402264037488525e-01  3.7194983034177082e-01  3.6920320706357518e-01  3.6599010762135381e-01  3.6247107071432649e-01  3.5876507628534487e-01  3.5496157951952001e-01  3.5112411110006053e-01  3.4729681677281177e-01  3.4351865111486590e-01  3.3980732877325620e-01  3.3618182276552711e-01  3.3265971880881734e-01  3.2925470785802557e-01  3.2597840829638497e-01  3.2284232323024709e-01  3.1986299910144916e-01  3.1705652550424379e-01  3.1443834813835575e-01  3.1202807500992119e-01  3.0984377621230330e-01  3.0790396847179824e-01  3.0622778923841198e-01  3.0483104863756877e-01  3.0372145558045244e-01  3.0288633856740715e-01  3.0225889181349075e-01  3.0175090523724946e-01  3.5423824259406728e-01  3.5476127730552243e-01  3.1119329938564477e-01  3.2866589501744142e-01  3.4383030609809989e-01  3.5648780005396713e-01  3.6702942048568721e-01  3.7530892463645887e-01  3.8122323170111749e-01  3.8487810848431225e-01  3.8654606940585151e-01  3.8655288107773439e-01  3.8523992270848917e-01  3.8292384720561762e-01  3.7987097321850322e-01  3.7630364706005631e-01  3.7239914222986287e-01  3.6828799978946108e-01  3.6406895913828596e-01  3.5981670026135359e-01  3.5557921977688184e-01  3.5139335454068504e-01  3.4728846033901095e-01  3.4327994027884129e-01  3.3937894708333605e-01  3.3560082560354326e-01  3.3195533632229796e-01  3.2845405716462561e-01  3.2510600366780779e-01  3.2192846930680891e-01  3.1893667741597215e-01  3.1614656665134866e-01  3.1357740984838994e-01  3.1124866639480370e-01  3.0918043920835325e-01  3.0739070669676227e-01  3.0589388976446025e-01  3.0469135126714780e-01  3.0374269473466642e-01  3.0290977826781512e-01  3.0202386980266127e-01  3.5425729522220373e-01  3.5528423319159447e-01  3.2436331597050960e-01  3.5991432942266727e-01  3.8231027201080842e-01  3.9358795590949858e-01  3.9925245351304262e-01  4.0188354861684394e-01  4.0255229606189824e-01  4.0177435016069996e-01  3.9987555637087197e-01  3.9709730522187259e-01  3.9364434899300482e-01  3.8970370338425125e-01  3.8542598728056032e-01  3.8093745012431851e-01  3.7633717930487859e-01  3.7170179272478870e-01  3.6708484364885696e-01  3.6252924320502572e-01  3.5805613381554557e-01  3.5368810922600347e-01  3.4943898959874442e-01  3.4531291984761159e-01  3.4131699303316759e-01  3.3745683003219484e-01  3.3374194556199438e-01  3.3017787881979549e-01  3.2677264367930736e-01  3.2354124136613049e-01  3.2049853707296266e-01  3.1766048382172440e-01  3.1504607192645828e-01  3.1267450588704276e-01  3.1056613163892233e-01  3.0873928981570031e-01  3.0720441935384568e-01  3.0595272511672650e-01  3.0490718001141837e-01  3.0382786208190232e-01  3.0242720077375779e-01  3.5428866021727490e-01  3.6487696638355854e-01  3.6963188821099430e-01  4.3194172928799218e-01  4.5389891087748513e-01  4.5397777721694377e-01  4.4667532181094111e-01  4.3791046063324113e-01  4.2953414175239829e-01  4.2188741897694965e-01  4.1487827424721024e-01  4.0834296053267849e-01  4.0214703674959762e-01  3.9621392238038483e-01  3.9049837470102666e-01  3.8497549419056226e-01  3.7963792963706050e-01  3.7447879175835141e-01  3.6949641980159553e-01  3.6468751031683466e-01  3.6004295698183014e-01  3.5556220350657453e-01  3.5123961834067791e-01  3.4707031476591915e-01  3.4305237214165152e-01  3.3918173351939723e-01  3.3546313457829974e-01  3.3190060650495218e-01  3.2849711544118076e-01  3.2526652409616530e-01  3.2222231366879833e-01  3.1938064296054858e-01  3.1675966922016924e-01  3.1437878626539562e-01  3.1225928026029059e-01  3.1041835571821885e-01  3.0886400581976631e-01  3.0757238513652646e-01  3.0641846383324661e-01  3.0503136595239128e-01  3.0296442631422765e-01  3.5433226491681180e-01  4.8189794037375150e-01  5.3535667226726469e-01  5.7565153063820385e-01  5.6788755330857610e-01  5.4047555542925396e-01  5.0968620260122777e-01  4.8292857382850279e-01  4.6159388035004301e-01  4.4482411246014741e-01  4.3142075710791461e-01  4.2039143698628678e-01  4.1103366752733578e-01  4.0287209310073274e-01  3.9558568249231274e-01  3.8896256457158368e-01  3.8286151415166447e-01  3.7717819697163024e-01  3.7184427176059676e-01  3.6680575221950573e-01  3.6202187926462009e-01  3.5746291979187733e-01  3.5310441123594394e-01  3.4893024760414426e-01  3.4492488577057789e-01  3.4107885607381033e-01  3.3739025058234373e-01  3.3386028407158674e-01  3.3048834656285170e-01  3.2728506544331221e-01  3.2426276448625480e-01  3.2143806684003939e-01  3.1882848856832863e-01  3.1645251799591589e-01  3.1433371212212535e-01  3.1248725508080233e-01  3.1091729657534062e-01  3.0958280549809603e-01  3.0830049980145213e-01  3.0653479661521271e-01  3.0364142602879457e-01  3.5438845696340004e-01  7.0755114372925454e-01  7.8849940103271188e-01  7.4559892097931657e-01  7.0051342934896421e-01  6.4104120895562478e-01  5.8148347040684745e-01  5.3271777957795874e-01  4.9600773740717891e-01  4.6882556449269613e-01  4.4838936650935346e-01  4.3257115985075334e-01  4.1992206711346519e-01  4.0948675285752301e-01  4.0062917111401269e-01  3.9292078062712266e-01  3.8608314304746988e-01  3.7990182775847403e-01  3.7424494229954042e-01  3.6900923029147203e-01  3.6411655071319171e-01  3.5950975350358516e-01  3.5514488781990416e-01  3.5099453640900402e-01  3.4703150174071529e-01  3.4323604356066756e-01  3.3960378316227141e-01  3.3612858819649383e-01  3.3281098164991713e-01  3.2965629361068449e-01  3.2667436666036503e-01  3.2388226685946064e-01  3.2129682569505036e-01  3.1893844152744516e-01  3.1682831260255112e-01  3.1498170260273517e-01  3.1339832238465848e-01  3.1201554531919112e-01  3.1057971462626727e-01  3.0835713584062396e-01  3.0446573719926007e-01  3.5445783543447240e-01  7.9867605996189417e-01  8.8198890948976327e-01  8.4259960392755973e-01  8.0254156064679449e-01  7.2974819696313209e-01  6.4827005239455771e-01  5.7956803259374468e-01  5.2825976228734806e-01  4.9115782418355169e-01  4.6408556506875220e-01  4.4380773953364200e-01  4.2813167389841744e-01  4.1562335495132036e-01  4.0534943897777392e-01  3.9667599012527643e-01  3.8918725281182165e-01  3.8258548807211490e-01  3.7666349239662555e-01  3.7128203737567916e-01  3.6632077271630209e-01  3.6170443799395929e-01  3.5736839813591187e-01  3.5327345674170813e-01  3.4938201974105931e-01  3.4566774184962151e-01  3.4212041776652014e-01  3.3872682864582221e-01  3.3548723708106426e-01  3.3240344651546921e-01  3.2948336527391431e-01  3.2674122591942123e-01  3.2419570745073467e-01  3.2186791191072067e-01  3.1977560167420965e-01  3.1793592992274439e-01  3.1634302679100612e-01  3.1490669177747577e-01  3.1328815683862160e-01  3.1052205507020364e-01  3.0544811892170221e-01  3.5454131498428337e-01  8.1724359424742399e-01  9.0518268990882922e-01  8.7946065585077415e-01  8.5275186132783976e-01  7.8449659903594515e-01  6.9538145898099823e-01  6.1474484710793553e-01  5.5323114088270997e-01  5.0877225008243421e-01  4.7664305204763457e-01  4.5291765931240346e-01  4.3488844091833390e-01  4.2076800838815487e-01  4.0939258265534573e-01  3.9998218511979666e-01  3.9200514601113007e-01  3.8510165069713320e-01  3.7901075602844070e-01  3.7355111153340886e-01  3.6858101232589402e-01  3.6400428241802901e-01  3.5974147539215068e-01  3.5574257305295504e-01  3.5196047472500863e-01  3.4836155402535346e-01  3.4493323600154230e-01  3.4165566329084612e-01  3.3852351832317062e-01  3.3553719544092453e-01  3.3270476304594315e-01  3.3003841122048178e-01  3.2755376891000698e-01  3.2527319109996589e-01  3.2321478531489772e-01  3.2139213721027537e-01  3.1979248413323458e-01  3.1829581199217749e-01  3.1646306197020679e-01  3.1306005240118218e-01  3.0660153276787611e-01  3.5463993856070419e-01  7.9216169907911216e-01  8.8772029001505359e-01  8.7071471208073170e-01  8.5560857954077851e-01  7.9849364931388700e-01  7.1408464573053665e-01  6.3186101543579987e-01  5.6688436334940651e-01  5.1917427162634688e-01  4.8449427666813949e-01  4.5889006050176784e-01  4.3951431853147421e-01  4.2445150297365419e-01  4.1242820548473191e-01  4.0259266463136911e-01  3.9435326882442251e-01  3.8730930408333103e-01  3.8117179902049264e-01  3.7572890686628002e-01  3.7082618336037304e-01  3.6635254207649903e-01  3.6221959236513868e-01  3.5836447973289665e-01  3.5473880581141132e-01  3.5129983715918300e-01  3.4802873396745210e-01  3.4490747704464453e-01  3.4192121030048112e-01  3.3906960690744853e-01  3.3635852314458492e-01  3.3379778657916015e-01  3.3140356006822919e-01  3.2919492165191028e-01  3.2719085821993155e-01  3.2540020418302384e-01  3.2380114011002337e-01  3.2223833125829243e-01  3.2015591803533655e-01  3.1601068340909788e-01  3.0794380278230693e-01  3.5475499599619814e-01  6.7729004405549709e-01  8.2457883041502800e-01  8.1190563273886673e-01  8.1703941182283368e-01  7.7526930792947135e-01  7.0357994908015242e-01  6.2901978375654344e-01  5.6756113162316935e-01  5.2114324563745495e-01  4.8677631331841054e-01  4.6110927249146294e-01  4.4156194045264507e-01  4.2633555424968256e-01  4.1419435202066157e-01  4.0430053964234114e-01  3.9606385391081506e-01  3.8907574846357973e-01  3.8303542298165250e-01  3.7772461206135305e-01  3.7297983499706433e-01  3.6868377361562787e-01  3.6474534348598830e-01  3.6109295932723046e-01  3.5767680999544232e-01  3.5445081769890396e-01  3.5138729122284623e-01  3.4846764997096430e-01  3.4567460020921165e-01  3.4300584816966290e-01  3.4046195388746270e-01  3.3804885717482058e-01  3.3578248711480796e-01  3.3367970049225548e-01  3.3175890129168323e-01  3.3002447755318010e-01  3.2843978252230482e-01  3.2680645982264966e-01  3.2443330283204330e-01  3.1942507116775243e-01  3.0949722201998370e-01  3.5488863931012027e-01  4.3900831302634979e-01  6.4289151068091743e-01  7.1520586930080177e-01  7.4594549878178873e-01  7.2346949239787117e-01  6.6952406131246023e-01  6.0893560863527618e-01  5.5634086068751065e-01  5.1501917576975198e-01  4.8351374889523102e-01  4.5947323323354300e-01  4.4088785772366063e-01  4.2626907343952952e-01  4.1454874944744280e-01  4.0498127001189882e-01  3.9702586261581363e-01  3.9029764723579891e-01  3.8451091348489608e-01  3.7945357782419908e-01  3.7496631030073380e-01  3.7093194583912598e-01  3.6726050724861309e-01  3.6387756563530083e-01  3.6073232133284006e-01  3.5777566405023459e-01  3.5498041264147923e-01  3.5232280359652657e-01  3.4978284689127470e-01  3.4735499004762332e-01  3.4503476504777258e-01  3.4282568629318888e-01  3.4074104419470369e-01  3.3879217365570430e-01  3.3699514787656243e-01  3.3534870824042445e-01  3.3379736889423184e-01  3.3208924996288619e-01  3.2937871494862719e-01  3.2336835158331256e-01  3.1129041678488317e-01  3.5504311855686416e-01  3.6561237541662417e-01  4.5468527541292214e-01  6.0608473374591587e-01  6.5970076450125448e-01  6.5631424764039192e-01  6.2166006307174970e-01  5.7747269545874336e-01  5.3640139295778588e-01  5.0244798929320889e-01  4.7553104915391781e-01  4.5437631537869400e-01  4.3766021569605823e-01  4.2429996621782551e-01  4.1347549840859626e-01  4.0458415564215600e-01  3.9717136761474775e-01  3.9090088762707242e-01  3.8552303153414191e-01  3.8084280297636014e-01  3.7671481315939392e-01  3.7302902689822909e-01  3.6970255904696497e-01  3.6666194709930244e-01  3.6385527776310078e-01  3.6123581851560305e-01  3.5877583971301913e-01  3.5645010769314917e-01  3.5423552322972640e-01  3.5212033177557645e-01  3.5009590752542008e-01  3.4816446060763073e-01  3.4633136388577779e-01  3.4460278572064584e-01  3.4298709783100334e-01  3.4147465756885537e-01  3.3998512842480016e-01  3.3820292560635362e-01  3.3509899100270291e-01  3.2792299433535677e-01  3.1335906287341181e-01  3.5522130414695796e-01  3.6083093421396961e-01  3.9390415057565648e-01  5.2125297558682504e-01  5.7996144545261230e-01  5.8908868127305136e-01  5.7053161956875831e-01  5.4136114271572255e-01  5.1175868313068873e-01  4.8574523091410743e-01  4.6414749024185342e-01  4.4656193264715394e-01  4.3228733028747696e-01  4.2064648646093661e-01  4.1107731208762632e-01  4.0314219278604457e-01  3.9648865574678355e-01  3.9085007925350174e-01  3.8602061355320766e-01  3.8183333171742112e-01  3.7816514823509989e-01  3.7491679003393752e-01  3.7201212579904691e-01  3.6938744379518401e-01  3.6699423672268039e-01  3.6478711705832090e-01  3.6273886572266961e-01  3.6082463557537536e-01  3.5901758827848373e-01  3.5730574697749840e-01  3.5567071189483690e-01  3.5411081901273472e-01  3.5262068628907212e-01  3.5120233880533547e-01  3.4985034943414645e-01  3.4853821755494124e-01  3.4715259359552608e-01  3.4529751187517493e-01  3.4173592023746396e-01  3.3319500779771488e-01  3.1575013495054655e-01  3.5542720174565196e-01  3.5997988145339777e-01  3.7352801218810611e-01  4.6957644482843852e-01  5.1897442098725610e-01  5.3203090971176148e-01  5.2377197476922921e-01  5.0598124162169567e-01  4.8598016800413696e-01  4.6719420359786967e-01  4.5079560326883761e-01  4.3691907945389230e-01  4.2531234656728589e-01  4.1563114877195861e-01  4.0754216892093248e-01  4.0075425682559651e-01  3.9502450858721055e-01  3.9015344684623798e-01  3.8598677192464714e-01  3.8239238321841829e-01  3.7927174048283940e-01  3.7654225472715502e-01  3.7413606014123763e-01  3.7199991895377055e-01  3.7009478915687993e-01  3.6837856183988399e-01  3.6682723729588990e-01  3.6541187741208297e-01  3.6411159890697925e-01  3.6290732778368490e-01  3.6177866559823768e-01  3.6071148695319633e-01  3.5968952558404577e-01  3.5870216916808267e-01  3.5772800004541228e-01  3.5671064776338729e-01  3.5549317209417314e-01  3.5357624268551113e-01  3.4947090237315354e-01  3.3932470953787947e-01  3.1852256951790830e-01  3.5566558575351259e-01  3.5903708944643720e-01  3.5975334643528689e-01  4.3502908820500347e-01  4.7453848659351849e-01  4.8727042060729808e-01  4.8455787612761403e-01  4.7432357595858754e-01  4.6146622530838649e-01  4.4855856234422864e-01  4.3671122788004735e-01  4.2628501661993934e-01  4.1729390894134838e-01  4.0961911521824718e-01  4.0309426943287147e-01  3.9755345564471595e-01  3.9284492367438578e-01  3.8883911544450761e-01  3.8542147266742116e-01  3.8250017697456290e-01  3.7999819876614377e-01  3.7785350808157986e-01  3.7601363308276631e-01  3.7443824100121487e-01  3.7309283403331334e-01  3.7194812435861074e-01  3.7098035407747765e-01  3.7016711498915850e-01  3.6948582976664218e-01  3.6891271139539283e-01  3.6842927718234331e-01  3.6800748923720666e-01  3.6761920974955875e-01  3.6723203936612486e-01  3.6679531759661976e-01  3.6621360611191389e-01  3.6525952660277899e-01  3.6330127452176886e-01  3.5855328195274894e-01  3.4649675346389713e-01  3.2175790481149630e-01  3.5594301411695639e-01  3.5828254787579816e-01  3.4988812946398418e-01  4.1082728384983824e-01  4.4209161598255348e-01  4.5299111195341235e-01  4.5292929456571368e-01  4.4733804868758864e-01  4.3942502332001010e-01  4.3095454461885591e-01  4.2280262776233002e-01  4.1535379750296642e-01  4.0874056022422922e-01  4.0296906539802912e-01  3.9798469446374696e-01  3.9370710802323750e-01  3.9006067957239582e-01  3.8696598322555142e-01  3.8434981144132258e-01  3.8215330249776136e-01  3.8032281822616953e-01  3.7881551992474721e-01  3.7759890927262668e-01  3.7664431318807140e-01  3.7592783122418305e-01  3.7543006964655012e-01  3.7513326420625664e-01  3.7502520385812610e-01  3.7508722854510984e-01  3.7529352519262121e-01  3.7562330932069987e-01  3.7604133368239867e-01  3.7650386546412679e-01  3.7694654545106249e-01  3.7727775667346219e-01  3.7733804665565807e-01  3.7679569580671979e-01  3.7483347720911608e-01  3.6931053173960299e-01  3.5496001818849465e-01  3.2555960763003994e-01  3.5626782460434919e-01  3.5764291541146692e-01  3.4193578482105141e-01  3.9209185617874637e-01  4.1732139725661754e-01  4.2647759929105089e-01  4.2762240197054430e-01  4.2481074267669078e-01  4.2019337231372511e-01  4.1492561868766231e-01  4.0962592001655435e-01  4.0461763869247463e-01  4.0005356166789913e-01  3.9599402453475147e-01  3.9244512908424867e-01  3.8938385075333970e-01  3.8678335266808844e-01  3.8460630364624809e-01  3.8280887491128612e-01  3.8136089295633452e-01  3.8023367295610244e-01  3.7940288047340243e-01  3.7884954535789495e-01  3.7856368791421297e-01  3.7853337840172468e-01  3.7874964631163688e-01  3.7921046069812359e-01  3.7991157068484349e-01  3.8084481889210814e-01  3.8199291894969822e-01  3.8333623401090561e-01  3.8483560049752213e-01  3.8642867706057560e-01  3.8801904503346152e-01  3.8944881179325325e-01  3.9046282483782668e-01  3.9056859763268742e-01  3.8867908365959408e-01  3.8220275457461023e-01  3.6503948292691540e-01  3.3006017568867346e-01  3.5665055876360174e-01  3.5710316263513597e-01  3.3543629308389594e-01  3.7719639458900595e-01  3.9789040054262048e-01  4.0555706401948011e-01  4.0722460724759113e-01  4.0608878226223877e-01  4.0363919124304942e-01  4.006300156