<?xml version="1.0"?>
<VTKFile type="UnstructuredGrid"  version="0.1"  >
<UnstructuredGrid>
<Piece  NumberOfPoints="1681" NumberOfCells="3200">
<Points>
<DataArray  type="Float64"  NumberOfComponents="3"  format="ascii">0 0 0  0.025 0 0  0.05 0 0  0.075 0 0  0.1 0 0  0.125 0 0  0.15 0 0  0.175 0 0  0.2 0 0  0.225 0 0  0.25 0 0  0.275 0 0  0.3 0 0  0.325 0 0  0.35 0 0  0.375 0 0  0.4 0 0  0.425 0 0  0.45 0 0  0.475 0 0  0.5 0 0  0.525 0 0  0.55 0 0  0.575 0 0  0.6 0 0  0.625 0 0  0.65 0 0  0.675 0 0  0.7 0 0  0.725 0 0  0.75 0 0  0.775 0 0  0.8 0 0  0.825 0 0  0.85 0 0  0.875 0 0  0.9 0 0  0.925 0 0  0.95 0 0  0.975 0 0  1 0 0  0 0.025 0  0.025 0.025 0  0.05 0.025 0  0.075 0.025 0  0.1 0.025 0  0.125 0.025 0  0.15 0.025 0  0.175 0.025 0  0.2 0.025 0  0.225 0.025 0  0.25 0.025 0  0.275 0.025 0  0.3 0.025 0  0.325 0.025 0  0.35 0.025 0  0.375 0.025 0  0.4 0.025 0  0.425 0.025 0  0.45 0.025 0  0.475 0.025 0  0.5 0.025 0  0.525 0.025 0  0.55 0.025 0  0.575 0.025 0  0.6 0.025 0  0.625 0.025 0  0.65 0.025 0  0.675 0.025 0  0.7 0.025 0  0.725 0.025 0  0.75 0.025 0  0.775 0.025 0  0.8 0.025 0  0.825 0.025 0  0.85 0.025 0  0.875 0.025 0  0.9 0.025 0  0.925 0.025 0  0.95 0.025 0  0.975 0.025 0  1 0.025 0  0 0.05 0  0.025 0.05 0  0.05 0.05 0  0.075 0.05 0  0.1 0.05 0  0.125 0.05 0  0.15 0.05 0  0.175 0.05 0  0.2 0.05 0  0.225 0.05 0  0.25 0.05 0  0.275 0.05 0  0.3 0.05 0  0.325 0.05 0  0.35 0.05 0  0.375 0.05 0  0.4 0.05 0  0.425 0.05 0  0.45 0.05 0  0.475 0.05 0  0.5 0.05 0  0.525 0.05 0  0.55 0.05 0  0.575 0.05 0  0.6 0.05 0  0.625 0.05 0  0.65 0.05 0  0.675 0.05 0  0.7 0.05 0  0.725 0.05 0  0.75 0.05 0  0.775 0.05 0  0.8 0.05 0  0.825 0.05 0  0.85 0.05 0  0.875 0.05 0  0.9 0.05 0  0.925 0.05 0  0.95 0.05 0  0.975 0.05 0  1 0.05 0  0 0.075 0  0.025 0.075 0  0.05 0.075 0  0.075 0.075 0  0.1 0.075 0  0.125 0.075 0  0.15 0.075 0  0.175 0.075 0  0.2 0.075 0  0.225 0.075 0  0.25 0.075 0  0.275 0.075 0  0.3 0.075 0  0.325 0.075 0  0.35 0.075 0  0.375 0.075 0  0.4 0.075 0  0.425 0.075 0  0.45 0.075 0  0.475 0.075 0  0.5 0.075 0  0.525 0.075 0  0.55 0.075 0  0.575 0.075 0  0.6 0.075 0  0.625 0.075 0  0.65 0.075 0  0.675 0.075 0  0.7 0.075 0  0.725 0.075 0  0.75 0.075 0  0.775 0.075 0  0.8 0.075 0  0.825 0.075 0  0.85 0.075 0  0.875 0.075 0  0.9 0.075 0  0.925 0.075 0  0.95 0.075 0  0.975 0.075 0  1 0.075 0  0 0.1 0  0.025 0.1 0  0.05 0.1 0  0.075 0.1 0  0.1 0.1 0  0.125 0.1 0  0.15 0.1 0  0.175 0.1 0  0.2 0.1 0  0.225 0.1 0  0.25 0.1 0  0.275 0.1 0  0.3 0.1 0  0.325 0.1 0  0.35 0.1 0  0.375 0.1 0  0.4 0.1 0  0.425 0.1 0  0.45 0.1 0  0.475 0.1 0  0.5 0.1 0  0.525 0.1 0  0.55 0.1 0  0.575 0.1 0  0.6 0.1 0  0.625 0.1 0  0.65 0.1 0  0.675 0.1 0  0.7 0.1 0  0.725 0.1 0  0.75 0.1 0  0.775 0.1 0  0.8 0.1 0  0.825 0.1 0  0.85 0.1 0  0.875 0.1 0  0.9 0.1 0  0.925 0.1 0  0.95 0.1 0  0.975 0.1 0  1 0.1 0  0 0.125 0  0.025 0.125 0  0.05 0.125 0  0.075 0.125 0  0.1 0.125 0  0.125 0.125 0  0.15 0.125 0  0.175 0.125 0  0.2 0.125 0  0.225 0.125 0  0.25 0.125 0  0.275 0.125 0  0.3 0.125 0  0.325 0.125 0  0.35 0.125 0  0.375 0.125 0  0.4 0.125 0  0.425 0.125 0  0.45 0.125 0  0.475 0.125 0  0.5 0.125 0  0.525 0.125 0  0.55 0.125 0  0.575 0.125 0  0.6 0.125 0  0.625 0.125 0  0.65 0.125 0  0.675 0.125 0  0.7 0.125 0  0.725 0.125 0  0.75 0.125 0  0.775 0.125 0  0.8 0.125 0  0.825 0.125 0  0.85 0.125 0  0.875 0.125 0  0.9 0.125 0  0.925 0.125 0  0.95 0.125 0  0.975 0.125 0  1 0.125 0  0 0.15 0  0.025 0.15 0  0.05 0.15 0  0.075 0.15 0  0.1 0.15 0  0.125 0.15 0  0.15 0.15 0  0.175 0.15 0  0.2 0.15 0  0.225 0.15 0  0.25 0.15 0  0.275 0.15 0  0.3 0.15 0  0.325 0.15 0  0.35 0.15 0  0.375 0.15 0  0.4 0.15 0  0.425 0.15 0  0.45 0.15 0  0.475 0.15 0  0.5 0.15 0  0.525 0.15 0  0.55 0.15 0  0.575 0.15 0  0.6 0.15 0  0.625 0.15 0  0.65 0.15 0  0.675 0.15 0  0.7 0.15 0  0.725 0.15 0  0.75 0.15 0  0.775 0.15 0  0.8 0.15 0  0.825 0.15 0  0.85 0.15 0  0.875 0.15 0  0.9 0.15 0  0.925 0.15 0  0.95 0.15 0  0.975 0.15 0  1 0.15 0  0 0.175 0  0.025 0.175 0  0.05 0.175 0  0.075 0.175 0  0.1 0.175 0  0.125 0.175 0  0.15 0.175 0  0.175 0.175 0  0.2 0.175 0  0.225 0.175 0  0.25 0.175 0  0.275 0.175 0  0.3 0.175 0  0.325 0.175 0  0.35 0.175 0  0.375 0.175 0  0.4 0.175 0  0.425 0.175 0  0.45 0.175 0  0.475 0.175 0  0.5 0.175 0  0.525 0.175 0  0.55 0.175 0  0.575 0.175 0  0.6 0.175 0  0.625 0.175 0  0.65 0.175 0  0.675 0.175 0  0.7 0.175 0  0.725 0.175 0  0.75 0.175 0  0.775 0.175 0  0.8 0.175 0  0.825 0.175 0  0.85 0.175 0  0.875 0.175 0  0.9 0.175 0  0.925 0.175 0  0.95 0.175 0  0.975 0.175 0  1 0.175 0  0 0.2 0  0.025 0.2 0  0.05 0.2 0  0.075 0.2 0  0.1 0.2 0  0.125 0.2 0  0.15 0.2 0  0.175 0.2 0  0.2 0.2 0  0.225 0.2 0  0.25 0.2 0  0.275 0.2 0  0.3 0.2 0  0.325 0.2 0  0.35 0.2 0  0.375 0.2 0  0.4 0.2 0  0.425 0.2 0  0.45 0.2 0  0.475 0.2 0  0.5 0.2 0  0.525 0.2 0  0.55 0.2 0  0.575 0.2 0  0.6 0.2 0  0.625 0.2 0  0.65 0.2 0  0.675 0.2 0  0.7 0.2 0  0.725 0.2 0  0.75 0.2 0  0.775 0.2 0  0.8 0.2 0  0.825 0.2 0  0.85 0.2 0  0.875 0.2 0  0.9 0.2 0  0.925 0.2 0  0.95 0.2 0  0.975 0.2 0  1 0.2 0  0 0.225 0  0.025 0.225 0  0.05 0.225 0  0.075 0.225 0  0.1 0.225 0  0.125 0.225 0  0.15 0.225 0  0.175 0.225 0  0.2 0.225 0  0.225 0.225 0  0.25 0.225 0  0.275 0.225 0  0.3 0.225 0  0.325 0.225 0  0.35 0.225 0  0.375 0.225 0  0.4 0.225 0  0.425 0.225 0  0.45 0.225 0  0.475 0.225 0  0.5 0.225 0  0.525 0.225 0  0.55 0.225 0  0.575 0.225 0  0.6 0.225 0  0.625 0.225 0  0.65 0.225 0  0.675 0.225 0  0.7 0.225 0  0.725 0.225 0  0.75 0.225 0  0.775 0.225 0  0.8 0.225 0  0.825 0.225 0  0.85 0.225 0  0.875 0.225 0  0.9 0.225 0  0.925 0.225 0  0.95 0.225 0  0.975 0.225 0  1 0.225 0  0 0.25 0  0.025 0.25 0  0.05 0.25 0  0.075 0.25 0  0.1 0.25 0  0.125 0.25 0  0.15 0.25 0  0.175 0.25 0  0.2 0.25 0  0.225 0.25 0  0.25 0.25 0  0.275 0.25 0  0.3 0.25 0  0.325 0.25 0  0.35 0.25 0  0.375 0.25 0  0.4 0.25 0  0.425 0.25 0  0.45 0.25 0  0.475 0.25 0  0.5 0.25 0  0.525 0.25 0  0.55 0.25 0  0.575 0.25 0  0.6 0.25 0  0.625 0.25 0  0.65 0.25 0  0.675 0.25 0  0.7 0.25 0  0.725 0.25 0  0.75 0.25 0  0.775 0.25 0  0.8 0.25 0  0.825 0.25 0  0.85 0.25 0  0.875 0.25 0  0.9 0.25 0  0.925 0.25 0  0.95 0.25 0  0.975 0.25 0  1 0.25 0  0 0.275 0  0.025 0.275 0  0.05 0.275 0  0.075 0.275 0  0.1 0.275 0  0.125 0.275 0  0.15 0.275 0  0.175 0.275 0  0.2 0.275 0  0.225 0.275 0  0.25 0.275 0  0.275 0.275 0  0.3 0.275 0  0.325 0.275 0  0.35 0.275 0  0.375 0.275 0  0.4 0.275 0  0.425 0.275 0  0.45 0.275 0  0.475 0.275 0  0.5 0.275 0  0.525 0.275 0  0.55 0.275 0  0.575 0.275 0  0.6 0.275 0  0.625 0.275 0  0.65 0.275 0  0.675 0.275 0  0.7 0.275 0  0.725 0.275 0  0.75 0.275 0  0.775 0.275 0  0.8 0.275 0  0.825 0.275 0  0.85 0.275 0  0.875 0.275 0  0.9 0.275 0  0.925 0.275 0  0.95 0.275 0  0.975 0.275 0  1 0.275 0  0 0.3 0  0.025 0.3 0  0.05 0.3 0  0.075 0.3 0  0.1 0.3 0  0.125 0.3 0  0.15 0.3 0  0.175 0.3 0  0.2 0.3 0  0.225 0.3 0  0.25 0.3 0  0.275 0.3 0  0.3 0.3 0  0.325 0.3 0  0.35 0.3 0  0.375 0.3 0  0.4 0.3 0  0.425 0.3 0  0.45 0.3 0  0.475 0.3 0  0.5 0.3 0  0.525 0.3 0  0.55 0.3 0  0.575 0.3 0  0.6 0.3 0  0.625 0.3 0  0.65 0.3 0  0.675 0.3 0  0.7 0.3 0  0.725 0.3 0  0.75 0.3 0  0.775 0.3 0  0.8 0.3 0  0.825 0.3 0  0.85 0.3 0  0.875 0.3 0  0.9 0.3 0  0.925 0.3 0  0.95 0.3 0  0.975 0.3 0  1 0.3 0  0 0.325 0  0.025 0.325 0  0.05 0.325 0  0.075 0.325 0  0.1 0.325 0  0.125 0.325 0  0.15 0.325 0  0.175 0.325 0  0.2 0.325 0  0.225 0.325 0  0.25 0.325 0  0.275 0.325 0  0.3 0.325 0  0.325 0.325 0  0.35 0.325 0  0.375 0.325 0  0.4 0.325 0  0.425 0.325 0  0.45 0.325 0  0.475 0.325 0  0.5 0.325 0  0.525 0.325 0  0.55 0.325 0  0.575 0.325 0  0.6 0.325 0  0.625 0.325 0  0.65 0.325 0  0.675 0.325 0  0.7 0.325 0  0.725 0.325 0  0.75 0.325 0  0.775 0.325 0  0.8 0.325 0  0.825 0.325 0  0.85 0.325 0  0.875 0.325 0  0.9 0.325 0  0.925 0.325 0  0.95 0.325 0  0.975 0.325 0  1 0.325 0  0 0.35 0  0.025 0.35 0  0.05 0.35 0  0.075 0.35 0  0.1 0.35 0  0.125 0.35 0  0.15 0.35 0  0.175 0.35 0  0.2 0.35 0  0.225 0.35 0  0.25 0.35 0  0.275 0.35 0  0.3 0.35 0  0.325 0.35 0  0.35 0.35 0  0.375 0.35 0  0.4 0.35 0  0.425 0.35 0  0.45 0.35 0  0.475 0.35 0  0.5 0.35 0  0.525 0.35 0  0.55 0.35 0  0.575 0.35 0  0.6 0.35 0  0.625 0.35 0  0.65 0.35 0  0.675 0.35 0  0.7 0.35 0  0.725 0.35 0  0.75 0.35 0  0.775 0.35 0  0.8 0.35 0  0.825 0.35 0  0.85 0.35 0  0.875 0.35 0  0.9 0.35 0  0.925 0.35 0  0.95 0.35 0  0.975 0.35 0  1 0.35 0  0 0.375 0  0.025 0.375 0  0.05 0.375 0  0.075 0.375 0  0.1 0.375 0  0.125 0.375 0  0.15 0.375 0  0.175 0.375 0  0.2 0.375 0  0.225 0.375 0  0.25 0.375 0  0.275 0.375 0  0.3 0.375 0  0.325 0.375 0  0.35 0.375 0  0.375 0.375 0  0.4 0.375 0  0.425 0.375 0  0.45 0.375 0  0.475 0.375 0  0.5 0.375 0  0.525 0.375 0  0.55 0.375 0  0.575 0.375 0  0.6 0.375 0  0.625 0.375 0  0.65 0.375 0  0.675 0.375 0  0.7 0.375 0  0.725 0.375 0  0.75 0.375 0  0.775 0.375 0  0.8 0.375 0  0.825 0.375 0  0.85 0.375 0  0.875 0.375 0  0.9 0.375 0  0.925 0.375 0  0.95 0.375 0  0.975 0.375 0  1 0.375 0  0 0.4 0  0.025 0.4 0  0.05 0.4 0  0.075 0.4 0  0.1 0.4 0  0.125 0.4 0  0.15 0.4 0  0.175 0.4 0  0.2 0.4 0  0.225 0.4 0  0.25 0.4 0  0.275 0.4 0  0.3 0.4 0  0.325 0.4 0  0.35 0.4 0  0.375 0.4 0  0.4 0.4 0  0.425 0.4 0  0.45 0.4 0  0.475 0.4 0  0.5 0.4 0  0.525 0.4 0  0.55 0.4 0  0.575 0.4 0  0.6 0.4 0  0.625 0.4 0  0.65 0.4 0  0.675 0.4 0  0.7 0.4 0  0.725 0.4 0  0.75 0.4 0  0.775 0.4 0  0.8 0.4 0  0.825 0.4 0  0.85 0.4 0  0.875 0.4 0  0.9 0.4 0  0.925 0.4 0  0.95 0.4 0  0.975 0.4 0  1 0.4 0  0 0.425 0  0.025 0.425 0  0.05 0.425 0  0.075 0.425 0  0.1 0.425 0  0.125 0.425 0  0.15 0.425 0  0.175 0.425 0  0.2 0.425 0  0.225 0.425 0  0.25 0.425 0  0.275 0.425 0  0.3 0.425 0  0.325 0.425 0  0.35 0.425 0  0.375 0.425 0  0.4 0.425 0  0.425 0.425 0  0.45 0.425 0  0.475 0.425 0  0.5 0.425 0  0.525 0.425 0  0.55 0.425 0  0.575 0.425 0  0.6 0.425 0  0.625 0.425 0  0.65 0.425 0  0.675 0.425 0  0.7 0.425 0  0.725 0.425 0  0.75 0.425 0  0.775 0.425 0  0.8 0.425 0  0.825 0.425 0  0.85 0.425 0  0.875 0.425 0  0.9 0.425 0  0.925 0.425 0  0.95 0.425 0  0.975 0.425 0  1 0.425 0  0 0.45 0  0.02
[...]
<PointData  Scalars="ControlVisualisation"> 
<DataArray  type="Float64"  Name="ControlVisualisation"  format="ascii">3.7226684484743566e-01  3.5420867068055317e-01  3.5426846991912586e-01  3.5448929086538389e-01  3.5485664774136572e-01  3.5529664176605102e-01  3.5573046871122876e-01  3.5610161015673347e-01  3.5638243139045350e-01  3.5656830895504210e-01  3.5666833909837586e-01  3.5669753359444573e-01  3.5667186730676370e-01  3.5660575253765375e-01  3.5651108934247661e-01  3.5639717436731050e-01  3.5627099986225885e-01  3.5613768033377535e-01  3.5600087785796652e-01  3.5586317289749853e-01  3.5572636619492226e-01  3.5559171487133562e-01  3.5546011233058383e-01  3.5533222273017384e-01  3.5520857969446562e-01  3.5508965714823360e-01  3.5497591830444830e-01  3.5486784726419879e-01  3.5476596649509123e-01  3.5467084255800041e-01  3.5458308196333688e-01  3.5450331879193497e-01  3.5443219608751952e-01  3.5437034452854865e-01  3.5431836589680199e-01  3.5427684098234780e-01  3.5424638122073254e-01  3.5422761414064624e-01  3.5422039906346270e-01  3.5422081660632032e-01  3.9053842404665706e-01  3.5420612614195152e-01  3.0172959302754598e-01  3.0283128567213069e-01  3.0529266109922742e-01  3.0903083005534082e-01  3.1342346858635373e-01  3.1775387093241331e-01  3.2149462874842094e-01  3.2437593251035279e-01  3.2633911483186318e-01  3.2745643324848761e-01  3.2786118808659725e-01  3.2770142862156143e-01  3.2711483885399056e-01  3.2621808991264312e-01  3.2510454058453087e-01  3.2384605804358735e-01  3.2249644875451389e-01  3.2109517778172114e-01  3.1967077024305091e-01  3.1824367755856792e-01  3.1682858272368558e-01  3.1543620073952461e-01  3.1407465576613020e-01  3.1275051567866735e-01  3.1146955322947040e-01  3.1023728877184970e-01  3.0905935620922687e-01  3.0794172305443357e-01  3.0689078754579641e-01  3.0591337094511950e-01  3.0501662132034529e-01  3.0420784789412320e-01  3.0349431356945483e-01  3.0288303629814300e-01  3.0238067783779510e-01  3.0199343794054651e-01  3.0172602614198363e-01  3.0157567857100226e-01  3.0151992546172413e-01  3.5422081539793954e-01  3.5424384231491579e-01  3.0283510704802696e-01  3.0655931315780316e-01  3.1259030136403620e-01  3.2073642155428861e-01  3.2986980598322624e-01  3.3864268303376094e-01  3.4609104209340985e-01  3.5175321427150441e-01  3.5555907929354225e-01  3.5767210666522825e-01  3.5836158127341244e-01  3.5792018285572780e-01  3.5661931693690813e-01  3.5468987074135350e-01  3.5231783492755891e-01  3.4964749258555461e-01  3.4678773174338529e-01  3.4381905085881975e-01  3.4080008336084316e-01  3.3777318073017948e-01  3.3476896300527692e-01  3.3180991467050225e-01  3.2891316435192974e-01  3.2609259371630361e-01  3.2336040424524615e-01  3.2072824626680169e-01  3.1820799061547883e-01  3.1581220306559737e-01  3.1355436678436938e-01  3.1144888886100625e-01  3.0951092362641192e-01  3.0775604851199240e-01  3.0619983383597466e-01  3.0485734315828383e-01  3.0374245941013234e-01  3.0286627093250246e-01  3.0223142407717007e-01  3.0181639398098237e-01  3.0157570061675337e-01  3.5422037748520013e-01  3.5441325926882311e-01  3.0564791422029292e-01  3.1394539287648149e-01  3.2372203702133617e-01  3.3467471216600470e-01  3.4580755260217033e-01  3.5583285020034511e-01  3.6391063999213052e-01  3.6973088199134657e-01  3.7335679399875332e-01  3.7505212166377849e-01  3.7515815443107531e-01  3.7401968349203008e-01  3.7194670324891738e-01  3.6919906714069584e-01  3.6598445934022011e-01  3.6246316349497792e-01  3.5875559197645873e-01  3.5495030657879173e-01  3.5111140632214682e-01  3.4728483528281950e-01  3.4350352804371176e-01  3.3979148276165061e-01  3.3616691513645541e-01  3.3264465435750051e-01  3.2923792370567395e-01  3.2595962196712130e-01  3.2282319495155382e-01  3.1984316394521345e-01  3.1703536122555143e-01  3.1441691248650355e-01  3.1200600124554412e-01  3.0982144760200880e-01  3.0788211374721164e-01  3.0620604534217555e-01  3.0480879237703118e-01  3.0369874669752406e-01  3.0286294649758300e-01  3.0223549857298687e-01  3.0172713369995052e-01  3.5422754277350582e-01  3.5475270197044168e-01  3.1117091547162917e-01  3.2864527212070160e-01  3.4381511688951288e-01  3.5647733118552599e-01  3.6702164806995041e-01  3.7530466081937058e-01  3.8121973376826596e-01  3.8487806801581514e-01  3.8654509800758813e-01  3.8655298215423561e-01  3.8524151917181909e-01  3.8292400578169933e-01  3.7987052132613691e-01  3.7630264284261983e-01  3.7239519119270420e-01  3.6828173003697590e-01  3.6406155357859910e-01  3.5980676885189605e-01  3.5556873451877347e-01  3.5138355187192072e-01  3.4727655768388987e-01  3.4326589628360904e-01  3.3936529766102769e-01  3.3558619501493425e-01  3.3193930027389534e-01  3.2843573384790614e-01  3.2508778213737100e-01  3.2190933689846102e-01  3.1891605632992859e-01  3.1612527877018204e-01  3.1355571374310609e-01  3.1122692264510393e-01  3.0915854185941177e-01  3.0736896090098825e-01  3.0587224794648660e-01  3.0466912049286654e-01  3.0371996397938350e-01  3.0288662984056636e-01  3.0199994096869665e-01  3.5424639385585799e-01  3.5527596041321352e-01  3.2434227308616109e-01  3.5989813788547431e-01  3.8230202270147579e-01  3.9358527295884704e-01  3.9925258808180092e-01  4.0188712488609152e-01  4.0255654620954667e-01  4.0177951986755722e-01  3.9987842514713134e-01  3.9709891956623328e-01  3.9364875306127034e-01  3.8970787873794971e-01  3.8542942272754943e-01  3.8093930960211558e-01  3.7633721453062569e-01  3.7169909842512555e-01  3.6708075917767136e-01  3.6252174416352773e-01  3.5804914335531846e-01  3.5368099033619516e-01  3.4942915854090473e-01  3.4530174001420799e-01  3.4130494541277234e-01  3.3744458255770610e-01  3.3372717146061537e-01  3.3016074452766314e-01  3.2675536902062285e-01  3.2352341759318481e-01  3.2047960432660261e-01  3.1764079830822234e-01  3.1502562022732628e-01  3.1265380420984951e-01  3.1054520049018075e-01  3.0871788054088245e-01  3.0718327302531490e-01  3.0593127529887465e-01  3.0488533224863557e-01  3.0380528415994240e-01  3.0240289626249695e-01  3.5427748736540760e-01  3.6487178037996809e-01  3.6961817574704647e-01  4.3193869492493553e-01  4.5390694355875799e-01  4.5399130193094039e-01  4.4668832307481521e-01  4.3792342041477356e-01  4.2954613288591331e-01  4.2189796771781829e-01  4.1488572570110727e-01  4.0834711916899324e-01  4.0215242831525344e-01  3.9621917379438287e-01  3.9050187210727277e-01  3.8497828097609038e-01  3.7963851068922183e-01  3.7447796838373243e-01  3.6949343827030851e-01  3.6468130621590594e-01  3.6003709280376006e-01  3.5555570371611173e-01  3.5123201946308741e-01  3.4706159953667526e-01  3.4304137561912507e-01  3.3917026701135689e-01  3.3544968319615798e-01  3.3188389329721746e-01  3.2848024773524953e-01  3.2524923870100969e-01  3.2220438602194312e-01  3.1936193479834440e-01  3.1674034513160060e-01  3.1435951865601836e-01  3.1223954195476461e-01  3.1039808779499467e-01  3.0884327110149173e-01  3.0755113974885356e-01  3.0639731483721028e-01  3.0500899528940095e-01  3.0294012289570371e-01  3.5432086993543094e-01  4.8191603707480946e-01  5.3538176639451540e-01  5.7567950591360018e-01  5.6792245055566026e-01  5.4051123609272644e-01  5.0971726129336237e-01  4.8295439908441740e-01  4.6161598324149106e-01  4.4484249596533321e-01  4.3143317173517404e-01  4.2040096081412298e-01  4.1104140447110710e-01  4.0287700807610732e-01  3.9558934801845408e-01  3.8896565873529487e-01  3.8286174721057159e-01  3.7717758834123366e-01  3.7184172168232832e-01  3.6680146639909855e-01  3.6201688547111099e-01  3.5745712655829665e-01  3.5309825131637884e-01  3.4892198549370490e-01  3.4491502912781197e-01  3.4106869627144670e-01  3.3737873368083093e-01  3.3384521559290892e-01  3.3047243957460404e-01  3.2726876493950752e-01  3.2424634467101249e-01  3.2142070746736978e-01  3.1881014029180077e-01  3.1643476997549558e-01  3.1431500266993440e-01  3.1246805282713447e-01  3.1089793086301493e-01  3.0956340617012451e-01  3.0828069380230733e-01  3.0651294320727596e-01  3.0361704747143153e-01  3.5437685733118901e-01  7.0759907215685780e-01  7.8855133844411585e-01  7.4565371087026200e-01  7.0057838155692564e-01  6.4110477897890572e-01  5.8153488266168607e-01  5.3275732193769054e-01  4.9603964718387267e-01  4.6885294268638461e-01  4.4840868649568499e-01  4.3258577617553767e-01  4.1993498976785604e-01  4.0949633118800222e-01  4.0063497199165021e-01  3.9292651334665085e-01  3.8608239315395693e-01  3.7990243129909723e-01  3.7424472809130910e-01  3.6900650476413993e-01  3.6411184937887281e-01  3.5950384632629656e-01  3.5513950868088340e-01  3.5098651499638250e-01  3.4702111285904885e-01  3.4322677594288969e-01  3.3959334031250077e-01  3.3611643138762398e-01  3.3279704506581825e-01  3.2964117849583024e-01  3.2665942492814393e-01  3.2386645716613527e-01  3.2128031554147690e-01  3.1892134129880179e-01  3.1681025994466172e-01  3.1496363559172780e-01  3.1338033085480749e-01  3.1199794247431362e-01  3.1056093896916442e-01  3.0833571721769798e-01  3.0444148976760471e-01  3.5444605404989959e-01  7.9872118766970479e-01  8.8201918837181914e-01  8.4265321753072353e-01  8.0262165971692778e-01  7.2983225480053815e-01  6.4833832386483625e-01  5.7961925867565445e-01  5.2829908477711374e-01  4.9119217963296863e-01  4.6411255630572956e-01  4.4382748500934338e-01  4.2814706669998875e-01  4.1563700888673555e-01  4.0535720131167657e-01  3.9668269854805482e-01  3.8919010872593485e-01  3.8258666462823232e-01  3.7666573683853694e-01  3.7127860983398764e-01  3.6631634883246256e-01  3.6169801709052407e-01  3.5736295055314349e-01  3.5326566223091060e-01  3.4937247158027379e-01  3.4565927479128028e-01  3.4211006891059809e-01  3.3871596448348240e-01  3.3547449574235388e-01  3.3238908262169670e-01  3.2946852505970908e-01  3.2672642183282080e-01  3.2418039060089626e-01  3.2185085837734118e-01  3.1975873301210983e-01  3.1791955360459784e-01  3.1632569741402017e-01  3.1488916581828158e-01  3.1326936308426684e-01  3.1050133230559152e-01  3.0542393083000818e-01  3.5452931273792904e-01  8.1728604189518994e-01  9.0520836348876577e-01  8.7951598820812871e-01  8.5283883227366697e-01  7.8459183844884195e-01  6.9545996311000324e-01  6.1480643687566550e-01  5.5327965810490964e-01  5.0881206936637891e-01  4.7667474852049629e-01  4.5294281236005746e-01  4.3490676339187895e-01  4.2078361418705984e-01  4.0940343428632187e-01  3.9998802149687757e-01  3.9200972347218049e-01  3.8510338412344364e-01  3.7901119213612094e-01  3.7354767106743997e-01  3.6857711136058458e-01  3.6399881355464436e-01  3.5973732465693753e-01  3.5573592336447424e-01  3.5195225309590067e-01  3.4835539369091550e-01  3.4492390305303205e-01  3.4164450795474360e-01  3.3851121373935600e-01  3.3552465626760353e-01  3.3269154898099346e-01  3.3002408696603974e-01  3.2753914112181604e-01  3.2525692309033405e-01  3.2319819052304583e-01  3.2137683914001308e-01  3.1977705079800911e-01  3.1828013040918979e-01  3.1644580262460670e-01  3.1304065506276768e-01  3.0657792816072366e-01  3.5462774801560643e-01  7.9220924063811582e-01  8.8774768394011327e-01  8.7077197609647239e-01  8.5569668631920526e-01  7.9859155650245450e-01  7.1417141772024295e-01  6.3193077400028175e-01  5.6693922577667977e-01  5.1921599147189756e-01  4.8452786042824403e-01  4.5891714458513561e-01  4.3953475350512455e-01  4.2446629998477348e-01  4.1243886595180856e-01  4.0259735644607392e-01  3.9435728702098427e-01  3.8731139828419198e-01  3.8117048978340484e-01  3.7572550154386092e-01  3.7082284675435473e-01  3.6634812856366183e-01  3.6221525650803488e-01  3.5835910530573839e-01  3.5473053904906410e-01  3.5129304017607249e-01  3.4802043978658542e-01  3.4489540445151190e-01  3.4190843143852245e-01  3.3905716021365279e-01  3.3634583559132319e-01  3.3378475890584153e-01  3.3138951326106020e-01  3.2917953539972034e-01  3.2717480577695007e-01  3.2538660063243152e-01  3.2378867249207277e-01  3.2222560774326153e-01  3.2014113669219268e-01  3.1599314498949277e-01  3.0792082692721334e-01  3.5474279122980246e-01  6.7733514108387638e-01  8.2462382881988727e-01  8.1196645636356946e-01  8.1712695239401423e-01  7.7536458078167891e-01  7.0366561166502650e-01  6.2909141365295229e-01  5.6761737220587871e-01  5.2118559990429048e-01  4.8680923550334265e-01  4.6113467790559487e-01  4.4158190718240475e-01  4.2634927835389219e-01  4.1420629384279400e-01  4.0430923475158786e-01  3.9607174973697146e-01  3.8907960431175520e-01  3.8303519751700738e-01  3.7772124250948547e-01  3.7297671095966339e-01  3.6868069582039603e-01  3.6474146221978732e-01  3.6108895575750027e-01  3.5766965571048231e-01  3.5444304643073576e-01  3.5137922250587389e-01  3.4845729466109571e-01  3.4566435577472809e-01  3.4299481811859805e-01  3.4044995376582932e-01  3.3803745753143810e-01  3.3577077014057938e-01  3.3366760456859285e-01  3.3174608032281344e-01  3.3001332395995414e-01  3.2842964809854330e-01  3.2679561995443668e-01  3.2442045360927013e-01  3.1940920959973790e-01  3.0947477210657059e-01  3.5487627348030332e-01  4.3901166486989168e-01  6.4293244007510109e-01  7.1526524419937698e-01  7.4602582470384105e-01  7.2355624909829452e-01  6.6960094932810332e-01  6.0900016573309601e-01  5.5639491854984657e-01  5.1506238378412894e-01  4.8354624685204173e-01  4.5949756256670243e-01  4.4090720616005924e-01  4.2628341131479908e-01  4.1456288798578050e-01  4.0499240558824445e-01  3.9703467576329093e-01  3.9030191788955809e-01  3.8451050966233752e-01  3.7945020112669187e-01  3.7496311021403184e-01  3.7092927144391719e-01  3.6725660908800561e-01  3.6387393548642288e-01  3.6072604981524203e-01  3.5777032070693471e-01  3.5497433631820469e-01  3.5231433377057669e-01  3.4977419946105215e-01  3.4734487477944997e-01  3.4502401302811314e-01  3.4281570308327214e-01  3.4072995313333249e-01  3.3878122713990649e-01  3.3698398991166389e-01  3.3533881223258638e-01  3.3378837147198892e-01  3.3208010453654568e-01  3.2936731427555765e-01  3.2335339355417414e-01  3.1126807649095739e-01  3.5503053787812422e-01  3.6559948379421159e-01  4.5469382539552894e-01  6.0613138605433070e-01  6.5976632365504473e-01  6.5638472685468230e-01  6.2172722942992176e-01  5.7753170511882312e-01  5.3645249813847062e-01  5.0249123651588612e-01  4.7556442381546227e-01  4.5440091574296076e-01  4.3767860265926056e-01  4.2431616133454186e-01  4.1349242683663739e-01  4.0459769032813414e-01  3.9718076527570051e-01  3.9090621568519585e-01  3.8552263931549358e-01  3.8083981893030033e-01  3.7671239475327983e-01  3.7302819537421400e-01  3.6969987235114382e-01  3.6665888512870992e-01  3.6385117431534203e-01  3.6123406581835760e-01  3.5877409042051345e-01  3.5644549908039608e-01  3.5422931655071149e-01  3.5211280952327439e-01  3.5008924772324274e-01  3.4815778929863744e-01  3.4632315258032886e-01  3.4459420065985957e-01  3.4297885694675467e-01  3.4146733557118331e-01  3.3997863506855636e-01  3.3819531989014950e-01  3.3508960493359913e-01  3.2790870837556763e-01  3.1333705346623003e-01  3.5520858784910725e-01  3.6081720470041889e-01  3.9390019673723758e-01  5.2128767592435343e-01  5.8001429313182762e-01  5.8914770837158037e-01  5.7058881629836056e-01  5.4141093476496194e-01  5.1180185184917870e-01  4.8578501221484871e-01  4.6417992102626970e-01  4.4658590708467033e-01  4.3230444370169230e-01  4.2066136306679713e-01  4.1109385537503129e-01  4.0315564363066053e-01  3.9649974912062780e-01  3.9085798630760615e-01  3.8602295764894717e-01  3.8183365117781226e-01  3.7816435031071371e-01  3.7491623330474122e-01  3.7201105263232870e-01  3.6938639110686566e-01  3.6699210788304892e-01  3.6478768832652370e-01  3.6274029282263742e-01  3.6082336109787977e-01  3.5901567387961453e-01  3.5730080044801238e-01  3.5566686042468126e-01  3.5410647164657211e-01  3.5261653726955328e-01  3.5119683575000721e-01  3.4984421678832328e-01  3.4853251648030964e-01  3.4714805565427836e-01  3.4529282165742253e-01  3.4172769196679520e-01  3.3318255792832646e-01  3.1572847714844271e-01  3.5541428216536625e-01  3.5996624883458911e-01  3.7351909881411827e-01  4.6959839253311891e-01  5.1901158885394127e-01  5.3207358013683503e-01  5.2381649800783836e-01  5.0601934918208913e-01  4.8601312830611909e-01  4.6722476787873368e-01  4.5082195232060007e-01  4.3693729953157578e-01  4.2532551711059430e-01  4.1564233577423709e-01  4.0755219032091056e-01  4.0076265344194556e-01  3.9503077390633967e-01  3.9015915689712738e-01  3.8598909144623678e-01  3.8239348968711023e-01  3.7927061721393568e-01  3.7653885343138893e-01  3.7413243630334986e-01  3.7199805122560869e-01  3.7009210894456135e-01  3.6837857462631873e-01  3.6682723875442630e-01  3.6541235162779434e-01  3.6411157385678933e-01  3.6290522005913262e-01  3.6177578081663908e-01  3.6070765288225848e-01  3.5968675700077807e-01  3.5869888287098417e-01  3.5772287781093487e-01  3.5670662659419705e-01  3.5548992524939682e-01  3.5357228583341721e-01  3.4946599903678632e-01  3.3931495671531114e-01  3.1850289815732941e-01  3.5565258943564459e-01  3.5902384820063887e-01  3.5974384170539031e-01  4.3504492750489399e-01  4.7456447954113934e-01  4.8730118283243157e-01  4.8459339505048005e-01  4.7435319547347798e-01  4.6149306527059331e-01  4.4858287371053707e-01  4.3673231828732378e-01  4.2630040449982787e-01  4.1730561697465712e-01  4.0962746727166022e-01  4.0310135894038818e-01  3.9756020143048582e-01  3.9285152500876741e-01  3.8884309685483331e-01  3.8542337049840547e-01  3.8249974205182452e-01  3.7999604317628977e-01  3.7784992483335983e-01  3.7601040704506128e-01  3.7443568272011868e-01  3.7309117503711298e-01  3.7194781034391894e-01  3.7098045781780392e-01  3.7016649228891885e-01  3.6948445308585937e-01  3.6891279633111412e-01  3.6842875847461143e-01  3.6800731019586225e-01  3.6761994140844356e-01  3.6723201180431847e-01  3.6679408597992919e-01  3.6621295915492702e-01  3.6526005365680886e-01  3.6330031377476735e-01  3.5854991159480948e-01  3.4649011692762316e-01  3.2173910712223669e-01  3.5592991300224935e-01  3.5826952075092827e-01  3.4987664930740625e-01  4.1083532068268230e-01  4.4210812702955926e-01  4.5301210280763149e-01  4.5295245870648998e-01  4.4735811388538060e-01  4.3944357128432537e-01  4.3097210893811622e-01  4.2281706353764609e-01  4.1536538851481569e-01  4.0874958935702821e-01  4.0297518763512113e-01  3.9798859908843437e-01  3.9371263507178111e-01  3.9006497235425258e-01  3.8696728317714885e-01  3.8434933181961239e-01  3.8215035989968216e-01  3.8031906059415632e-01  3.7881285048921326e-01  3.7759681480795659e-01  3.7664250852307463e-01  3.7592668358521691e-01  3.7542994659203283e-01  3.7513531254663934e-01  3.7502659952981066e-01  3.7508660395679488e-01  3.7529500805592075e-01  3.7562598791766866e-01  3.7604547974514485e-01  3.7650783642524877e-01  3.7695044797009702e-01  3.7728125757098246e-01  3.7734250646546558e-01  3.7680162064450590e-01  3.7483894563114506e-01  3.6931110554387370e-01  3.5495312868138179e-01  3.2554019293112385e-01  3.5625449527602820e-01  3.5762973500006157e-01  3.4192212502176861e-01  3.9209563311509715e-01  4.1733107213476306e-01  4.2649005817014052e-01  4.2763632732982998e-01  4.2482316429703171e-01  4.2020508804683615e-01  4.1493730417424685e-01  4.0963727527672655e-01  4.0462665802959619e-01  4.0006003658126260e-01  3.9599766741209008e-01  3.9244706695707154e-01  3.8938781739780859e-01  3.8678644907878423e-01  3.8460522322480961e-01  3.8280716311640672e-01  3.8135876401952223e-01  3.8023129066304817e-01  3.7940121916950065e-01  3.7885015376366110e-01  3.7856439628982302e-01  3.7853424198298519e-01  3.7875299818129160e-01  3.7921566115029137e-01  3.7991713231744939e-01  3.8084980779395256e-01  3.8200033599737754e-01  3.8334530165724678e-01  3.8484555417205213e-01  3.8643857334939696e-01  3.8802711634221670e-01  3.8945838234431956e-01  3.9047417584511551e-01  3.9057925381607600e-01  3.8868846070083574e-01  3.8220782013965227e-01  3.6503587410732807e-01  3.3004170439976849e-01  3.5663682352200832e-01  3.5708990026252330e-01  3.3542148663688059e-01  3.7719702420452889e-01  3.9789647916888909e-01  4.0556473451674746e-01  4.0723278239067490e-01  4.0609673520368028e-01  4.0364881864629337e-01  4.006397624