<?xml version="1.0"?>
<VTKFile type="UnstructuredGrid"  version="0.1"  >
<UnstructuredGrid>
<Piece  NumberOfPoints="1681" NumberOfCells="3200">
<Points>
<DataArray  type="Float64"  NumberOfComponents="3"  format="ascii">0 0 0  0.025 0 0  0.05 0 0  0.075 0 0  0.1 0 0  0.125 0 0  0.15 0 0  0.175 0 0  0.2 0 0  0.225 0 0  0.25 0 0  0.275 0 0  0.3 0 0  0.325 0 0  0.35 0 0  0.375 0 0  0.4 0 0  0.425 0 0  0.45 0 0  0.475 0 0  0.5 0 0  0.525 0 0  0.55 0 0  0.575 0 0  0.6 0 0  0.625 0 0  0.65 0 0  0.675 0 0  0.7 0 0  0.725 0 0  0.75 0 0  0.775 0 0  0.8 0 0  0.825 0 0  0.85 0 0  0.875 0 0  0.9 0 0  0.925 0 0  0.95 0 0  0.975 0 0  1 0 0  0 0.025 0  0.025 0.025 0  0.05 0.025 0  0.075 0.025 0  0.1 0.025 0  0.125 0.025 0  0.15 0.025 0  0.175 0.025 0  0.2 0.025 0  0.225 0.025 0  0.25 0.025 0  0.275 0.025 0  0.3 0.025 0  0.325 0.025 0  0.35 0.025 0  0.375 0.025 0  0.4 0.025 0  0.425 0.025 0  0.45 0.025 0  0.475 0.025 0  0.5 0.025 0  0.525 0.025 0  0.55 0.025 0  0.575 0.025 0  0.6 0.025 0  0.625 0.025 0  0.65 0.025 0  0.675 0.025 0  0.7 0.025 0  0.725 0.025 0  0.75 0.025 0  0.775 0.025 0  0.8 0.025 0  0.825 0.025 0  0.85 0.025 0  0.875 0.025 0  0.9 0.025 0  0.925 0.025 0  0.95 0.025 0  0.975 0.025 0  1 0.025 0  0 0.05 0  0.025 0.05 0  0.05 0.05 0  0.075 0.05 0  0.1 0.05 0  0.125 0.05 0  0.15 0.05 0  0.175 0.05 0  0.2 0.05 0  0.225 0.05 0  0.25 0.05 0  0.275 0.05 0  0.3 0.05 0  0.325 0.05 0  0.35 0.05 0  0.375 0.05 0  0.4 0.05 0  0.425 0.05 0  0.45 0.05 0  0.475 0.05 0  0.5 0.05 0  0.525 0.05 0  0.55 0.05 0  0.575 0.05 0  0.6 0.05 0  0.625 0.05 0  0.65 0.05 0  0.675 0.05 0  0.7 0.05 0  0.725 0.05 0  0.75 0.05 0  0.775 0.05 0  0.8 0.05 0  0.825 0.05 0  0.85 0.05 0  0.875 0.05 0  0.9 0.05 0  0.925 0.05 0  0.95 0.05 0  0.975 0.05 0  1 0.05 0  0 0.075 0  0.025 0.075 0  0.05 0.075 0  0.075 0.075 0  0.1 0.075 0  0.125 0.075 0  0.15 0.075 0  0.175 0.075 0  0.2 0.075 0  0.225 0.075 0  0.25 0.075 0  0.275 0.075 0  0.3 0.075 0  0.325 0.075 0  0.35 0.075 0  0.375 0.075 0  0.4 0.075 0  0.425 0.075 0  0.45 0.075 0  0.475 0.075 0  0.5 0.075 0  0.525 0.075 0  0.55 0.075 0  0.575 0.075 0  0.6 0.075 0  0.625 0.075 0  0.65 0.075 0  0.675 0.075 0  0.7 0.075 0  0.725 0.075 0  0.75 0.075 0  0.775 0.075 0  0.8 0.075 0  0.825 0.075 0  0.85 0.075 0  0.875 0.075 0  0.9 0.075 0  0.925 0.075 0  0.95 0.075 0  0.975 0.075 0  1 0.075 0  0 0.1 0  0.025 0.1 0  0.05 0.1 0  0.075 0.1 0  0.1 0.1 0  0.125 0.1 0  0.15 0.1 0  0.175 0.1 0  0.2 0.1 0  0.225 0.1 0  0.25 0.1 0  0.275 0.1 0  0.3 0.1 0  0.325 0.1 0  0.35 0.1 0  0.375 0.1 0  0.4 0.1 0  0.425 0.1 0  0.45 0.1 0  0.475 0.1 0  0.5 0.1 0  0.525 0.1 0  0.55 0.1 0  0.575 0.1 0  0.6 0.1 0  0.625 0.1 0  0.65 0.1 0  0.675 0.1 0  0.7 0.1 0  0.725 0.1 0  0.75 0.1 0  0.775 0.1 0  0.8 0.1 0  0.825 0.1 0  0.85 0.1 0  0.875 0.1 0  0.9 0.1 0  0.925 0.1 0  0.95 0.1 0  0.975 0.1 0  1 0.1 0  0 0.125 0  0.025 0.125 0  0.05 0.125 0  0.075 0.125 0  0.1 0.125 0  0.125 0.125 0  0.15 0.125 0  0.175 0.125 0  0.2 0.125 0  0.225 0.125 0  0.25 0.125 0  0.275 0.125 0  0.3 0.125 0  0.325 0.125 0  0.35 0.125 0  0.375 0.125 0  0.4 0.125 0  0.425 0.125 0  0.45 0.125 0  0.475 0.125 0  0.5 0.125 0  0.525 0.125 0  0.55 0.125 0  0.575 0.125 0  0.6 0.125 0  0.625 0.125 0  0.65 0.125 0  0.675 0.125 0  0.7 0.125 0  0.725 0.125 0  0.75 0.125 0  0.775 0.125 0  0.8 0.125 0  0.825 0.125 0  0.85 0.125 0  0.875 0.125 0  0.9 0.125 0  0.925 0.125 0  0.95 0.125 0  0.975 0.125 0  1 0.125 0  0 0.15 0  0.025 0.15 0  0.05 0.15 0  0.075 0.15 0  0.1 0.15 0  0.125 0.15 0  0.15 0.15 0  0.175 0.15 0  0.2 0.15 0  0.225 0.15 0  0.25 0.15 0  0.275 0.15 0  0.3 0.15 0  0.325 0.15 0  0.35 0.15 0  0.375 0.15 0  0.4 0.15 0  0.425 0.15 0  0.45 0.15 0  0.475 0.15 0  0.5 0.15 0  0.525 0.15 0  0.55 0.15 0  0.575 0.15 0  0.6 0.15 0  0.625 0.15 0  0.65 0.15 0  0.675 0.15 0  0.7 0.15 0  0.725 0.15 0  0.75 0.15 0  0.775 0.15 0  0.8 0.15 0  0.825 0.15 0  0.85 0.15 0  0.875 0.15 0  0.9 0.15 0  0.925 0.15 0  0.95 0.15 0  0.975 0.15 0  1 0.15 0  0 0.175 0  0.025 0.175 0  0.05 0.175 0  0.075 0.175 0  0.1 0.175 0  0.125 0.175 0  0.15 0.175 0  0.175 0.175 0  0.2 0.175 0  0.225 0.175 0  0.25 0.175 0  0.275 0.175 0  0.3 0.175 0  0.325 0.175 0  0.35 0.175 0  0.375 0.175 0  0.4 0.175 0  0.425 0.175 0  0.45 0.175 0  0.475 0.175 0  0.5 0.175 0  0.525 0.175 0  0.55 0.175 0  0.575 0.175 0  0.6 0.175 0  0.625 0.175 0  0.65 0.175 0  0.675 0.175 0  0.7 0.175 0  0.725 0.175 0  0.75 0.175 0  0.775 0.175 0  0.8 0.175 0  0.825 0.175 0  0.85 0.175 0  0.875 0.175 0  0.9 0.175 0  0.925 0.175 0  0.95 0.175 0  0.975 0.175 0  1 0.175 0  0 0.2 0  0.025 0.2 0  0.05 0.2 0  0.075 0.2 0  0.1 0.2 0  0.125 0.2 0  0.15 0.2 0  0.175 0.2 0  0.2 0.2 0  0.225 0.2 0  0.25 0.2 0  0.275 0.2 0  0.3 0.2 0  0.325 0.2 0  0.35 0.2 0  0.375 0.2 0  0.4 0.2 0  0.425 0.2 0  0.45 0.2 0  0.475 0.2 0  0.5 0.2 0  0.525 0.2 0  0.55 0.2 0  0.575 0.2 0  0.6 0.2 0  0.625 0.2 0  0.65 0.2 0  0.675 0.2 0  0.7 0.2 0  0.725 0.2 0  0.75 0.2 0  0.775 0.2 0  0.8 0.2 0  0.825 0.2 0  0.85 0.2 0  0.875 0.2 0  0.9 0.2 0  0.925 0.2 0  0.95 0.2 0  0.975 0.2 0  1 0.2 0  0 0.225 0  0.025 0.225 0  0.05 0.225 0  0.075 0.225 0  0.1 0.225 0  0.125 0.225 0  0.15 0.225 0  0.175 0.225 0  0.2 0.225 0  0.225 0.225 0  0.25 0.225 0  0.275 0.225 0  0.3 0.225 0  0.325 0.225 0  0.35 0.225 0  0.375 0.225 0  0.4 0.225 0  0.425 0.225 0  0.45 0.225 0  0.475 0.225 0  0.5 0.225 0  0.525 0.225 0  0.55 0.225 0  0.575 0.225 0  0.6 0.225 0  0.625 0.225 0  0.65 0.225 0  0.675 0.225 0  0.7 0.225 0  0.725 0.225 0  0.75 0.225 0  0.775 0.225 0  0.8 0.225 0  0.825 0.225 0  0.85 0.225 0  0.875 0.225 0  0.9 0.225 0  0.925 0.225 0  0.95 0.225 0  0.975 0.225 0  1 0.225 0  0 0.25 0  0.025 0.25 0  0.05 0.25 0  0.075 0.25 0  0.1 0.25 0  0.125 0.25 0  0.15 0.25 0  0.175 0.25 0  0.2 0.25 0  0.225 0.25 0  0.25 0.25 0  0.275 0.25 0  0.3 0.25 0  0.325 0.25 0  0.35 0.25 0  0.375 0.25 0  0.4 0.25 0  0.425 0.25 0  0.45 0.25 0  0.475 0.25 0  0.5 0.25 0  0.525 0.25 0  0.55 0.25 0  0.575 0.25 0  0.6 0.25 0  0.625 0.25 0  0.65 0.25 0  0.675 0.25 0  0.7 0.25 0  0.725 0.25 0  0.75 0.25 0  0.775 0.25 0  0.8 0.25 0  0.825 0.25 0  0.85 0.25 0  0.875 0.25 0  0.9 0.25 0  0.925 0.25 0  0.95 0.25 0  0.975 0.25 0  1 0.25 0  0 0.275 0  0.025 0.275 0  0.05 0.275 0  0.075 0.275 0  0.1 0.275 0  0.125 0.275 0  0.15 0.275 0  0.175 0.275 0  0.2 0.275 0  0.225 0.275 0  0.25 0.275 0  0.275 0.275 0  0.3 0.275 0  0.325 0.275 0  0.35 0.275 0  0.375 0.275 0  0.4 0.275 0  0.425 0.275 0  0.45 0.275 0  0.475 0.275 0  0.5 0.275 0  0.525 0.275 0  0.55 0.275 0  0.575 0.275 0  0.6 0.275 0  0.625 0.275 0  0.65 0.275 0  0.675 0.275 0  0.7 0.275 0  0.725 0.275 0  0.75 0.275 0  0.775 0.275 0  0.8 0.275 0  0.825 0.275 0  0.85 0.275 0  0.875 0.275 0  0.9 0.275 0  0.925 0.275 0  0.95 0.275 0  0.975 0.275 0  1 0.275 0  0 0.3 0  0.025 0.3 0  0.05 0.3 0  0.075 0.3 0  0.1 0.3 0  0.125 0.3 0  0.15 0.3 0  0.175 0.3 0  0.2 0.3 0  0.225 0.3 0  0.25 0.3 0  0.275 0.3 0  0.3 0.3 0  0.325 0.3 0  0.35 0.3 0  0.375 0.3 0  0.4 0.3 0  0.425 0.3 0  0.45 0.3 0  0.475 0.3 0  0.5 0.3 0  0.525 0.3 0  0.55 0.3 0  0.575 0.3 0  0.6 0.3 0  0.625 0.3 0  0.65 0.3 0  0.675 0.3 0  0.7 0.3 0  0.725 0.3 0  0.75 0.3 0  0.775 0.3 0  0.8 0.3 0  0.825 0.3 0  0.85 0.3 0  0.875 0.3 0  0.9 0.3 0  0.925 0.3 0  0.95 0.3 0  0.975 0.3 0  1 0.3 0  0 0.325 0  0.025 0.325 0  0.05 0.325 0  0.075 0.325 0  0.1 0.325 0  0.125 0.325 0  0.15 0.325 0  0.175 0.325 0  0.2 0.325 0  0.225 0.325 0  0.25 0.325 0  0.275 0.325 0  0.3 0.325 0  0.325 0.325 0  0.35 0.325 0  0.375 0.325 0  0.4 0.325 0  0.425 0.325 0  0.45 0.325 0  0.475 0.325 0  0.5 0.325 0  0.525 0.325 0  0.55 0.325 0  0.575 0.325 0  0.6 0.325 0  0.625 0.325 0  0.65 0.325 0  0.675 0.325 0  0.7 0.325 0  0.725 0.325 0  0.75 0.325 0  0.775 0.325 0  0.8 0.325 0  0.825 0.325 0  0.85 0.325 0  0.875 0.325 0  0.9 0.325 0  0.925 0.325 0  0.95 0.325 0  0.975 0.325 0  1 0.325 0  0 0.35 0  0.025 0.35 0  0.05 0.35 0  0.075 0.35 0  0.1 0.35 0  0.125 0.35 0  0.15 0.35 0  0.175 0.35 0  0.2 0.35 0  0.225 0.35 0  0.25 0.35 0  0.275 0.35 0  0.3 0.35 0  0.325 0.35 0  0.35 0.35 0  0.375 0.35 0  0.4 0.35 0  0.425 0.35 0  0.45 0.35 0  0.475 0.35 0  0.5 0.35 0  0.525 0.35 0  0.55 0.35 0  0.575 0.35 0  0.6 0.35 0  0.625 0.35 0  0.65 0.35 0  0.675 0.35 0  0.7 0.35 0  0.725 0.35 0  0.75 0.35 0  0.775 0.35 0  0.8 0.35 0  0.825 0.35 0  0.85 0.35 0  0.875 0.35 0  0.9 0.35 0  0.925 0.35 0  0.95 0.35 0  0.975 0.35 0  1 0.35 0  0 0.375 0  0.025 0.375 0  0.05 0.375 0  0.075 0.375 0  0.1 0.375 0  0.125 0.375 0  0.15 0.375 0  0.175 0.375 0  0.2 0.375 0  0.225 0.375 0  0.25 0.375 0  0.275 0.375 0  0.3 0.375 0  0.325 0.375 0  0.35 0.375 0  0.375 0.375 0  0.4 0.375 0  0.425 0.375 0  0.45 0.375 0  0.475 0.375 0  0.5 0.375 0  0.525 0.375 0  0.55 0.375 0  0.575 0.375 0  0.6 0.375 0  0.625 0.375 0  0.65 0.375 0  0.675 0.375 0  0.7 0.375 0  0.725 0.375 0  0.75 0.375 0  0.775 0.375 0  0.8 0.375 0  0.825 0.375 0  0.85 0.375 0  0.875 0.375 0  0.9 0.375 0  0.925 0.375 0  0.95 0.375 0  0.975 0.375 0  1 0.375 0  0 0.4 0  0.025 0.4 0  0.05 0.4 0  0.075 0.4 0  0.1 0.4 0  0.125 0.4 0  0.15 0.4 0  0.175 0.4 0  0.2 0.4 0  0.225 0.4 0  0.25 0.4 0  0.275 0.4 0  0.3 0.4 0  0.325 0.4 0  0.35 0.4 0  0.375 0.4 0  0.4 0.4 0  0.425 0.4 0  0.45 0.4 0  0.475 0.4 0  0.5 0.4 0  0.525 0.4 0  0.55 0.4 0  0.575 0.4 0  0.6 0.4 0  0.625 0.4 0  0.65 0.4 0  0.675 0.4 0  0.7 0.4 0  0.725 0.4 0  0.75 0.4 0  0.775 0.4 0  0.8 0.4 0  0.825 0.4 0  0.85 0.4 0  0.875 0.4 0  0.9 0.4 0  0.925 0.4 0  0.95 0.4 0  0.975 0.4 0  1 0.4 0  0 0.425 0  0.025 0.425 0  0.05 0.425 0  0.075 0.425 0  0.1 0.425 0  0.125 0.425 0  0.15 0.425 0  0.175 0.425 0  0.2 0.425 0  0.225 0.425 0  0.25 0.425 0  0.275 0.425 0  0.3 0.425 0  0.325 0.425 0  0.35 0.425 0  0.375 0.425 0  0.4 0.425 0  0.425 0.425 0  0.45 0.425 0  0.475 0.425 0  0.5 0.425 0  0.525 0.425 0  0.55 0.425 0  0.575 0.425 0  0.6 0.425 0  0.625 0.425 0  0.65 0.425 0  0.675 0.425 0  0.7 0.425 0  0.725 0.425 0  0.75 0.425 0  0.775 0.425 0  0.8 0.425 0  0.825 0.425 0  0.85 0.425 0  0.875 0.425 0  0.9 0.425 0  0.925 0.425 0  0.95 0.425 0  0.975 0.425 0  1 0.425 0  0 0.45 0  0.02
[...]
<PointData  Scalars="ControlVisualisation"> 
<DataArray  type="Float64"  Name="ControlVisualisation"  format="ascii">3.7226719970387179e-01  3.5420932511895531e-01  3.5426915478843718e-01  3.5448999902823314e-01  3.5485737018927233e-01  3.5529737866510802e-01  3.5573122983551436e-01  3.5610238246918846e-01  3.5638321404552281e-01  3.5656909405893294e-01  3.5666912088275454e-01  3.5669832613613578e-01  3.5667263538531691e-01  3.5660655446060324e-01  3.5651191999682835e-01  3.5639799931612109e-01  3.5627183092013381e-01  3.5613850416386411e-01  3.5600170052050023e-01  3.5586397751224735e-01  3.5572716942834209e-01  3.5559252634479832e-01  3.5546093353627461e-01  3.5533303484290896e-01  3.5520939309996002e-01  3.5509046788707715e-01  3.5497671906337208e-01  3.5486863759970744e-01  3.5476673927184560e-01  3.5467160499350026e-01  3.5458384333451337e-01  3.5450406937885831e-01  3.5443293006263654e-01  3.5437106348982467e-01  3.5431906980128952e-01  3.5427753671642087e-01  3.5424706467002914e-01  3.5422828534800049e-01  3.5422105833973538e-01  3.5422146356297762e-01  3.9053848486365234e-01  3.5420675971246729e-01  3.0173106816465939e-01  3.0283273445953984e-01  3.0529404213801120e-01  3.0903215073941731e-01  3.1342468269120055e-01  3.1775507190106761e-01  3.2149577530972451e-01  3.2437705876820322e-01  3.2634019821529608e-01  3.2745745119269293e-01  3.2786228664684036e-01  3.2770240731256955e-01  3.2711597315500740e-01  3.2621929324102528e-01  3.2510579693799535e-01  3.2384733292970169e-01  3.2249773773883084e-01  3.2109650475313356e-01  3.1967212051741517e-01  3.1824505208936377e-01  3.1683003366733614e-01  3.1543767306959758e-01  3.1407616990609855e-01  3.1275199371820622e-01  3.1147106899378896e-01  3.1023887188587657e-01  3.0906092128865542e-01  3.0794325968409847e-01  3.0689230207696583e-01  3.0591490728833542e-01  3.0501819323691320e-01  3.0420939014557880e-01  3.0349582032347738e-01  3.0288452098477342e-01  3.0238217078225599e-01  3.0199494116919390e-01  3.0172752406869863e-01  3.0157716868126055e-01  3.0152140810760386e-01  3.5422146217285738e-01  3.5424444485772394e-01  3.0283658218432091e-01  3.0656071730634471e-01  3.1259152989749095e-01  3.2073745041347645e-01  3.2987063453561244e-01  3.3864341887208599e-01  3.4609158488748520e-01  3.5175358310826677e-01  3.5555950121896762e-01  3.5767239194488093e-01  3.5836189562472265e-01  3.5792048267140159e-01  3.5661978500741892e-01  3.5469036138703752e-01  3.5231834953132085e-01  3.4964810214366854e-01  3.4678844973284118e-01  3.4381988276570341e-01  3.4080094128355148e-01  3.3777411697619503e-01  3.3477003440611403e-01  3.3181102346446467e-01  3.2891423967813893e-01  3.2609369044676845e-01  3.2336154282951007e-01  3.2072949017280900e-01  3.1820928038173119e-01  3.1581351440175537e-01  3.1355568160023423e-01  3.1145022314363774e-01  3.0951233383140542e-01  3.0775744751409334e-01  3.0620120101453291e-01  3.0485872112210671e-01  3.0374385997215003e-01  3.0286770508735616e-01  3.0223288157337630e-01  3.0181786569722024e-01  3.0157718557398006e-01  3.5422103585318276e-01  3.5441382916553643e-01  3.0564937156867811e-01  3.1394676334033833e-01  3.2372317459889793e-01  3.3467564095573693e-01  3.4580825120882036e-01  3.5583342479312591e-01  3.6391106758309483e-01  3.6973104245217159e-01  3.7335696752393766e-01  3.7505224906383849e-01  3.7515825439720507e-01  3.7401986829720335e-01  3.7194689869221526e-01  3.6919932588586857e-01  3.6598481235778108e-01  3.6246365769617339e-01  3.5875618474574755e-01  3.5495101113756755e-01  3.5111220037074425e-01  3.4728558412592309e-01  3.4350447323563249e-01  3.3979247313734828e-01  3.3616784686324636e-01  3.3264559588568154e-01  3.2923897271516661e-01  3.2596079611266748e-01  3.2282439046893874e-01  3.1984440364244354e-01  3.1703668399293278e-01  3.1441825221470687e-01  3.1200738085577912e-01  3.0982284314011321e-01  3.0788347966746016e-01  3.0620740433565236e-01  3.0481018339327592e-01  3.0370016600266742e-01  3.0286440850190616e-01  3.0223696065047750e-01  3.0172861942099016e-01  3.5422821151227224e-01  3.5475323792886926e-01  3.1117231446621607e-01  3.2864656105171181e-01  3.4381606621502303e-01  3.5647798548978532e-01  3.6702213384592036e-01  3.7530492730793114e-01  3.8121995238906309e-01  3.8487807054509615e-01  3.8654515871997785e-01  3.8655297583695442e-01  3.8524141939286377e-01  3.8292399587069448e-01  3.7987054956940902e-01  3.7630270560620782e-01  3.7239543813251968e-01  3.6828212189649528e-01  3.6406201642606661e-01  3.5980738956496983e-01  3.5556938984738690e-01  3.5138416453870136e-01  3.4727730159981418e-01  3.4326677403328654e-01  3.3936615074989812e-01  3.3558710942669678e-01  3.3194030252689249e-01  3.2843687905516911e-01  3.2508892098299147e-01  3.2191053267394937e-01  3.1891734514777031e-01  3.1612660926271779e-01  3.1355706974964842e-01  3.1122828162942218e-01  3.0915991044368235e-01  3.0737032001318615e-01  3.0587360056007218e-01  3.0467050991622030e-01  3.0372138465154896e-01  3.0288807661722900e-01  3.0200143652077766e-01  3.5424707519123555e-01  3.5527647746184787e-01  3.2434358826639614e-01  3.5989914985652061e-01  3.8230253828329464e-01  3.9358544064325807e-01  3.9925257967125377e-01  4.0188690136926980e-01  4.0255628057532611e-01  4.0177919676088764e-01  3.9987824584862014e-01  3.9709881866971353e-01  3.9364847780701145e-01  3.8970761777835083e-01  3.8542920801211861e-01  3.8093919338475651e-01  3.7633721232901657e-01  3.7169926681884979e-01  3.6708101445711333e-01  3.6252221285360825e-01  3.5804958025907041e-01  3.5368143526679574e-01  3.4942977298200256e-01  3.4530243875377620e-01  3.4130569838902602e-01  3.3744534802484027e-01  3.3372809484192573e-01  3.3016181542089151e-01  3.2675644868676046e-01  3.2352453157896283e-01  3.2048078762321708e-01  3.1764202865278179e-01  3.1502689845848630e-01  3.1265509806463793e-01  3.1054650868694056e-01  3.0871921862052121e-01  3.0718459467081111e-01  3.0593261591245291e-01  3.0488669773377136e-01  3.0380669528002546e-01  3.0240441529440826e-01  3.5427818566862979e-01  3.6487210450518343e-01  3.6961903277601926e-01  4.3193888457262125e-01  4.5390644151619247e-01  4.5399045663633925e-01  4.4668751049584576e-01  4.3792261042845043e-01  4.2954538344008952e-01  4.2189730842153245e-01  4.1488525998525172e-01  4.0834685925423087e-01  4.0215209134240937e-01  3.9621884558101717e-01  3.9050165351938848e-01  3.8497810680199979e-01  3.7963847437346276e-01  3.7447801984464468e-01  3.6949362461600876e-01  3.6468169397220318e-01  3.6003745931487918e-01  3.5555610995300430e-01  3.5123249439292353e-01  3.4706214423848780e-01  3.4304206290176376e-01  3.3917098366808940e-01  3.3545052390751834e-01  3.3188493787267170e-01  3.2848130196684078e-01  3.2525031903817675e-01  3.2220550649984026e-01  3.1936310405844948e-01  3.1674155288710243e-01  3.1436072288157074e-01  3.1224077559882552e-01  3.1039935454016082e-01  3.0884456702134766e-01  3.0755246758554600e-01  3.0639863664942557e-01  3.0501039345579878e-01  3.0294164185931904e-01  3.5432158212174736e-01  4.8191490603102494e-01  5.3538019801160608e-01  5.7567775745893668e-01  5.6792026947777841e-01  5.4050900605132179e-01  5.0971532012515819e-01  4.8295278500596783e-01  4.6161460181081415e-01  4.4484134699629119e-01  4.3143239582099202e-01  4.2040036557489985e-01  4.1104092091213490e-01  4.0287670089015498e-01  3.9558911892307663e-01  3.8896546535006832e-01  3.8286173264439033e-01  3.7717762638063240e-01  3.7184188106221561e-01  3.6680173426286650e-01  3.6201719758319656e-01  3.5745748863538535e-01  3.5309863631134086e-01  3.4892250187559293e-01  3.4491564516796763e-01  3.4106933125907668e-01  3.3737945348715537e-01  3.3384615737279993e-01  3.3047343376134175e-01  3.2726978372096682e-01  3.2424737090943645e-01  3.2142179242813135e-01  3.1881128705905171e-01  3.1643587922674082e-01  3.1431617201066364e-01  3.1246925296795519e-01  3.1089914122000145e-01  3.0956461862808887e-01  3.0828193167721929e-01  3.0651430904523386e-01  3.0361857113122415e-01  3.5437758230818195e-01  7.0759607663021629e-01  7.8854809235599377e-01  7.4565028650217358e-01  7.0057432204404146e-01  6.4110080585256168e-01  5.8153166939584844e-01  5.3275485054027627e-01  4.9603765282288503e-01  4.6885123154932690e-01  4.4840747899657302e-01  4.3258486265526414e-01  4.1993418210197919e-01  4.0949573254236399e-01  4.0063460943680801e-01  3.9292615505169032e-01  3.8608244002230019e-01  3.7990239357780931e-01  3.7424474147932318e-01  3.6900667510959345e-01  3.6411214321225954e-01  3.5950421552486678e-01  3.5513984487706285e-01  3.5098701633465734e-01  3.4702176216413483e-01  3.4322735516898462e-01  3.3959399299059323e-01  3.3611719118815714e-01  3.3279791610230008e-01  3.2964212319048225e-01  3.2666035878638167e-01  3.2386744527194050e-01  3.2128134742604642e-01  3.1892241006306210e-01  3.1681138823574828e-01  3.1496476477988422e-01  3.1338145532539174e-01  3.1199904265208772e-01  3.1056211244770054e-01  3.0833705588159344e-01  3.0444300523204082e-01  3.5444679038641486e-01  7.9871836718804545e-01  8.8201729594174350e-01  8.4264986668061936e-01  8.0261665352518430e-01  7.2982700118584698e-01  6.4833405689806300e-01  5.7961605704562447e-01  5.2829662712157210e-01  4.9119003241744008e-01  4.6411086935346563e-01  4.4382625091714656e-01  4.2814610464991743e-01  4.1563615551579591e-01  4.0535671616582120e-01  3.9668227927164290e-01  3.8918993023130777e-01  3.8258659109347704e-01  3.7666559656092136e-01  3.7127882405533735e-01  3.6631662532519482e-01  3.6169841839697758e-01  3.5736329102705700e-01  3.5326614938782180e-01  3.4937306834030624e-01  3.4565980398241181e-01  3.4211071571407514e-01  3.3871664349360964e-01  3.3547529207600102e-01  3.3238998036503242e-01  3.2946945257307098e-01  3.2672734708820744e-01  3.2418134790398440e-01  3.2185192422314762e-01  3.1975978730346161e-01  3.1792057712445343e-01  3.1632678050005153e-01  3.1489026119070063e-01  3.1327053769388119e-01  3.1050262747834362e-01  3.0542544258569682e-01  3.5453006287830519e-01  8.1728338891727870e-01  9.0520675889006463e-01  8.7951252993589069e-01  8.5283339658970458e-01  7.8458588598570222e-01  6.9545505660207751e-01  6.1480258751528993e-01  5.5327662577860692e-01  5.0880958066120185e-01  4.7667276749099780e-01  4.5294124029462302e-01  4.3490561823731438e-01  4.2078263882465555e-01  4.0940275605940479e-01  3.9998765672332021e-01  3.9200943738087285e-01  3.8510327578430226e-01  3.7901116487939174e-01  3.7354788609655704e-01  3.6857735517090962e-01  3.6399915535859634e-01  3.5973758407788109e-01  3.5573633896999268e-01  3.5195276694770555e-01  3.4835577871180712e-01  3.4492448636229767e-01  3.4164520516323055e-01  3.3851198277582289e-01  3.3552543996591416e-01  3.3269237486002978e-01  3.3002498223191734e-01  3.2754005535855241e-01  3.2525793984090762e-01  3.2319922769750759e-01  3.2137779526937776e-01  3.1977801538143374e-01  3.1828111050809915e-01  3.1644688133367654e-01  3.1304186739638473e-01  3.0657940344862949e-01  3.5462850992465372e-01  7.9220626929076110e-01  8.8774597181984494e-01  8.7076839709558862e-01  8.5569117964570740e-01  7.9858543730334008e-01  7.1416599447103790e-01  6.3192641409012340e-01  5.6693579687507090e-01  5.1921338398162353e-01  4.8452576144329612e-01  4.5891545182997240e-01  4.3953347631930711e-01  4.2446537517160438e-01  4.1243819967263490e-01  4.0259706320766303e-01  3.9435703588370619e-01  3.8731126739664179e-01  3.8117057161072054e-01  3.7572571437650620e-01  3.7082305529222503e-01  3.6634840440820648e-01  3.6221552749909630e-01  3.5835944120742641e-01  3.5473105572169639e-01  3.5129346498750502e-01  3.4802095817287509e-01  3.4489615898856163e-01  3.4190923011737256e-01  3.3905793813199325e-01  3.3634662856337988e-01  3.3378557313540119e-01  3.3139039118648372e-01  3.2918049704045538e-01  3.2717580905460836e-01  3.2538745085431980e-01  3.2378945171817292e-01  3.2222640296292876e-01  3.2014206052611338e-01  3.1599424114068747e-01  3.0792226291811658e-01  3.5474355402768087e-01  6.7733232251968145e-01  8.2462101641966212e-01  8.1196265488713171e-01  8.1712148110846838e-01  7.7535862622858231e-01  7.0366025775362140e-01  6.2908693678455185e-01  5.6761385716955759e-01  5.2118295276268722e-01  4.8680717786684191e-01  4.6113309006725595e-01  4.4158065926182966e-01  4.2634842059740308e-01  4.1420554747893157e-01  4.0430869130727515e-01  3.9607125624785050e-01  3.8907936332125093e-01  3.8303521160854725e-01  3.7772145310647132e-01  3.7297690621199547e-01  3.6868088818259265e-01  3.6474170479891810e-01  3.6108920598060146e-01  3.5767010285327983e-01  3.5444353213498270e-01  3.5137972680067053e-01  3.4845794186794443e-01  3.4566499605186540e-01  3.4299550749677038e-01  3.4045070377341041e-01  3.3803817000912956e-01  3.3577150245144821e-01  3.3366836056380061e-01  3.3174688163334543e-01  3.3001402105951128e-01  3.2843028150001069e-01  3.2679629744618105e-01  3.2442125668567101e-01  3.1941020094771111e-01  3.0947617522611975e-01  3.5487704634464529e-01  4.3901145537967612e-01  6.4292988198803613e-01  7.1526153326831965e-01  7.4602080433385309e-01  7.2355082680466964e-01  6.6959614382725985e-01  6.0899613091459504e-01  5.5639153993354495e-01  5.1505968328330587e-01  4.8354421572979778e-01  4.5949604198342242e-01  4.4090599688281812e-01  4.2628251519761978e-01  4.1456200432715906e-01  4.0499170961474229e-01  3.9703412494158902e-01  3.9030165097370556e-01  3.8451053490124670e-01  3.7945041217028019e-01  3.7496331021944512e-01  3.7092943859361305e-01  3.6725685272303676e-01  3.6387416237072140e-01  3.6072644178508095e-01  3.5777065466588165e-01  3.5497471608839870e-01  3.5231486313468380e-01  3.4977473992542596e-01  3.4734550698369315e-01  3.4502468502932304e-01  3.4281632703387449e-01  3.4073064632464883e-01  3.3878191129712476e-01  3.3698468728445058e-01  3.3533943073305900e-01  3.3378893381086339e-01  3.3208067612567599e-01  3.2936802681760458e-01  3.2335432843096917e-01  3.1126947275928873e-01  3.5503132417052352e-01  3.6560028952058982e-01  4.5469329102163097e-01  6.0612847028513628e-01  6.5976222620804736e-01  6.5638032190391216e-01  6.2172303153265329e-01  5.7752801701517120e-01  5.3644930406476699e-01  5.0248853356454437e-01  4.7556233789917401e-01  4.5439937822023702e-01  4.3767745347409254e-01  4.2431514913977536e-01  4.1349136880991438e-01  4.0459684441028415e-01  3.9718017792190735e-01  3.9090588268157245e-01  3.8552266382915840e-01  3.8084000543317387e-01  3.7671254590365777e-01  3.7302824734446349e-01  3.6970004026962794e-01  3.6665907650186658e-01  3.6385143078081977e-01  3.6123417536193236e-01  3.5877419975129199e-01  3.5644578711868508e-01  3.5422970446813912e-01  3.5211327966403017e-01  3.5008966396086721e-01  3.4815820625543786e-01  3.4632366578690504e-01  3.4459473722614370e-01  3.4297937200200579e-01  3.4146779319602499e-01  3.3997904090331027e-01  3.3819579524739901e-01  3.3509019156290171e-01  3.2790960124802954e-01  3.1333842905414044e-01  3.5520938261770069e-01  3.6081806279499185e-01  3.9390044385213185e-01  5.2128550715331845e-01  5.8001099015196900e-01  5.8914401917802539e-01  5.7058524150286039e-01  5.4140782276197141e-01  5.1179915380434848e-01  4.8578252588362186e-01  4.6417789410230031e-01  4.4658440868236737e-01  4.3230337411333369e-01  4.2066043327895680e-01  4.1109282141959735e-01  4.0315480295289552e-01  3.9649905578478190e-01  3.9085749211673843e-01  3.8602281114296755e-01  3.8183363121153840e-01  3.7816440018098646e-01  3.7491626810031498e-01  3.7201111970524670e-01  3.6938645689988375e-01  3.6699224093552218e-01  3.6478765262226198e-01  3.6274020362889192e-01  3.6082344075272099e-01  3.5901579352954049e-01  3.5730110960609662e-01  3.5566710114155931e-01  3.5410674335694969e-01  3.5261679658326595e-01  3.5119717969095560e-01  3.4984460007867652e-01  3.4853287279746420e-01  3.4714833927559846e-01  3.4529311479602387e-01  3.4172820623369765e-01  3.3318333604514150e-01  3.1572983076103639e-01  3.5541508963911150e-01  3.5996710087324085e-01  3.7351965589997693e-01  4.6959702080161470e-01  5.1900926586233842e-01  5.3207091323534250e-01  5.2381371530550302e-01  5.0601696745963110e-01  4.8601106828730278e-01  4.6722285761123306e-01  4.5082030550491092e-01  4.3693616077675235e-01  4.2532469395166050e-01  4.1564163658661418e-01  4.0755156398342940e-01  4.0076212865343841e-01  3.9503038232390503e-01  3.9015880001895681e-01  3.8598894647614146e-01  3.8239342053281894e-01  3.7927068741824016e-01  3.7653906601236836e-01  3.7413266279321150e-01  3.7199816795861551e-01  3.7009227645782655e-01  3.6837857382716654e-01  3.6682723866326777e-01  3.6541232198931323e-01  3.6411157542242617e-01  3.6290535179191341e-01  3.6177596111548393e-01  3.6070789251168539e-01  3.5968693003722746e-01  3.5869908826454711e-01  3.5772319795058077e-01  3.5670687791726441e-01  3.5549012817718967e-01  3.5357253313666615e-01  3.4946630549530067e-01  3.3931556626670467e-01  3.1850412761733127e-01  3.5565340170548865e-01  3.5902467577847819e-01  3.5974443575099224e-01  4.3504393754867848e-01  4.7456285498195844e-01  4.8729926019341441e-01  4.8459117511786298e-01  4.7435134425384906e-01  4.6149138777300225e-01  4.4858135425018525e-01  4.3673100013690586e-01  4.2629944275736170e-01  4.1730488522259579e-01  4.0962694526833648e-01  4.0310091584618074e-01  3.9755977981888696e-01  3.9285111242538012e-01  3.8884284801669494e-01  3.8542325188397231e-01  3.8249976923449491e-01  3.7999617790065188e-01  3.7785014878636736e-01  3.7601060867241221e-01  3.7443584261268270e-01  3.7309127872437259e-01  3.7194782996983661e-01  3.7098045133403368e-01  3.7016653120768273e-01  3.6948453912840590e-01  3.6891279102263169e-01  3.6842879089384378e-01  3.6800732138594594e-01  3.6761989567976455e-01  3.6723201352693130e-01  3.6679416295597023e-01  3.6621299958973758e-01  3.6526002071593294e-01  3.6330037382145330e-01  3.5855012224217481e-01  3.4649053171112870e-01  3.2174028197778259e-01  3.5593073182189566e-01  3.5827033494620991e-01  3.4987736681717235e-01  4.1083481838064362e-01  4.4210709508915025e-01  4.5301079087927942e-01  4.5295101094773188e-01  4.4735685981055362e-01  4.3944241203658801e-01  4.3097101116819309e-01  4.2281616130171401e-01  4.1536466407659534e-01  4.0874902503624405e-01  4.0297480499531357e-01  3.9798835504939822e-01  3.9371228963125676e-01  3.9006470405539401e-01  3.8696720193017631e-01  3.8434936179596846e-01  3.8215054381205693e-01  3.8031929544615062e-01  3.7881301732892947e-01  3.7759694571199481e-01  3.7664262131463377e-01  3.7592675531265024e-01  3.7542995428293996e-01  3.7513518452536904e-01  3.7502651230033279e-01  3.7508664299356348e-01  3.7529491537696713e-01  3.7562582050536281e-01  3.7604522061623047e-01  3.7650758824018554e-01  3.7695020406266416e-01  3.7728103876489355e-01  3.7734222772736042e-01  3.7680125034215461e-01  3.7483860385477780e-01  3.6931106968110777e-01  3.5495355927556432e-01  3.2554140634977224e-01  3.5625532835902501e-01  3.5763055877575139e-01  3.4192297875919997e-01  3.9209539705658186e-01  4.1733046745489588e-01  4.2648927949021920e-01  4.2763545699489891e-01  4.2482238794578209e-01  4.2020435581353716e-01  4.1493657383135574e-01  4.0963656557298561e-01  4.0462609432104185e-01  4.0005963189918869e-01  3.9599743973226276e-01  3.9244694584002349e-01  3.8938756948253622e-01  3.8678625555312118e-01  3.8460529075114763e-01  3.8280727010358373e-01  3.8135889707806930e-01  3.8023143955635991e-01  3.7940132300099161e-01  3.7885011573830174e-01  3.7856435201634864e-01  3.7853418800915789e-01  3.7875278868944401e-01  3.7921533612203995e-01  3.7991678471542123e-01  3.8084949598759599e-01  3.8199987243191053e-01  3.8334473492936627e-01  3.8484493206741138e-01  3.8643795483136290e-01  3.8802661188543364e-01  3.8945778418489463e-01  3.9047346640717978e-01  3.9057858780463284e-01  3.8868787463577453e-01  3.8220750354184596e-01  3.6503609965854600e-01  3.3004285885529278e-01  3.5663768197458390e-01  3.5709072916078843e-01  3.3542241203979317e-01  3.7719698485355979e-01  3.9789609925475794e-01  4.0556425511068162e-01  4.0723227144424640e-01  4.0609623814485407e-01  4.0364821693360742e-01  4.006391532