<?xml version="1.0"?>
<VTKFile type="UnstructuredGrid"  version="0.1"  >
<UnstructuredGrid>
<Piece  NumberOfPoints="1681" NumberOfCells="3200">
<Points>
<DataArray  type="Float64"  NumberOfComponents="3"  format="ascii">0 0 0  0.025 0 0  0.05 0 0  0.075 0 0  0.1 0 0  0.125 0 0  0.15 0 0  0.175 0 0  0.2 0 0  0.225 0 0  0.25 0 0  0.275 0 0  0.3 0 0  0.325 0 0  0.35 0 0  0.375 0 0  0.4 0 0  0.425 0 0  0.45 0 0  0.475 0 0  0.5 0 0  0.525 0 0  0.55 0 0  0.575 0 0  0.6 0 0  0.625 0 0  0.65 0 0  0.675 0 0  0.7 0 0  0.725 0 0  0.75 0 0  0.775 0 0  0.8 0 0  0.825 0 0  0.85 0 0  0.875 0 0  0.9 0 0  0.925 0 0  0.95 0 0  0.975 0 0  1 0 0  0 0.025 0  0.025 0.025 0  0.05 0.025 0  0.075 0.025 0  0.1 0.025 0  0.125 0.025 0  0.15 0.025 0  0.175 0.025 0  0.2 0.025 0  0.225 0.025 0  0.25 0.025 0  0.275 0.025 0  0.3 0.025 0  0.325 0.025 0  0.35 0.025 0  0.375 0.025 0  0.4 0.025 0  0.425 0.025 0  0.45 0.025 0  0.475 0.025 0  0.5 0.025 0  0.525 0.025 0  0.55 0.025 0  0.575 0.025 0  0.6 0.025 0  0.625 0.025 0  0.65 0.025 0  0.675 0.025 0  0.7 0.025 0  0.725 0.025 0  0.75 0.025 0  0.775 0.025 0  0.8 0.025 0  0.825 0.025 0  0.85 0.025 0  0.875 0.025 0  0.9 0.025 0  0.925 0.025 0  0.95 0.025 0  0.975 0.025 0  1 0.025 0  0 0.05 0  0.025 0.05 0  0.05 0.05 0  0.075 0.05 0  0.1 0.05 0  0.125 0.05 0  0.15 0.05 0  0.175 0.05 0  0.2 0.05 0  0.225 0.05 0  0.25 0.05 0  0.275 0.05 0  0.3 0.05 0  0.325 0.05 0  0.35 0.05 0  0.375 0.05 0  0.4 0.05 0  0.425 0.05 0  0.45 0.05 0  0.475 0.05 0  0.5 0.05 0  0.525 0.05 0  0.55 0.05 0  0.575 0.05 0  0.6 0.05 0  0.625 0.05 0  0.65 0.05 0  0.675 0.05 0  0.7 0.05 0  0.725 0.05 0  0.75 0.05 0  0.775 0.05 0  0.8 0.05 0  0.825 0.05 0  0.85 0.05 0  0.875 0.05 0  0.9 0.05 0  0.925 0.05 0  0.95 0.05 0  0.975 0.05 0  1 0.05 0  0 0.075 0  0.025 0.075 0  0.05 0.075 0  0.075 0.075 0  0.1 0.075 0  0.125 0.075 0  0.15 0.075 0  0.175 0.075 0  0.2 0.075 0  0.225 0.075 0  0.25 0.075 0  0.275 0.075 0  0.3 0.075 0  0.325 0.075 0  0.35 0.075 0  0.375 0.075 0  0.4 0.075 0  0.425 0.075 0  0.45 0.075 0  0.475 0.075 0  0.5 0.075 0  0.525 0.075 0  0.55 0.075 0  0.575 0.075 0  0.6 0.075 0  0.625 0.075 0  0.65 0.075 0  0.675 0.075 0  0.7 0.075 0  0.725 0.075 0  0.75 0.075 0  0.775 0.075 0  0.8 0.075 0  0.825 0.075 0  0.85 0.075 0  0.875 0.075 0  0.9 0.075 0  0.925 0.075 0  0.95 0.075 0  0.975 0.075 0  1 0.075 0  0 0.1 0  0.025 0.1 0  0.05 0.1 0  0.075 0.1 0  0.1 0.1 0  0.125 0.1 0  0.15 0.1 0  0.175 0.1 0  0.2 0.1 0  0.225 0.1 0  0.25 0.1 0  0.275 0.1 0  0.3 0.1 0  0.325 0.1 0  0.35 0.1 0  0.375 0.1 0  0.4 0.1 0  0.425 0.1 0  0.45 0.1 0  0.475 0.1 0  0.5 0.1 0  0.525 0.1 0  0.55 0.1 0  0.575 0.1 0  0.6 0.1 0  0.625 0.1 0  0.65 0.1 0  0.675 0.1 0  0.7 0.1 0  0.725 0.1 0  0.75 0.1 0  0.775 0.1 0  0.8 0.1 0  0.825 0.1 0  0.85 0.1 0  0.875 0.1 0  0.9 0.1 0  0.925 0.1 0  0.95 0.1 0  0.975 0.1 0  1 0.1 0  0 0.125 0  0.025 0.125 0  0.05 0.125 0  0.075 0.125 0  0.1 0.125 0  0.125 0.125 0  0.15 0.125 0  0.175 0.125 0  0.2 0.125 0  0.225 0.125 0  0.25 0.125 0  0.275 0.125 0  0.3 0.125 0  0.325 0.125 0  0.35 0.125 0  0.375 0.125 0  0.4 0.125 0  0.425 0.125 0  0.45 0.125 0  0.475 0.125 0  0.5 0.125 0  0.525 0.125 0  0.55 0.125 0  0.575 0.125 0  0.6 0.125 0  0.625 0.125 0  0.65 0.125 0  0.675 0.125 0  0.7 0.125 0  0.725 0.125 0  0.75 0.125 0  0.775 0.125 0  0.8 0.125 0  0.825 0.125 0  0.85 0.125 0  0.875 0.125 0  0.9 0.125 0  0.925 0.125 0  0.95 0.125 0  0.975 0.125 0  1 0.125 0  0 0.15 0  0.025 0.15 0  0.05 0.15 0  0.075 0.15 0  0.1 0.15 0  0.125 0.15 0  0.15 0.15 0  0.175 0.15 0  0.2 0.15 0  0.225 0.15 0  0.25 0.15 0  0.275 0.15 0  0.3 0.15 0  0.325 0.15 0  0.35 0.15 0  0.375 0.15 0  0.4 0.15 0  0.425 0.15 0  0.45 0.15 0  0.475 0.15 0  0.5 0.15 0  0.525 0.15 0  0.55 0.15 0  0.575 0.15 0  0.6 0.15 0  0.625 0.15 0  0.65 0.15 0  0.675 0.15 0  0.7 0.15 0  0.725 0.15 0  0.75 0.15 0  0.775 0.15 0  0.8 0.15 0  0.825 0.15 0  0.85 0.15 0  0.875 0.15 0  0.9 0.15 0  0.925 0.15 0  0.95 0.15 0  0.975 0.15 0  1 0.15 0  0 0.175 0  0.025 0.175 0  0.05 0.175 0  0.075 0.175 0  0.1 0.175 0  0.125 0.175 0  0.15 0.175 0  0.175 0.175 0  0.2 0.175 0  0.225 0.175 0  0.25 0.175 0  0.275 0.175 0  0.3 0.175 0  0.325 0.175 0  0.35 0.175 0  0.375 0.175 0  0.4 0.175 0  0.425 0.175 0  0.45 0.175 0  0.475 0.175 0  0.5 0.175 0  0.525 0.175 0  0.55 0.175 0  0.575 0.175 0  0.6 0.175 0  0.625 0.175 0  0.65 0.175 0  0.675 0.175 0  0.7 0.175 0  0.725 0.175 0  0.75 0.175 0  0.775 0.175 0  0.8 0.175 0  0.825 0.175 0  0.85 0.175 0  0.875 0.175 0  0.9 0.175 0  0.925 0.175 0  0.95 0.175 0  0.975 0.175 0  1 0.175 0  0 0.2 0  0.025 0.2 0  0.05 0.2 0  0.075 0.2 0  0.1 0.2 0  0.125 0.2 0  0.15 0.2 0  0.175 0.2 0  0.2 0.2 0  0.225 0.2 0  0.25 0.2 0  0.275 0.2 0  0.3 0.2 0  0.325 0.2 0  0.35 0.2 0  0.375 0.2 0  0.4 0.2 0  0.425 0.2 0  0.45 0.2 0  0.475 0.2 0  0.5 0.2 0  0.525 0.2 0  0.55 0.2 0  0.575 0.2 0  0.6 0.2 0  0.625 0.2 0  0.65 0.2 0  0.675 0.2 0  0.7 0.2 0  0.725 0.2 0  0.75 0.2 0  0.775 0.2 0  0.8 0.2 0  0.825 0.2 0  0.85 0.2 0  0.875 0.2 0  0.9 0.2 0  0.925 0.2 0  0.95 0.2 0  0.975 0.2 0  1 0.2 0  0 0.225 0  0.025 0.225 0  0.05 0.225 0  0.075 0.225 0  0.1 0.225 0  0.125 0.225 0  0.15 0.225 0  0.175 0.225 0  0.2 0.225 0  0.225 0.225 0  0.25 0.225 0  0.275 0.225 0  0.3 0.225 0  0.325 0.225 0  0.35 0.225 0  0.375 0.225 0  0.4 0.225 0  0.425 0.225 0  0.45 0.225 0  0.475 0.225 0  0.5 0.225 0  0.525 0.225 0  0.55 0.225 0  0.575 0.225 0  0.6 0.225 0  0.625 0.225 0  0.65 0.225 0  0.675 0.225 0  0.7 0.225 0  0.725 0.225 0  0.75 0.225 0  0.775 0.225 0  0.8 0.225 0  0.825 0.225 0  0.85 0.225 0  0.875 0.225 0  0.9 0.225 0  0.925 0.225 0  0.95 0.225 0  0.975 0.225 0  1 0.225 0  0 0.25 0  0.025 0.25 0  0.05 0.25 0  0.075 0.25 0  0.1 0.25 0  0.125 0.25 0  0.15 0.25 0  0.175 0.25 0  0.2 0.25 0  0.225 0.25 0  0.25 0.25 0  0.275 0.25 0  0.3 0.25 0  0.325 0.25 0  0.35 0.25 0  0.375 0.25 0  0.4 0.25 0  0.425 0.25 0  0.45 0.25 0  0.475 0.25 0  0.5 0.25 0  0.525 0.25 0  0.55 0.25 0  0.575 0.25 0  0.6 0.25 0  0.625 0.25 0  0.65 0.25 0  0.675 0.25 0  0.7 0.25 0  0.725 0.25 0  0.75 0.25 0  0.775 0.25 0  0.8 0.25 0  0.825 0.25 0  0.85 0.25 0  0.875 0.25 0  0.9 0.25 0  0.925 0.25 0  0.95 0.25 0  0.975 0.25 0  1 0.25 0  0 0.275 0  0.025 0.275 0  0.05 0.275 0  0.075 0.275 0  0.1 0.275 0  0.125 0.275 0  0.15 0.275 0  0.175 0.275 0  0.2 0.275 0  0.225 0.275 0  0.25 0.275 0  0.275 0.275 0  0.3 0.275 0  0.325 0.275 0  0.35 0.275 0  0.375 0.275 0  0.4 0.275 0  0.425 0.275 0  0.45 0.275 0  0.475 0.275 0  0.5 0.275 0  0.525 0.275 0  0.55 0.275 0  0.575 0.275 0  0.6 0.275 0  0.625 0.275 0  0.65 0.275 0  0.675 0.275 0  0.7 0.275 0  0.725 0.275 0  0.75 0.275 0  0.775 0.275 0  0.8 0.275 0  0.825 0.275 0  0.85 0.275 0  0.875 0.275 0  0.9 0.275 0  0.925 0.275 0  0.95 0.275 0  0.975 0.275 0  1 0.275 0  0 0.3 0  0.025 0.3 0  0.05 0.3 0  0.075 0.3 0  0.1 0.3 0  0.125 0.3 0  0.15 0.3 0  0.175 0.3 0  0.2 0.3 0  0.225 0.3 0  0.25 0.3 0  0.275 0.3 0  0.3 0.3 0  0.325 0.3 0  0.35 0.3 0  0.375 0.3 0  0.4 0.3 0  0.425 0.3 0  0.45 0.3 0  0.475 0.3 0  0.5 0.3 0  0.525 0.3 0  0.55 0.3 0  0.575 0.3 0  0.6 0.3 0  0.625 0.3 0  0.65 0.3 0  0.675 0.3 0  0.7 0.3 0  0.725 0.3 0  0.75 0.3 0  0.775 0.3 0  0.8 0.3 0  0.825 0.3 0  0.85 0.3 0  0.875 0.3 0  0.9 0.3 0  0.925 0.3 0  0.95 0.3 0  0.975 0.3 0  1 0.3 0  0 0.325 0  0.025 0.325 0  0.05 0.325 0  0.075 0.325 0  0.1 0.325 0  0.125 0.325 0  0.15 0.325 0  0.175 0.325 0  0.2 0.325 0  0.225 0.325 0  0.25 0.325 0  0.275 0.325 0  0.3 0.325 0  0.325 0.325 0  0.35 0.325 0  0.375 0.325 0  0.4 0.325 0  0.425 0.325 0  0.45 0.325 0  0.475 0.325 0  0.5 0.325 0  0.525 0.325 0  0.55 0.325 0  0.575 0.325 0  0.6 0.325 0  0.625 0.325 0  0.65 0.325 0  0.675 0.325 0  0.7 0.325 0  0.725 0.325 0  0.75 0.325 0  0.775 0.325 0  0.8 0.325 0  0.825 0.325 0  0.85 0.325 0  0.875 0.325 0  0.9 0.325 0  0.925 0.325 0  0.95 0.325 0  0.975 0.325 0  1 0.325 0  0 0.35 0  0.025 0.35 0  0.05 0.35 0  0.075 0.35 0  0.1 0.35 0  0.125 0.35 0  0.15 0.35 0  0.175 0.35 0  0.2 0.35 0  0.225 0.35 0  0.25 0.35 0  0.275 0.35 0  0.3 0.35 0  0.325 0.35 0  0.35 0.35 0  0.375 0.35 0  0.4 0.35 0  0.425 0.35 0  0.45 0.35 0  0.475 0.35 0  0.5 0.35 0  0.525 0.35 0  0.55 0.35 0  0.575 0.35 0  0.6 0.35 0  0.625 0.35 0  0.65 0.35 0  0.675 0.35 0  0.7 0.35 0  0.725 0.35 0  0.75 0.35 0  0.775 0.35 0  0.8 0.35 0  0.825 0.35 0  0.85 0.35 0  0.875 0.35 0  0.9 0.35 0  0.925 0.35 0  0.95 0.35 0  0.975 0.35 0  1 0.35 0  0 0.375 0  0.025 0.375 0  0.05 0.375 0  0.075 0.375 0  0.1 0.375 0  0.125 0.375 0  0.15 0.375 0  0.175 0.375 0  0.2 0.375 0  0.225 0.375 0  0.25 0.375 0  0.275 0.375 0  0.3 0.375 0  0.325 0.375 0  0.35 0.375 0  0.375 0.375 0  0.4 0.375 0  0.425 0.375 0  0.45 0.375 0  0.475 0.375 0  0.5 0.375 0  0.525 0.375 0  0.55 0.375 0  0.575 0.375 0  0.6 0.375 0  0.625 0.375 0  0.65 0.375 0  0.675 0.375 0  0.7 0.375 0  0.725 0.375 0  0.75 0.375 0  0.775 0.375 0  0.8 0.375 0  0.825 0.375 0  0.85 0.375 0  0.875 0.375 0  0.9 0.375 0  0.925 0.375 0  0.95 0.375 0  0.975 0.375 0  1 0.375 0  0 0.4 0  0.025 0.4 0  0.05 0.4 0  0.075 0.4 0  0.1 0.4 0  0.125 0.4 0  0.15 0.4 0  0.175 0.4 0  0.2 0.4 0  0.225 0.4 0  0.25 0.4 0  0.275 0.4 0  0.3 0.4 0  0.325 0.4 0  0.35 0.4 0  0.375 0.4 0  0.4 0.4 0  0.425 0.4 0  0.45 0.4 0  0.475 0.4 0  0.5 0.4 0  0.525 0.4 0  0.55 0.4 0  0.575 0.4 0  0.6 0.4 0  0.625 0.4 0  0.65 0.4 0  0.675 0.4 0  0.7 0.4 0  0.725 0.4 0  0.75 0.4 0  0.775 0.4 0  0.8 0.4 0  0.825 0.4 0  0.85 0.4 0  0.875 0.4 0  0.9 0.4 0  0.925 0.4 0  0.95 0.4 0  0.975 0.4 0  1 0.4 0  0 0.425 0  0.025 0.425 0  0.05 0.425 0  0.075 0.425 0  0.1 0.425 0  0.125 0.425 0  0.15 0.425 0  0.175 0.425 0  0.2 0.425 0  0.225 0.425 0  0.25 0.425 0  0.275 0.425 0  0.3 0.425 0  0.325 0.425 0  0.35 0.425 0  0.375 0.425 0  0.4 0.425 0  0.425 0.425 0  0.45 0.425 0  0.475 0.425 0  0.5 0.425 0  0.525 0.425 0  0.55 0.425 0  0.575 0.425 0  0.6 0.425 0  0.625 0.425 0  0.65 0.425 0  0.675 0.425 0  0.7 0.425 0  0.725 0.425 0  0.75 0.425 0  0.775 0.425 0  0.8 0.425 0  0.825 0.425 0  0.85 0.425 0  0.875 0.425 0  0.9 0.425 0  0.925 0.425 0  0.95 0.425 0  0.975 0.425 0  1 0.425 0  0 0.45 0  0.02
[...]
<PointData  Scalars="ControlVisualisation"> 
<DataArray  type="Float64"  Name="ControlVisualisation"  format="ascii">3.7235768809778685e-01  3.5437620691646821e-01  3.5444379646802943e-01  3.5467058056016926e-01  3.5504159441094424e-01  3.5548528793025336e-01  3.5592531653412784e-01  3.5629932215108440e-01  3.5658279109414259e-01  3.5676929555705933e-01  3.5686847590526805e-01  3.5690042427311008e-01  3.5686849542221316e-01  3.5681104481882014e-01  3.5672373686283443e-01  3.5660836126909845e-01  3.5648375068456711e-01  3.5634858084275445e-01  3.5621147947284598e-01  3.5606915427931046e-01  3.5593199395649960e-01  3.5579945208396574e-01  3.5567034099366956e-01  3.5554012359652876e-01  3.5541681150722609e-01  3.5529720629834893e-01  3.5518091259502910e-01  3.5507017316041051e-01  3.5496379735008460e-01  3.5486602605175049e-01  3.5477799299030338e-01  3.5469546905001076e-01  3.5462009372305164e-01  3.5455439862067550e-01  3.5449856545096542e-01  3.5445494891035545e-01  3.5442134424586064e-01  3.5439944322842515e-01  3.5438917379428259e-01  3.5438643751550086e-01  3.9055399319791900e-01  3.5436832019879666e-01  3.0210722813978996e-01  3.0320217525988036e-01  3.0564620703836676e-01  3.0936892518895298e-01  3.1373427943637699e-01  3.1806131891704992e-01  3.2178814845085751e-01  3.2466425452862491e-01  3.2661646099892333e-01  3.2771702697278610e-01  3.2814241951718909e-01  3.2795197352707678e-01  3.2740521992291632e-01  3.2652614198762514e-01  3.2542616708097816e-01  3.2417242889854131e-01  3.2282642874945244e-01  3.2143488247337759e-01  3.2001644049056066e-01  3.1859555745275137e-01  3.1720002430925104e-01  3.1581311724939154e-01  3.1446227560954215e-01  3.1312889381185610e-01  3.1185758890654175e-01  3.1064256597475925e-01  3.0946001655482913e-01  3.0833510026033234e-01  3.0727850753667901e-01  3.0630667482007257e-01  3.0541903197368431e-01  3.0460266427847271e-01  3.0388004261067297e-01  3.0326311608681672e-01  3.0276287163113330e-01  3.0237826448570126e-01  3.0210949539239756e-01  3.0195714680844782e-01  3.0189948281820517e-01  3.5438638978182152e-01  3.5439809327837452e-01  3.0321274195048886e-01  3.0691877519511240e-01  3.1290480593779879e-01  3.2099980951419060e-01  3.3008191540039172e-01  3.3883105765056831e-01  3.4622999738081350e-01  3.5184763648546891e-01  3.5566709220564857e-01  3.5774513825848342e-01  3.5844205521121342e-01  3.5799693567049062e-01  3.5673914299121956e-01  3.5481547604019309e-01  3.5244957349452433e-01  3.4980353946735293e-01  3.4697153704953743e-01  3.4403201902736474e-01  3.4101971158069533e-01  3.3801285971727812e-01  3.3504324162771776e-01  3.3209376593331119e-01  3.2918844786964407e-01  3.2637335672364171e-01  3.2365188182546184e-01  3.2104668621413229e-01  3.1853817078587138e-01  3.1614790513201518e-01  3.1389095965576469e-01  3.1179046522480203e-01  3.0987193611546471e-01  3.0811419306046339e-01  3.0654983155727955e-01  3.0521010190742248e-01  3.0410100329730300e-01  3.0323341458594794e-01  3.0260454311703877e-01  3.0219315334905578e-01  3.0195584967807187e-01  3.5438891969374614e-01  3.5455915283176626e-01  3.0602099541797118e-01  3.1429623163424880e-01  3.2401325688580002e-01  3.3491248234451487e-01  3.4598639590988273e-01  3.5597994595659332e-01  3.6402010328224366e-01  3.6977195996376822e-01  3.7340121644726326e-01  3.7508473608010406e-01  3.7518374576105845e-01  3.7406699361779489e-01  3.7199673673465944e-01  3.6926530590688089e-01  3.6607483183851758e-01  3.6258967900477551e-01  3.5890734091890164e-01  3.5513067363075879e-01  3.5131468276912114e-01  3.4747653912303017e-01  3.4374549718260045e-01  3.4004501894778338e-01  3.3640543720201910e-01  3.3288568557898995e-01  3.2950647014376905e-01  3.2626020323586424e-01  3.2312924741118093e-01  3.2016052644553961e-01  3.1737398968522051e-01  3.1475988291673740e-01  3.1235918147619463e-01  3.1017870536734404e-01  3.0823178934120771e-01  3.0655394768256611e-01  3.0516489254625451e-01  3.0406208882501290e-01  3.0323721961542288e-01  3.0260979042170250e-01  3.0210747829739759e-01  3.5439873990278775e-01  3.5488990733197362e-01  3.1152905809650411e-01  3.2897523846911525e-01  3.4405814422732983e-01  3.5664483308087686e-01  3.6714600672195663e-01  3.7537288189290224e-01  3.8127570069398836e-01  3.8487871551177000e-01  3.8656064037982946e-01  3.8655136493021314e-01  3.8521597575849548e-01  3.8292146856438786e-01  3.7987775160401027e-01  3.7631871032163183e-01  3.7245840778735351e-01  3.6838204607691349e-01  3.6418004253379588e-01  3.5996567140349361e-01  3.5573649864880075e-01  3.5154039457242386e-01  3.4746700016615967e-01  3.4349060020771705e-01  3.3958368841834302e-01  3.3582028443308726e-01  3.3219587704878534e-01  3.2872890691592954e-01  3.2537932662486807e-01  3.2221545543256175e-01  3.1924599370720130e-01  3.1646588486944288e-01  3.1390285142825380e-01  3.1157482264090802e-01  3.0950889944308757e-01  3.0771689363398036e-01  3.0621851703466985e-01  3.0502481288198824e-01  3.0408365606454579e-01  3.0325700467719391e-01  3.0238280231279890e-01  3.5442081571769446e-01  3.5540832486754032e-01  3.2467895923632545e-01  3.6015720248101396e-01  3.8243401165102869e-01  3.9362820016934680e-01  3.9925043498166385e-01  4.0182990457803025e-01  4.0248854384705307e-01  4.0169680455769713e-01  3.9983252472690151e-01  3.9707309005641717e-01  3.9357828796889882e-01  3.8964107307865770e-01  3.8537445557562755e-01  3.8090955795731091e-01  3.7633665091867091e-01  3.7174220721981138e-01  3.6714611071675546e-01  3.6264172882770568e-01  3.5816099071914792e-01  3.5379489257332675e-01  3.4958645546661471e-01  3.4548061734897817e-01  3.4149770733943247e-01  3.3764054214986866e-01  3.3396355708309222e-01  3.3043489320225933e-01  3.2703176356005792e-01  3.2380859796081390e-01  3.2078252826889203e-01  3.1795576652480606e-01  3.1535284741400998e-01  3.1298503104551995e-01  3.1088009887063089e-01  3.0906042893856600e-01  3.0752161428239905e-01  3.0627447238510347e-01  3.0523489645377061e-01  3.0416653091193274e-01  3.0279176844334971e-01  3.5445625299559635e-01  3.6495475643756031e-01  3.6983757517059457e-01  4.3198724473392669e-01  4.5377842065816765e-01  4.5377490650661612e-01  4.4648030285246698e-01  4.3771606390989259e-01  4.2935427474933840e-01  4.2172918786362523e-01  4.1476650243854701e-01  4.0828058098784092e-01  4.0206616326460937e-01  3.9613515117026793e-01  3.9044591360723796e-01  3.8493369240756198e-01  3.7962921385462489e-01  3.7449114237765946e-01  3.6954114277098454e-01  3.6478057183093909e-01  3.6013091965304533e-01  3.5565970036369787e-01  3.5135360150474759e-01  3.4720104320482109e-01  3.4321731997985544e-01  3.3935373114032324e-01  3.3566490531080151e-01  3.3215130462144032e-01  3.2875013103062023e-01  3.2552580502398248e-01  3.2249122837212807e-01  3.1966126539413448e-01  3.1704953054923812e-01  3.1466780040659320e-01  3.1255535484373148e-01  3.1072237456714819e-01  3.0917502659446405e-01  3.0789106595221327e-01  3.0673569877438256e-01  3.0536692589787146e-01  3.0332897759276567e-01  3.5450318963784266e-01  4.8162648985737683e-01  5.3498026035780233e-01  5.7523190150647785e-01  5.6736409460133919e-01  5.3994034547616887e-01  5.0922032221834135e-01  4.8254119498906145e-01  4.6126233697770469e-01  4.4454835988184704e-01  4.3123453769867559e-01  4.2024857956847761e-01  4.1091761337054911e-01  4.0279836846997691e-01  3.9553069960009007e-01  3.8891615211582897e-01  3.8285801826805121e-01  3.7718732642759534e-01  3.7188252293469515e-01  3.6687003952573338e-01  3.6209678616739627e-01  3.5754981829574878e-01  3.5319681002959274e-01  3.4905417926096566e-01  3.4507273541234218e-01  3.4123125310954877e-01  3.3756300410535711e-01  3.3408631125217586e-01  3.3072695138701130e-01  3.2752957300083774e-01  3.2450906171534810e-01  3.2169845743056802e-01  3.1910371271675914e-01  3.1671873830271680e-01  3.1461435390551273e-01  3.1277528888635675e-01  3.1120778226076712e-01  3.0987379541821097e-01  3.0859758978917778e-01  3.0686259773487484e-01  3.0400710438992162e-01  3.5456245144688942e-01  7.0683221731386681e-01  7.8772033986020262e-01  7.4477707261360393e-01  6.9953914622772806e-01  6.4008765860463446e-01  5.8071228658283025e-01  5.3212464418087801e-01  4.9552909075588109e-01  4.6841489158660393e-01  4.4809956671384049e-01  4.3235191497857994e-01  4.1972822729724085e-01  4.0934307790006769e-01  4.0054215794928716e-01  3.9283478983403963e-01  3.8609439145018509e-01  3.7989277464910970e-01  3.7424815542301593e-01  3.6905011320152947e-01  3.6418707072810674e-01  3.5959836116307936e-01  3.5522557490536549e-01  3.5111485759855038e-01  3.4718733496600246e-01  3.4337505782759414e-01  3.3976042590912231e-01  3.3631094032988140e-01  3.3302003041178951e-01  3.2988302033392070e-01  3.2689849264409870e-01  3.2411941225978264e-01  3.2154447799911379e-01  3.1919494495757395e-01  3.1709910247139705e-01  3.1525270776835063e-01  3.1366819533292639e-01  3.1227958799284622e-01  3.1086134948333422e-01  3.0867841518511263e-01  3.0482944867476852e-01  3.5463455620339385e-01  7.9799914434347408e-01  8.8153472625807971e-01  8.4179539987860497e-01  8.0134007459255718e-01  7.2848732939969374e-01  6.4724598033847247e-01  5.7879964136366835e-01  5.2766992493976361e-01  4.9064249244133745e-01  4.6368069651333771e-01  4.4351155739756926e-01  4.2790078187441788e-01  4.1541854591971072e-01  4.0523300396901790e-01  3.9657536378341329e-01  3.8914441410004369e-01  3.8256783973032132e-01  3.7662982576789256e-01  3.7133345050114824e-01  3.6638713097401843e-01  3.6180075154566654e-01  3.5745011187759035e-01  3.5339037440388926e-01  3.4952524215310860e-01  3.4579474772497665e-01  3.4227565060564008e-01  3.3888979108122314e-01  3.3567835716207672e-01  3.3261890492245832e-01  3.2970596848740730e-01  3.2696328721884121e-01  3.2442546019873897e-01  3.2212371491188946e-01  3.2002863160617834e-01  3.1818157469539970e-01  3.1660296744627886e-01  3.1516958116587812e-01  3.1357006315446873e-01  3.1083289653996427e-01  3.0581094029778838e-01  3.5472134867993421e-01  8.1660687952974920e-01  9.0479758620906248e-01  8.7863067048891053e-01  8.5144729713800105e-01  7.8306800783983221e-01  6.9420389704372942e-01  6.1382100059026634e-01  5.5250338254835973e-01  5.0817496082215141e-01  4.7616760495382288e-01  4.5254036359689115e-01  4.3461360381464570e-01  4.2053392140414375e-01  4.0922980819040056e-01  3.9989463946342013e-01  3.9193648409524540e-01  3.8507564930242827e-01  3.7900421441322463e-01  3.7360271852303778e-01  3.6863952680564488e-01  3.6408631536895220e-01  3.5980373642046354e-01  3.5584231838035268e-01  3.5208379916185750e-01  3.4845395904209531e-01  3.4507323022945624e-01  3.4182299333269500e-01  3.3870808708073391e-01  3.3572528304109034e-01  3.3290297402055724e-01  3.3025327503751284e-01  3.2777318573327979e-01  3.2551721124489774e-01  3.2346370719313988e-01  3.2162160826463709e-01  3.2002398416204836e-01  3.1853103573743141e-01  3.1672195215469007e-01  3.1335101247794123e-01  3.0695560187582260e-01  3.5482279673751099e-01  7.9144857569272786e-01  8.8730938113839253e-01  8.6985575184302033e-01  8.5428697786191565e-01  7.9702504148263753e-01  7.1278306588251650e-01  6.3081463696662343e-01  5.6606142693877626e-01  5.1854847394192127e-01  4.8399052026563283e-01  4.5848379925049421e-01  4.3920779392614784e-01  4.2422954780645111e-01  4.1226829847828406e-01  4.0252228741066592e-01  3.9429299587588335e-01  3.8727789107035887e-01  3.8119143757684631e-01  3.7577998670266133e-01  3.7087623245074081e-01  3.6641874476918063e-01  3.6228463022181628e-01  3.5844509614042075e-01  3.5486280724685032e-01  3.5140179190603044e-01  3.4815314668068353e-01  3.4508856594197113e-01  3.4211289323021837e-01  3.3925630731473311e-01  3.3654883644386513e-01  3.3399320167930335e-01  3.3161426217615608e-01  3.2942571543518884e-01  3.2743164486510234e-01  3.2560425744228866e-01  3.2398815437963047e-01  3.2242918398411158e-01  3.2037763818290715e-01  3.1627375970366423e-01  3.0828844060935284e-01  3.5493806749247447e-01  6.7661358862854748e-01  8.2390385434088076e-01  8.1099327836662638e-01  8.1572630325267859e-01  7.7384021514369716e-01  7.0229501030464769e-01  6.2794533530840890e-01  5.6671752288095711e-01  5.2050793163373799e-01  4.8628248054350842e-01  4.6072819127877424e-01  4.4126243950569222e-01  4.2612969268615397e-01  4.1401522468834101e-01  4.0417011300339734e-01  3.9594541651824883e-01  3.8901791074084052e-01  3.8303880495133585e-01  3.7777515533946066e-01  3.7302669555816570e-01  3.6872994054419156e-01  3.6480356247911128e-01  3.6115301287329438e-01  3.5778412427004253e-01  3.5456738672164434e-01  3.5150832197765669e-01  3.4862297961928168e-01  3.4582826672675177e-01  3.4317129893594372e-01  3.4064195571229927e-01  3.3821985182587677e-01  3.3595824172856376e-01  3.3386113934753342e-01  3.3195121582508780e-01  3.3019178145188111e-01  3.2859179887901097e-01  3.2696905784614755e-01  3.2462604117399962e-01  3.1966299468841358e-01  3.0983397072180757e-01  3.5507412675771971e-01  4.3895803537312839e-01  6.4227756976701866e-01  7.1431524582051409e-01  7.4474060994875935e-01  7.2216814188909673e-01  6.6837074107566508e-01  6.0796725216617453e-01  5.5552999275096127e-01  5.1437105555288931e-01  4.8302627954216304e-01  4.5910829323547170e-01  4.4059763117714146e-01  4.2605400531008597e-01  4.1433667137198277e-01  4.0481423636640251e-01  3.9689366540340726e-01  3.9023358742929209e-01  3.8451697082328634e-01  3.7950422828690122e-01  3.7501431160135212e-01  3.7097206176733255e-01  3.6731897965783455e-01  3.6393201786857121e-01  3.6082639409698491e-01  3.5785581419988199e-01  3.5507155749076685e-01  3.5244985098601112e-01  3.4991255834485469e-01  3.4750671907050545e-01  3.4519604534296466e-01  3.4297543444221890e-01  3.4090741011558123e-01  3.3895637139297718e-01  3.3716251735035180e-01  3.3549714835827177e-01  3.3393233022812713e-01  3.3222643135824975e-01  3.2954972504498919e-01  3.2359272202080647e-01  3.1162552119439479e-01  3.5523182873831499e-01  3.6580574975317381e-01  4.5455702567358158e-01  6.0538494911838969e-01  6.5871737719256807e-01  6.5525705942406698e-01  6.2065256769729216e-01  5.7658755055589805e-01  5.3563481524608836e-01  5.0179928095184134e-01  4.7503042922981842e-01  4.5400730991400506e-01  4.3738441124750943e-01  4.2405703946662832e-01  4.1322157198750648e-01  4.0438113535210563e-01  3.9703040270019385e-01  3.9082096675507233e-01  3.8552891481387791e-01  3.8088756366734028e-01  3.7675108925117290e-01  3.7304149975847856e-01  3.6974285948435720e-01  3.6670787665827642e-01  3.6391682947959686e-01  3.6126210897433370e-01  3.5880207910065320e-01  3.5651923688457460e-01  3.5432862341512278e-01  3.5223316556031720e-01  3.5019580455826560e-01  3.4826453024271670e-01  3.4645453346774130e-01  3.4473156163267971e-01  3.4311071109496361e-01  3.4158448753414067e-01  3.4008252876863843e-01  3.3831701134962777e-01  3.3523978203952187e-01  3.2813728373259238e-01  3.1368920398175371e-01  3.5541204861507397e-01  3.6103687691761388e-01  3.9396345815205058e-01  5.2073247052293048e-01  5.7916873026290527e-01  5.8820327479346690e-01  5.6967366862312596e-01  5.4061426197574147e-01  5.1111115235213378e-01  4.8514851140187643e-01  4.6366102847470358e-01  4.4620231608373861e-01  4.3203062907376893e-01  4.2042333737261317e-01  4.1082916277608966e-01  4.0294043011642966e-01  3.9632225513881014e-01  3.9073147344171444e-01  3.8598545211704960e-01  3.8182853981154508e-01  3.7817711710091545e-01  3.7492514097189772e-01  3.7202822329984980e-01  3.6940323411998871e-01  3.6702616931721149e-01  3.6477854803526299e-01  3.6271745922311210e-01  3.6084375273784541e-01  3.5904630426157469e-01  3.5737994491992647e-01  3.5572848394727913e-01  3.5417602950529592e-01  3.5268292158197084e-01  3.5128488463541335e-01  3.4994233912166572e-01  3.4862373367457422e-01  3.4722066271436797e-01  3.4536786514159140e-01  3.4185934429772563e-01  3.3338175583888946e-01  3.1607500198270910e-01  3.5562099545029863e-01  3.6018437073590814e-01  3.7366171279817234e-01  4.6924722925761991e-01  5.1841690298593934e-01  5.3139085333446534e-01  5.2310412618884716e-01  5.0540962821472935e-01  4.8548576347348443e-01  4.6673573938405488e-01  4.5040036749166446e-01  4.3664577828813139e-01  4.2511478841729156e-01  4.1546334373746951e-01  4.0739184792098160e-01  4.0062830758012591e-01  3.9493052880009860e-01  3.9006779608273728e-01  3.8595197910073809e-01  3.8237578618800855e-01  3.7928858951642686e-01  3.7659327416374155e-01  3.7419041770965566e-01  3.7202793487625052e-01  3.7013499234173375e-01  3.6837837004336277e-01  3.6682721541784402e-01  3.6540476417639933e-01  3.6411197465982886e-01  3.6293894365202783e-01  3.6182193732229728e-01  3.6076899801737183e-01  3.5973105433313857e-01  3.5875146362465177e-01  3.5780483356271681e-01  3.5677096530135305e-01  3.5554187476590904e-01  3.5363559546703044e-01  3.4954445241879950e-01  3.3947100187667656e-01  3.1881763992714174e-01  3.5586053052189581e-01  3.5923570813378219e-01  3.5989591738400084e-01  4.3479149870620393e-01  4.7414859237848012e-01  4.8680898722943650e-01  4.8402509228363144e-01  4.7387928323440343e-01  4.6106362587453392e-01  4.4819389184892261e-01  4.3639487177031122e-01  4.2605419842118131e-01  4.1711828844139021e-01  4.0949383441681814e-01  4.0298792681992235e-01  3.9745226885797963e-01  3.9274590365847623e-01  3.8877939428951086e-01  3.8539300520260322e-01  3.8250670081565141e-01  3.8003053261401354e-01  3.7790725680498044e-01  3.7606202364843144e-01  3.7447661521772946e-01  3.7311771897636520e-01  3.7195283457899708e-01  3.7097879797258121e-01  3.7017645549277028e-01  3.6950647997842317e-01  3.6891143735957083e-01  3.6843705779833608e-01  3.6801017485737764e-01  3.6760823486626593e-01  3.6723245279322131e-01  3.6681379184701279e-01  3.6622331046673540e-01  3.6525162079231610e-01  3.6331568572681855e-01  3.5860383732193485e-01  3.4659630150819237e-01  3.2203987015091579e-01  3.5613953083792826e-01  3.5847795474921068e-01  3.5006033181297336e-01  4.1070673135695285e-01  4.4184395027700507e-01  4.5267624913953897e-01  4.5258183245342248e-01  4.4703707072014864e-01  4.3914680385476346e-01  4.3069107982946064e-01  4.2258609113218626e-01  4.1517993232490347e-01  4.0860512323199238e-01  4.0287723184147806e-01  3.9792612509332664e-01  3.9362420229492906e-01  3.8999628784442408e-01  3.8694648395155357e-01  3.8435700576698867e-01  3.8219744146903145e-01  3.8037918270647308e-01  3.7885556145783122e-01  3.7763032624273668e-01  3.7667138316307425e-01  3.7594504580870730e-01  3.7543191546431282e-01  3.7510253910045877e-01  3.7500426878281889e-01  3.7509659736985201e-01  3.7527128224308615e-01  3.7558313036609292e-01  3.7597914274109046e-01  3.7644430104718651e-01  3.7688800766543512e-01  3.7722524321056045e-01  3.7727114950842061e-01  3.7670682323976273e-01  3.7475145087852918e-01  3.6930192467552675e-01  3.5506336079537959e-01  3.2585082811432331e-01  3.5646776452953594e-01  3.5784062158291552e-01  3.4214068181067508e-01  3.9203520213337878e-01  4.1717627408416391e-01  4.2629071610435848e-01  4.2741352158086993e-01  4.2462441837122950e-01  4.2001763631673206e-01  4.1475033638856762e-01  4.0945559111365398e-01  4.0448234863539867e-01  3.9995643796726665e-01  3.9593938137457024e-01  3.9241606099185167e-01  3.8932435108619551e-01  3.8673690650756481e-01  3.8462250996785541e-01  3.8283455183452464e-01  3.8139282700857813e-01  3.8026940735198350e-01  3.7942780003197557e-01  3.7884041927138584e-01  3.7855306228004165e-01  3.7852042468279307e-01  3.7869936826672279e-01  3.7913245391546202e-01  3.7982814619559951e-01  3.8076998536430318e-01  3.8188166323430117e-01  3.8320021931553527e-01  3.8468629537929416e-01  3.8628023272797901e-01  3.8789797540190840e-01  3.8930525352699097e-01  3.9029255972817695e-01  3.9040875488156046e-01  3.8853842804070732e-01  3.8212677109883791e-01  3.6509361522082623e-01  3.3033724502276413e-01  3.5685658738788695e-01  3.5730209822469627e-01  3.3565838978954021e-01  3.7718695035614436e-01  3.9779922114842181e-01  4.0544200656025614e-01  4.0710198010110676e-01  4.0596948814039391e-01  4.0349478019412122e-01  4.004838134