<?xml version="1.0"?>
<VTKFile type="UnstructuredGrid"  version="0.1"  >
<UnstructuredGrid>
<Piece  NumberOfPoints="1681" NumberOfCells="3200">
<Points>
<DataArray  type="Float64"  NumberOfComponents="3"  format="ascii">0 0 0  0.025 0 0  0.05 0 0  0.075 0 0  0.1 0 0  0.125 0 0  0.15 0 0  0.175 0 0  0.2 0 0  0.225 0 0  0.25 0 0  0.275 0 0  0.3 0 0  0.325 0 0  0.35 0 0  0.375 0 0  0.4 0 0  0.425 0 0  0.45 0 0  0.475 0 0  0.5 0 0  0.525 0 0  0.55 0 0  0.575 0 0  0.6 0 0  0.625 0 0  0.65 0 0  0.675 0 0  0.7 0 0  0.725 0 0  0.75 0 0  0.775 0 0  0.8 0 0  0.825 0 0  0.85 0 0  0.875 0 0  0.9 0 0  0.925 0 0  0.95 0 0  0.975 0 0  1 0 0  0 0.025 0  0.025 0.025 0  0.05 0.025 0  0.075 0.025 0  0.1 0.025 0  0.125 0.025 0  0.15 0.025 0  0.175 0.025 0  0.2 0.025 0  0.225 0.025 0  0.25 0.025 0  0.275 0.025 0  0.3 0.025 0  0.325 0.025 0  0.35 0.025 0  0.375 0.025 0  0.4 0.025 0  0.425 0.025 0  0.45 0.025 0  0.475 0.025 0  0.5 0.025 0  0.525 0.025 0  0.55 0.025 0  0.575 0.025 0  0.6 0.025 0  0.625 0.025 0  0.65 0.025 0  0.675 0.025 0  0.7 0.025 0  0.725 0.025 0  0.75 0.025 0  0.775 0.025 0  0.8 0.025 0  0.825 0.025 0  0.85 0.025 0  0.875 0.025 0  0.9 0.025 0  0.925 0.025 0  0.95 0.025 0  0.975 0.025 0  1 0.025 0  0 0.05 0  0.025 0.05 0  0.05 0.05 0  0.075 0.05 0  0.1 0.05 0  0.125 0.05 0  0.15 0.05 0  0.175 0.05 0  0.2 0.05 0  0.225 0.05 0  0.25 0.05 0  0.275 0.05 0  0.3 0.05 0  0.325 0.05 0  0.35 0.05 0  0.375 0.05 0  0.4 0.05 0  0.425 0.05 0  0.45 0.05 0  0.475 0.05 0  0.5 0.05 0  0.525 0.05 0  0.55 0.05 0  0.575 0.05 0  0.6 0.05 0  0.625 0.05 0  0.65 0.05 0  0.675 0.05 0  0.7 0.05 0  0.725 0.05 0  0.75 0.05 0  0.775 0.05 0  0.8 0.05 0  0.825 0.05 0  0.85 0.05 0  0.875 0.05 0  0.9 0.05 0  0.925 0.05 0  0.95 0.05 0  0.975 0.05 0  1 0.05 0  0 0.075 0  0.025 0.075 0  0.05 0.075 0  0.075 0.075 0  0.1 0.075 0  0.125 0.075 0  0.15 0.075 0  0.175 0.075 0  0.2 0.075 0  0.225 0.075 0  0.25 0.075 0  0.275 0.075 0  0.3 0.075 0  0.325 0.075 0  0.35 0.075 0  0.375 0.075 0  0.4 0.075 0  0.425 0.075 0  0.45 0.075 0  0.475 0.075 0  0.5 0.075 0  0.525 0.075 0  0.55 0.075 0  0.575 0.075 0  0.6 0.075 0  0.625 0.075 0  0.65 0.075 0  0.675 0.075 0  0.7 0.075 0  0.725 0.075 0  0.75 0.075 0  0.775 0.075 0  0.8 0.075 0  0.825 0.075 0  0.85 0.075 0  0.875 0.075 0  0.9 0.075 0  0.925 0.075 0  0.95 0.075 0  0.975 0.075 0  1 0.075 0  0 0.1 0  0.025 0.1 0  0.05 0.1 0  0.075 0.1 0  0.1 0.1 0  0.125 0.1 0  0.15 0.1 0  0.175 0.1 0  0.2 0.1 0  0.225 0.1 0  0.25 0.1 0  0.275 0.1 0  0.3 0.1 0  0.325 0.1 0  0.35 0.1 0  0.375 0.1 0  0.4 0.1 0  0.425 0.1 0  0.45 0.1 0  0.475 0.1 0  0.5 0.1 0  0.525 0.1 0  0.55 0.1 0  0.575 0.1 0  0.6 0.1 0  0.625 0.1 0  0.65 0.1 0  0.675 0.1 0  0.7 0.1 0  0.725 0.1 0  0.75 0.1 0  0.775 0.1 0  0.8 0.1 0  0.825 0.1 0  0.85 0.1 0  0.875 0.1 0  0.9 0.1 0  0.925 0.1 0  0.95 0.1 0  0.975 0.1 0  1 0.1 0  0 0.125 0  0.025 0.125 0  0.05 0.125 0  0.075 0.125 0  0.1 0.125 0  0.125 0.125 0  0.15 0.125 0  0.175 0.125 0  0.2 0.125 0  0.225 0.125 0  0.25 0.125 0  0.275 0.125 0  0.3 0.125 0  0.325 0.125 0  0.35 0.125 0  0.375 0.125 0  0.4 0.125 0  0.425 0.125 0  0.45 0.125 0  0.475 0.125 0  0.5 0.125 0  0.525 0.125 0  0.55 0.125 0  0.575 0.125 0  0.6 0.125 0  0.625 0.125 0  0.65 0.125 0  0.675 0.125 0  0.7 0.125 0  0.725 0.125 0  0.75 0.125 0  0.775 0.125 0  0.8 0.125 0  0.825 0.125 0  0.85 0.125 0  0.875 0.125 0  0.9 0.125 0  0.925 0.125 0  0.95 0.125 0  0.975 0.125 0  1 0.125 0  0 0.15 0  0.025 0.15 0  0.05 0.15 0  0.075 0.15 0  0.1 0.15 0  0.125 0.15 0  0.15 0.15 0  0.175 0.15 0  0.2 0.15 0  0.225 0.15 0  0.25 0.15 0  0.275 0.15 0  0.3 0.15 0  0.325 0.15 0  0.35 0.15 0  0.375 0.15 0  0.4 0.15 0  0.425 0.15 0  0.45 0.15 0  0.475 0.15 0  0.5 0.15 0  0.525 0.15 0  0.55 0.15 0  0.575 0.15 0  0.6 0.15 0  0.625 0.15 0  0.65 0.15 0  0.675 0.15 0  0.7 0.15 0  0.725 0.15 0  0.75 0.15 0  0.775 0.15 0  0.8 0.15 0  0.825 0.15 0  0.85 0.15 0  0.875 0.15 0  0.9 0.15 0  0.925 0.15 0  0.95 0.15 0  0.975 0.15 0  1 0.15 0  0 0.175 0  0.025 0.175 0  0.05 0.175 0  0.075 0.175 0  0.1 0.175 0  0.125 0.175 0  0.15 0.175 0  0.175 0.175 0  0.2 0.175 0  0.225 0.175 0  0.25 0.175 0  0.275 0.175 0  0.3 0.175 0  0.325 0.175 0  0.35 0.175 0  0.375 0.175 0  0.4 0.175 0  0.425 0.175 0  0.45 0.175 0  0.475 0.175 0  0.5 0.175 0  0.525 0.175 0  0.55 0.175 0  0.575 0.175 0  0.6 0.175 0  0.625 0.175 0  0.65 0.175 0  0.675 0.175 0  0.7 0.175 0  0.725 0.175 0  0.75 0.175 0  0.775 0.175 0  0.8 0.175 0  0.825 0.175 0  0.85 0.175 0  0.875 0.175 0  0.9 0.175 0  0.925 0.175 0  0.95 0.175 0  0.975 0.175 0  1 0.175 0  0 0.2 0  0.025 0.2 0  0.05 0.2 0  0.075 0.2 0  0.1 0.2 0  0.125 0.2 0  0.15 0.2 0  0.175 0.2 0  0.2 0.2 0  0.225 0.2 0  0.25 0.2 0  0.275 0.2 0  0.3 0.2 0  0.325 0.2 0  0.35 0.2 0  0.375 0.2 0  0.4 0.2 0  0.425 0.2 0  0.45 0.2 0  0.475 0.2 0  0.5 0.2 0  0.525 0.2 0  0.55 0.2 0  0.575 0.2 0  0.6 0.2 0  0.625 0.2 0  0.65 0.2 0  0.675 0.2 0  0.7 0.2 0  0.725 0.2 0  0.75 0.2 0  0.775 0.2 0  0.8 0.2 0  0.825 0.2 0  0.85 0.2 0  0.875 0.2 0  0.9 0.2 0  0.925 0.2 0  0.95 0.2 0  0.975 0.2 0  1 0.2 0  0 0.225 0  0.025 0.225 0  0.05 0.225 0  0.075 0.225 0  0.1 0.225 0  0.125 0.225 0  0.15 0.225 0  0.175 0.225 0  0.2 0.225 0  0.225 0.225 0  0.25 0.225 0  0.275 0.225 0  0.3 0.225 0  0.325 0.225 0  0.35 0.225 0  0.375 0.225 0  0.4 0.225 0  0.425 0.225 0  0.45 0.225 0  0.475 0.225 0  0.5 0.225 0  0.525 0.225 0  0.55 0.225 0  0.575 0.225 0  0.6 0.225 0  0.625 0.225 0  0.65 0.225 0  0.675 0.225 0  0.7 0.225 0  0.725 0.225 0  0.75 0.225 0  0.775 0.225 0  0.8 0.225 0  0.825 0.225 0  0.85 0.225 0  0.875 0.225 0  0.9 0.225 0  0.925 0.225 0  0.95 0.225 0  0.975 0.225 0  1 0.225 0  0 0.25 0  0.025 0.25 0  0.05 0.25 0  0.075 0.25 0  0.1 0.25 0  0.125 0.25 0  0.15 0.25 0  0.175 0.25 0  0.2 0.25 0  0.225 0.25 0  0.25 0.25 0  0.275 0.25 0  0.3 0.25 0  0.325 0.25 0  0.35 0.25 0  0.375 0.25 0  0.4 0.25 0  0.425 0.25 0  0.45 0.25 0  0.475 0.25 0  0.5 0.25 0  0.525 0.25 0  0.55 0.25 0  0.575 0.25 0  0.6 0.25 0  0.625 0.25 0  0.65 0.25 0  0.675 0.25 0  0.7 0.25 0  0.725 0.25 0  0.75 0.25 0  0.775 0.25 0  0.8 0.25 0  0.825 0.25 0  0.85 0.25 0  0.875 0.25 0  0.9 0.25 0  0.925 0.25 0  0.95 0.25 0  0.975 0.25 0  1 0.25 0  0 0.275 0  0.025 0.275 0  0.05 0.275 0  0.075 0.275 0  0.1 0.275 0  0.125 0.275 0  0.15 0.275 0  0.175 0.275 0  0.2 0.275 0  0.225 0.275 0  0.25 0.275 0  0.275 0.275 0  0.3 0.275 0  0.325 0.275 0  0.35 0.275 0  0.375 0.275 0  0.4 0.275 0  0.425 0.275 0  0.45 0.275 0  0.475 0.275 0  0.5 0.275 0  0.525 0.275 0  0.55 0.275 0  0.575 0.275 0  0.6 0.275 0  0.625 0.275 0  0.65 0.275 0  0.675 0.275 0  0.7 0.275 0  0.725 0.275 0  0.75 0.275 0  0.775 0.275 0  0.8 0.275 0  0.825 0.275 0  0.85 0.275 0  0.875 0.275 0  0.9 0.275 0  0.925 0.275 0  0.95 0.275 0  0.975 0.275 0  1 0.275 0  0 0.3 0  0.025 0.3 0  0.05 0.3 0  0.075 0.3 0  0.1 0.3 0  0.125 0.3 0  0.15 0.3 0  0.175 0.3 0  0.2 0.3 0  0.225 0.3 0  0.25 0.3 0  0.275 0.3 0  0.3 0.3 0  0.325 0.3 0  0.35 0.3 0  0.375 0.3 0  0.4 0.3 0  0.425 0.3 0  0.45 0.3 0  0.475 0.3 0  0.5 0.3 0  0.525 0.3 0  0.55 0.3 0  0.575 0.3 0  0.6 0.3 0  0.625 0.3 0  0.65 0.3 0  0.675 0.3 0  0.7 0.3 0  0.725 0.3 0  0.75 0.3 0  0.775 0.3 0  0.8 0.3 0  0.825 0.3 0  0.85 0.3 0  0.875 0.3 0  0.9 0.3 0  0.925 0.3 0  0.95 0.3 0  0.975 0.3 0  1 0.3 0  0 0.325 0  0.025 0.325 0  0.05 0.325 0  0.075 0.325 0  0.1 0.325 0  0.125 0.325 0  0.15 0.325 0  0.175 0.325 0  0.2 0.325 0  0.225 0.325 0  0.25 0.325 0  0.275 0.325 0  0.3 0.325 0  0.325 0.325 0  0.35 0.325 0  0.375 0.325 0  0.4 0.325 0  0.425 0.325 0  0.45 0.325 0  0.475 0.325 0  0.5 0.325 0  0.525 0.325 0  0.55 0.325 0  0.575 0.325 0  0.6 0.325 0  0.625 0.325 0  0.65 0.325 0  0.675 0.325 0  0.7 0.325 0  0.725 0.325 0  0.75 0.325 0  0.775 0.325 0  0.8 0.325 0  0.825 0.325 0  0.85 0.325 0  0.875 0.325 0  0.9 0.325 0  0.925 0.325 0  0.95 0.325 0  0.975 0.325 0  1 0.325 0  0 0.35 0  0.025 0.35 0  0.05 0.35 0  0.075 0.35 0  0.1 0.35 0  0.125 0.35 0  0.15 0.35 0  0.175 0.35 0  0.2 0.35 0  0.225 0.35 0  0.25 0.35 0  0.275 0.35 0  0.3 0.35 0  0.325 0.35 0  0.35 0.35 0  0.375 0.35 0  0.4 0.35 0  0.425 0.35 0  0.45 0.35 0  0.475 0.35 0  0.5 0.35 0  0.525 0.35 0  0.55 0.35 0  0.575 0.35 0  0.6 0.35 0  0.625 0.35 0  0.65 0.35 0  0.675 0.35 0  0.7 0.35 0  0.725 0.35 0  0.75 0.35 0  0.775 0.35 0  0.8 0.35 0  0.825 0.35 0  0.85 0.35 0  0.875 0.35 0  0.9 0.35 0  0.925 0.35 0  0.95 0.35 0  0.975 0.35 0  1 0.35 0  0 0.375 0  0.025 0.375 0  0.05 0.375 0  0.075 0.375 0  0.1 0.375 0  0.125 0.375 0  0.15 0.375 0  0.175 0.375 0  0.2 0.375 0  0.225 0.375 0  0.25 0.375 0  0.275 0.375 0  0.3 0.375 0  0.325 0.375 0  0.35 0.375 0  0.375 0.375 0  0.4 0.375 0  0.425 0.375 0  0.45 0.375 0  0.475 0.375 0  0.5 0.375 0  0.525 0.375 0  0.55 0.375 0  0.575 0.375 0  0.6 0.375 0  0.625 0.375 0  0.65 0.375 0  0.675 0.375 0  0.7 0.375 0  0.725 0.375 0  0.75 0.375 0  0.775 0.375 0  0.8 0.375 0  0.825 0.375 0  0.85 0.375 0  0.875 0.375 0  0.9 0.375 0  0.925 0.375 0  0.95 0.375 0  0.975 0.375 0  1 0.375 0  0 0.4 0  0.025 0.4 0  0.05 0.4 0  0.075 0.4 0  0.1 0.4 0  0.125 0.4 0  0.15 0.4 0  0.175 0.4 0  0.2 0.4 0  0.225 0.4 0  0.25 0.4 0  0.275 0.4 0  0.3 0.4 0  0.325 0.4 0  0.35 0.4 0  0.375 0.4 0  0.4 0.4 0  0.425 0.4 0  0.45 0.4 0  0.475 0.4 0  0.5 0.4 0  0.525 0.4 0  0.55 0.4 0  0.575 0.4 0  0.6 0.4 0  0.625 0.4 0  0.65 0.4 0  0.675 0.4 0  0.7 0.4 0  0.725 0.4 0  0.75 0.4 0  0.775 0.4 0  0.8 0.4 0  0.825 0.4 0  0.85 0.4 0  0.875 0.4 0  0.9 0.4 0  0.925 0.4 0  0.95 0.4 0  0.975 0.4 0  1 0.4 0  0 0.425 0  0.025 0.425 0  0.05 0.425 0  0.075 0.425 0  0.1 0.425 0  0.125 0.425 0  0.15 0.425 0  0.175 0.425 0  0.2 0.425 0  0.225 0.425 0  0.25 0.425 0  0.275 0.425 0  0.3 0.425 0  0.325 0.425 0  0.35 0.425 0  0.375 0.425 0  0.4 0.425 0  0.425 0.425 0  0.45 0.425 0  0.475 0.425 0  0.5 0.425 0  0.525 0.425 0  0.55 0.425 0  0.575 0.425 0  0.6 0.425 0  0.625 0.425 0  0.65 0.425 0  0.675 0.425 0  0.7 0.425 0  0.725 0.425 0  0.75 0.425 0  0.775 0.425 0  0.8 0.425 0  0.825 0.425 0  0.85 0.425 0  0.875 0.425 0  0.9 0.425 0  0.925 0.425 0  0.95 0.425 0  0.975 0.425 0  1 0.425 0  0 0.45 0  0.02
[...]
<PointData  Scalars="ControlVisualisation"> 
<DataArray  type="Float64"  Name="ControlVisualisation"  format="ascii">3.7299359085031947e-01  3.5554896056800978e-01  3.5567108231049749e-01  3.5593960842381445e-01  3.5633622109814445e-01  3.5680581107982362e-01  3.5728925129458017e-01  3.5768330611170207e-01  3.5798530902012932e-01  3.5817620177134357e-01  3.5826943355367669e-01  3.5832065902392579e-01  3.5824489223051936e-01  3.5824809078715253e-01  3.5821226950551260e-01  3.5808666958178620e-01  3.5797300644089830e-01  3.5782488440577975e-01  3.5768569077717399e-01  3.5751102395216172e-01  3.5737138828770826e-01  3.5725361257254590e-01  3.5714194163544094e-01  3.5699542966118258e-01  3.5687443419671910e-01  3.5675005034932511e-01  3.5661587262926170e-01  3.5648645443405735e-01  3.5634861333519924e-01  3.5623231050816018e-01  3.5614237017922784e-01  3.5604052085669780e-01  3.5593537717192936e-01  3.5584277726571345e-01  3.5575996233025647e-01  3.5570170440655435e-01  3.5564608542189985e-01  3.5560224684301739e-01  3.5557059691015930e-01  3.5554578387989932e-01  3.9066297725676535e-01  3.5550367859684473e-01  3.0475067392580557e-01  3.0579840237443046e-01  3.0812102861263024e-01  3.1173559112451382e-01  3.1590995538679328e-01  3.2021345480975666e-01  3.2384278636815300e-01  3.2668250865676468e-01  3.2855788416857074e-01  3.2954118304308794e-01  3.3011103953156107e-01  3.2970578786588811e-01  3.2943788740563340e-01  3.2868250651275016e-01  3.2767755255637115e-01  3.2645702488348483e-01  3.2513628871429140e-01  3.2381281531524952e-01  3.2243613222341072e-01  3.2105871671232228e-01  3.1980011540851211e-01  3.1845153281876715e-01  3.1717561451374193e-01  3.1577754074448600e-01  3.1457383864635774e-01  3.1347950639545630e-01  3.1226463897437146e-01  3.1108874070194426e-01  3.0999254747317323e-01  3.0905980194506466e-01  3.0823590654738520e-01  3.0736637896924118e-01  3.0658014589951432e-01  3.0592367460784231e-01  3.0543822818481214e-01  3.0507205030209816e-01  3.0479378014560771e-01  3.0462742447087754e-01  3.0455638431388182e-01  3.5554541046913013e-01  3.5547785002271115e-01  3.0585618626802985e-01  3.0943500945657021e-01  3.1510633795439325e-01  3.2284352523371906e-01  3.3156668132072314e-01  3.4014967996837331e-01  3.4720268439275193e-01  3.5250859198329743e-01  3.5642318259048100e-01  3.5825635941132905e-01  3.5900537277588596e-01  3.5853420537389274e-01  3.5757792537149702e-01  3.5569471313217244e-01  3.5337174346338951e-01  3.5089586764006825e-01  3.4825817419275218e-01  3.4552279620735343e-01  3.4255710911983944e-01  3.3969061262716399e-01  3.3696319198502689e-01  3.3408072477320511e-01  3.3111543249386849e-01  3.2833869777523728e-01  3.2569222488720928e-01  3.2327576584570600e-01  3.2084943197888788e-01  3.1849781959721329e-01  3.1624710975580633e-01  3.1418149977165050e-01  3.1239902353912852e-01  3.1062120490005235e-01  3.0899981560669887e-01  3.0767941315168051e-01  3.0661081050778966e-01  3.0580342016036532e-01  3.0521637639642363e-01  3.0483046892587667e-01  3.0461689310761125e-01  3.5556871515370547e-01  3.5558040777248723e-01  3.0863256380202303e-01  3.1675210293890599e-01  3.2605179593728434e-01  3.3657687359428012e-01  3.4723829906401532e-01  3.5700961625045041e-01  3.6478634631312501e-01  3.7005950577075319e-01  3.7371217358686892e-01  3.7531303699440954e-01  3.7536288507096155e-01  3.7439816449818708e-01  3.7234697113489457e-01  3.6972897727023024e-01  3.6670743932667360e-01  3.6347528757346170e-01  3.5996958351612557e-01  3.5639324299467490e-01  3.5273761789810687e-01  3.4881846600466099e-01  3.4543928115501832e-01  3.4181977225091958e-01  3.3807509166115934e-01  3.3457290412961238e-01  3.3138629521065344e-01  3.2836427211730962e-01  3.2527161462882020e-01  3.2238206394808155e-01  3.1974438890317985e-01  3.1716067592865349e-01  3.1483144309103606e-01  3.1267950972498182e-01  3.1067951849946512e-01  3.0898926406558380e-01  3.0765759373110796e-01  3.0660548371773094e-01  3.0585713144060711e-01  3.0522983336301707e-01  3.0476989047983710e-01  3.5559711980790082e-01  3.5585034486280898e-01  3.1403605647092037e-01  3.3128500290827967e-01  3.4575933559224664e-01  3.5781734634846946e-01  3.6801651728610163e-01  3.7585042940767965e-01  3.8166746917409056e-01  3.8488324798345419e-01  3.8666943698553163e-01  3.8654004436205441e-01  3.8503717186520914e-01  3.8290370804320573e-01  3.7992836354912984e-01  3.7643118267472919e-01  3.7290092394995039e-01  3.6908425835655839e-01  3.6500946522026972e-01  3.6107798926480583e-01  3.5691084755912850e-01  3.5263829347607351e-01  3.4880009754220320e-01  3.4506352767665593e-01  3.4111242371972850e-01  3.3745891036034903e-01  3.3399191447322440e-01  3.3078111839233248e-01  3.2742013803758480e-01  3.2435828517151638e-01  3.2155555534837932e-01  3.1885012756454600e-01  3.1633281522457085e-01  3.1401012261182015e-01  3.1196140252910382e-01  3.1015242276520888e-01  3.0864240065223486e-01  3.0751465960613006e-01  3.0662950066097855e-01  3.0584962853388881e-01  3.0506283172182691e-01  3.5564176875069198e-01  3.5633487604793584e-01  3.2703576228775044e-01  3.6197065465000233e-01  3.8335793429800658e-01  3.9392869064288000e-01  3.9923536328070242e-01  4.0142936242155469e-01  4.0201252730954240e-01  4.0111779738860931e-01  3.9951122178525528e-01  3.9689228348768324e-01  3.9308503232224079e-01  3.8917343346355937e-01  3.8498968551212981e-01  3.8070129644365402e-01  3.7633270563498694e-01  3.7204396878264712e-01  3.6760357149039757e-01  3.6348162147704932e-01  3.5894392226604543e-01  3.5459220823334081e-01  3.5068753394671287e-01  3.4673275869251519e-01  3.4284704082621037e-01  3.3901225929516632e-01  3.3561825644062293e-01  3.3235393392465590e-01  3.2896652533632892e-01  3.2580486053444979e-01  3.2290299586516469e-01  3.2016054404114913e-01  3.1764343772106274e-01  3.1530361889548297e-01  3.1322438753405446e-01  3.1145826772262986e-01  3.0989000308226411e-01  3.0867685198898498e-01  3.0768184589000069e-01  3.0669525817615950e-01  3.0551387370963606e-01  3.5570761240706328e-01  3.6553558884077325e-01  3.7137337113560992e-01  4.3232709339690450e-01  4.5287876035393054e-01  4.5226013853616992e-01  4.4502416129585981e-01  4.3626456837555672e-01  4.2801126779315779e-01  4.2054772888413622e-01  4.1393193960052815e-01  4.0781481371972028e-01  4.0146230791003062e-01  3.9554699280139510e-01  3.9005420410694897e-01  3.8462157242782680e-01  3.7956413601243882e-01  3.7458336033515943e-01  3.6987507427575572e-01  3.6547543113625186e-01  3.6078770759811896e-01  3.5638767689688583e-01  3.5220467579646786e-01  3.4817714888195544e-01  3.4444893050511161e-01  3.4063798004323714e-01  3.3717146011348165e-01  3.3402318389121854e-01  3.3063931409843489e-01  3.2746176928501752e-01  3.2449912482365667e-01  3.2175657956490900e-01  3.1921382847295238e-01  3.1682577266086837e-01  3.1476604506675687e-01  3.1299238197248702e-01  3.1149731504554062e-01  3.1027054937600829e-01  3.0910438633486426e-01  3.0787244015745668e-01  3.0605096047251612e-01  3.5577942755487318e-01  4.7959965933511245e-01  5.3216971810048364e-01  5.7209867065625741e-01  5.6345560292063723e-01  5.3594411115980056e-01  5.0574174869278898e-01  4.7964876632123310e-01  4.5878681313091191e-01  4.4248940729720426e-01  4.2984409944302454e-01  4.1918191084883583e-01  4.1005107566654220e-01  4.0224789122699989e-01  3.9512016067149425e-01  3.8856960577952709e-01  3.8283191567040542e-01  3.7725549303213479e-01  3.7216813170129637e-01  3.6735005141223315e-01  3.6265609104145829e-01  3.5819866045798915e-01  3.5388672102217039e-01  3.4997953563189865e-01  3.4617667940418223e-01  3.4236915097639564e-01  3.3885289707719018e-01  3.3577398086724097e-01  3.3250853407406972e-01  3.2935522943036200e-01  3.2634808102591167e-01  3.2364270717318205e-01  3.2115871969170723e-01  3.1870651659349680e-01  3.1670981255480524e-01  3.1492594130116280e-01  3.1337674204528515e-01  3.1204652015506928e-01  3.1081586169752945e-01  3.0931017942835176e-01  3.0673750281967016e-01  3.5586161025694329e-01  7.0146423341230513e-01  7.8190334977213283e-01  7.3864060481628346e-01  6.9226449892249753e-01  6.3296781598390628e-01  5.7495411403016894e-01  5.2769589988267551e-01  4.9195519575952368e-01  4.6534853388778191e-01  4.4593572824067718e-01  4.3071488659968549e-01  4.1828089000276591e-01  4.0827030488440125e-01  3.9989245965267012e-01  3.9219272524568655e-01  3.8617837952379186e-01  3.7982517809918909e-01  3.7427214674496623e-01  3.6935537226329168e-01  3.6471362017280562e-01  3.6025996502063584e-01  3.5582803847681016e-01  3.5201325581382997e-01  3.4835088971481332e-01  3.4441303102064602e-01  3.4093002508560905e-01  3.3767250292584189e-01  3.3458092783377030e-01  3.3157591320075092e-01  3.2857196665597682e-01  3.2589009791551998e-01  3.2339361520278725e-01  3.2111017056920194e-01  3.1912100015878003e-01  3.1727621300494596e-01  3.1568324667999342e-01  3.1425110662280403e-01  3.1296422308276761e-01  3.1107730095729447e-01  3.0754516102523166e-01  3.5595407127800693e-01  7.9294484105927110e-01  8.7814349146150916e-01  8.3579067631307635e-01  7.9236897872091816e-01  7.1907285159268675e-01  6.3959957565303649e-01  5.7306232017909775e-01  5.2326580607779971e-01  4.8679468209947130e-01  4.6065767796624257e-01  4.4130006411489270e-01  4.2617678809522114e-01  4.1388930515035888e-01  4.0436362257030628e-01  3.9582402043083498e-01  3.8882455171876806e-01  3.8243606544492914e-01  3.7637844827335287e-01  3.7171733517131700e-01  3.6688260596496708e-01  3.6251989273174756e-01  3.5806024114878954e-01  3.5426335961484151e-01  3.5059463616307668e-01  3.4674305826096147e-01  3.4343472247106899e-01  3.4010657726554988e-01  3.3710538710030280e-01  3.3422766102797702e-01  3.3136807248148814e-01  3.2862134492117728e-01  3.2614094738383770e-01  3.2403371065394965e-01  3.2191792176487788e-01  3.2001572233122599e-01  3.1854385767231541e-01  3.1713248859928217e-01  3.1567496364612702e-01  3.1315384618084352e-01  3.0852000657256529e-01  3.5606560027412704e-01  8.1185274297111065e-01  9.0192214525080405e-01  8.7243344645366205e-01  8.4170655118720605e-01  7.7240119357552250e-01  6.8541143457878917e-01  6.0692294659166968e-01  5.4706945365187731e-01  5.0371520101203959e-01  4.7261759998669556e-01  4.4972322225439920e-01  4.3256148677377421e-01  4.1878607192352763e-01  4.0801442551880990e-01  3.9924096522914215e-01  3.9142380845664004e-01  3.8488150555529815e-01  3.7895537035294463e-01  3.7398805071226715e-01  3.6907643492111808e-01  3.6469882806917842e-01  3.6026861876519967e-01  3.5658708349158841e-01  3.5300462162366242e-01  3.4914391650043441e-01  3.4611852046454716e-01  3.4307239097850017e-01  3.4008620047053983e-01  3.3712967045566139e-01  3.3438294929767604e-01  3.3185759153801164e-01  3.2941149801371694e-01  3.2733922832705553e-01  3.2532232388401489e-01  3.2333499213720446e-01  3.2175251771052427e-01  3.2028737303532701e-01  3.1865499886549886e-01  3.1552351438440901e-01  3.0959931788182304e-01  3.5618813779100195e-01  7.8612392107439166e-01  8.8424126152598981e-01  8.6344218206810897e-01  8.4441901865973945e-01  7.8605943634264142e-01  7.0306460301730000e-01  6.2300167773010606e-01  5.5991683507273649e-01  5.1387585123154311e-01  4.8022913912691650e-01  4.5545038190765097e-01  4.3691907687304427e-01  4.2257228255800167e-01  4.1107432616347328e-01  4.0199680416274908e-01  3.9384295786012435e-01  3.8704334057350004e-01  3.8133807213095355e-01  3.7616138281430861e-01  3.7124993232548675e-01  3.6691305820786968e-01  3.6277024621834231e-01  3.5904703198326737e-01  3.5578868463146163e-01  3.5216305401582487e-01  3.4908209493947834e-01  3.4644069637534325e-01  3.4354412577225651e-01  3.4065033702245767e-01  3.3796984241182426e-01  3.3545230109370600e-01  3.3318750458201024e-01  3.3114897568366897e-01  3.2922951848237780e-01  3.2712785511146558e-01  3.2538452759269682e-01  3.2385421767022776e-01  3.2203314861810134e-01  3.1823806270309274e-01  3.1086173638462911e-01  3.5630500133133791e-01  6.7156272144065698e-01  8.1886403298724841e-01  8.0418103238723226e-01  8.0592175926218734e-01  7.6316965567658324e-01  6.9270080078087881e-01  6.1992278689567071e-01  5.6041857760577252e-01  5.1576425373931800e-01  4.8259519582423949e-01  4.5788278489069867e-01  4.3902616576844422e-01  4.2459259301180713e-01  4.1267774060701412e-01  4.0319626076595000e-01  3.9506108398708745e-01  3.8858605574438787e-01  3.8306405699163820e-01  3.7815254514933100e-01  3.7337658774772264e-01  3.6907465361080011e-01  3.6523826429442957e-01  3.6160141268390539e-01  3.5858540418705720e-01  3.5543776875810557e-01  3.5241201828024182e-01  3.4978277432671839e-01  3.4697564339105103e-01  3.4440666465750730e-01  3.4198596933774550e-01  3.3949661188709640e-01  3.3727054284460722e-01  3.3521588280027503e-01  3.3338716434117538e-01  3.3144098389551541e-01  3.2972685434241661e-01  3.2818312308826492e-01  3.2606515412727360e-01  3.2143949030935015e-01  3.1234836102875913e-01  3.5645909969979572e-01  4.3858262889574168e-01  6.3769347760990758e-01  7.0766525716769946e-01  7.3574410666213985e-01  7.1245139142358027e-01  6.5975928330759492e-01  6.0073685719688230e-01  5.4947551215805901e-01  5.0953175793364880e-01  4.7938650837258856e-01  4.5638340791653964e-01  4.3843060629646474e-01  4.2444816327690738e-01  4.1275315507521437e-01  4.0356705181336350e-01  3.9590659288410640e-01  3.8975527420737444e-01  3.8456219894993360e-01  3.7988241840841069e-01  3.7537272131263560e-01  3.7127159403127524e-01  3.6775557364668787e-01  3.6433859454365675e-01  3.6152880406926685e-01  3.5845426865058239e-01  3.5575210569878124e-01  3.5339847149416259e-01  3.5088107053158529e-01  3.4863962910802543e-01  3.4640027154706549e-01  3.4409355395497654e-01  3.4214960899146707e-01  3.4018238116461474e-01  3.3841220942131262e-01  3.3660550123819838e-01  3.3494004152121198e-01  3.3325071911029752e-01  3.3082660043115875e-01  3.2526802128742804e-01  3.1412763411874817e-01  3.5664086475981449e-01  3.6724961146607765e-01  4.5359942761983874e-01  6.0015989056619423e-01  6.5137475195437655e-01  6.4736338740884136e-01  6.1312993556800899e-01  5.6997846861465329e-01  5.2991103499874626e-01  4.9695559200296346e-01  4.7129246712987632e-01  4.5125206911099475e-01  4.3532507136501181e-01  4.2224318639102271e-01  4.1132558804336933e-01  4.0286525051972966e-01  3.9597786467152474e-01  3.9022422424413816e-01  3.8557284330257324e-01  3.8122177682665864e-01  3.7702195073645600e-01  3.7313463044834128e-01  3.7004376941688577e-01  3.6705081736528189e-01  3.6437641562943440e-01  3.6145841106618914e-01  3.5899799986165432e-01  3.5703540151388458e-01  3.5502377146608277e-01  3.5307565781971456e-01  3.5094170240351225e-01  3.4901171685135857e-01  3.4737419967973565e-01  3.4569308844253244e-01  3.4403369013253376e-01  3.4240455127493802e-01  3.4080978466929773e-01  3.3916885156607457e-01  3.3629102178110354e-01  3.2973731123195160e-01  3.1615425759070676e-01  3.5683627397700701e-01  3.6257458243815788e-01  3.9440628805579320e-01  5.1684603271251783e-01  5.7324979017975952e-01  5.8159223974590291e-01  5.6326763489573772e-01  5.3503755245054962e-01  5.0627625587225666e-01  4.8069300571055162e-01  4.6002878061331776e-01  4.4351717907690408e-01  4.3011392667808246e-01  4.1875715751313153e-01  4.0897631458328243e-01  4.0143393551663847e-01  3.9507979726594211e-01  3.8984588338036963e-01  3.8572291339373588e-01  3.8179276024767050e-01  3.7826648463233792e-01  3.7498749464200054e-01  3.7214841797251147e-01  3.6952113521186369e-01  3.6726459935637695e-01  3.6471456599643054e-01  3.6255762402641611e-01  3.6098649421762175e-01  3.5926071693532075e-01  3.5793395622338969e-01  3.5615984860551447e-01  3.5466293451641939e-01  3.5314761176894777e-01  3.5190122683332836e-01  3.5062919545514298e-01  3.4926225403450062e-01  3.4772891213505436e-01  3.4589316953083471e-01  3.4278091061434574e-01  3.3477614121299282e-01  3.1850067582285618e-01  3.5706798844499404e-01  3.6171122404531908e-01  3.7466001068666693e-01  4.6678908632884109e-01  5.1425410190944065e-01  5.2661176571732116e-01  5.1811752345532847e-01  5.0114158144271459e-01  4.8179420964461223e-01  4.6331253992090465e-01  4.4744927368877174e-01  4.3460512958378344e-01  4.2363968756400078e-01  4.1421039947995092e-01  4.0626945112134838e-01  3.9968788654727894e-01  3.9422881305632962e-01  3.8942827038193195e-01  3.8569219268221716e-01  3.8225186169428232e-01  3.7941439563387991e-01  3.7697421929025399e-01  3.7459628755384389e-01  3.7223712043076773e-01  3.7043517612197568e-01  3.6837693796267090e-01  3.6682705206176791e-01  3.6535165201662800e-01  3.6411478028110611e-01  3.6317500880232201e-01  3.6214503286194261e-01  3.6119841396321528e-01  3.6004113565969836e-01  3.5911952890036775e-01  3.5837852382525720e-01  3.5722133625149755e-01  3.5590552138153697e-01  3.5407876290237489e-01  3.5009362609295575e-01  3.4056331800636169e-01  3.2102083231608430e-01  3.5731611812582381e-01  3.6071872766595792e-01  3.6096044713439840e-01  4.3301749711516724e-01  4.7123738223952671e-01  4.8336361800806998e-01  4.8004697291522819e-01  4.7056189756049527e-01  4.5805755010176835e-01  4.4547101881730417e-01  4.3403274615094795e-01  4.2433075587045493e-01  4.1580698870836896e-01  4.0855840443281466e-01  4.0219390197656901e-01  3.9669674085034834e-01  3.9200655420635161e-01  3.8833347633220139e-01  3.8518044813196251e-01  3.8255541216244565e-01  3.8027195867810804e-01  3.7830858060637151e-01  3.7642333987206467e-01  3.7476314270103828e-01  3.7330352655115262e-01  3.7198800422454820e-01  3.7096717905602095e-01  3.7024619791973856e-01  3.6966066822638749e-01  3.6890192455876669e-01  3.6849515306441505e-01  3.6803022748798764e-01  3.6752628907101254e-01  3.6723553971554146e-01  3.6695173291661387e-01  3.6629576964940253e-01  3.6519259074085975e-01  3.6342328939118940e-01  3.5898131741185635e-01  3.4733959357226346e-01  3.2414521135191465e-01  3.5760685568785183e-01  3.5993699273735713e-01  3.5134610935209265e-01  4.0980660607674196e-01  4.3999471300891069e-01  4.5032527346261769e-01  4.4998744868164831e-01  4.4478976856326319e-01  4.3706943184758823e-01  4.2872387606864260e-01  4.2096928429377917e-01  4.1388173899536657e-01  4.0759386035662404e-01  4.0219154128589685e-01  3.9748880712752183e-01  3.9300517285689301e-01  3.8951549627556858e-01  3.8680088937236945e-01  3.8441072339862886e-01  3.8252701245451504e-01  3.8080003749273927e-01  3.7915453823819195e-01  3.7786490628622460e-01  3.7687350564309513e-01  3.7607358137315516e-01  3.7544569757027429e-01  3.7487312497716807e-01  3.7484795355385847e-01  3.7516655126126031e-01  3.7510520155322447e-01  3.7528312750502790e-01  3.7551478371265573e-01  3.7599955340069924e-01  3.7645092553275084e-01  3.7683314268756091e-01  3.7677165080904768e-01  3.7604324140648304e-01  3.7413898761014674e-01  3.6923765859709051e-01  3.5583498559345395e-01  3.2802527439697249e-01  3.5796064930426374e-01  3.5931682766306500e-01  3.4367057933319828e-01  3.9161218526130065e-01  4.1609268772984359e-01  4.2489532164372162e-01  4.2585388133796820e-01  4.2323319689045180e-01  4.1870547420585053e-01  4.1344156188866082e-01  4.0818380197199777e-01  4.0347218287589820e-01  3.9923124766921070e-01  3.9553137911188413e-01  3.9219901923528716e-01  3.8888008690485221e-01  3.8639010850898831e-01  3.8474351716919009e-01  3.8302627286137203e-01  3.8163126793199692e-01  3.8053622417456190e-01  3.7961386606932168e-01  3.7877227782545103e-01  3.7847372421156283e-01  3.7842370358143701e-01  3.7832395886469750e-01  3.7855000327158905e-01  3.7920524334257788e-01  3.8021122835669258e-01  3.8105095389266985e-01  3.8218464292343646e-01  3.8357148382985845e-01  3.8517184837792434e-01  3.8699398881964486e-01  3.8823335180556623e-01  3.8902124690945872e-01  3.8921526233981252e-01  3.8748819941968576e-01  3.8155942781307156e-01  3.6549780301536050e-01  3.3240602938397451e-01  3.5839493444921661e-01  3.5878748396008003e-01  3.3731671185835049e-01  3.7711643341744444e-01  3.9711841500507145e-01  4.0458291086471709e-01  4.0618636407402325e-01  4.0507875869728555e-01  4.0241651102879067e-01  3.993921707