<?xml version="1.0"?>
<VTKFile type="UnstructuredGrid"  version="0.1"  >
<UnstructuredGrid>
<Piece  NumberOfPoints="1681" NumberOfCells="3200">
<Points>
<DataArray  type="Float64"  NumberOfComponents="3"  format="ascii">0 0 0  0.025 0 0  0.05 0 0  0.075 0 0  0.1 0 0  0.125 0 0  0.15 0 0  0.175 0 0  0.2 0 0  0.225 0 0  0.25 0 0  0.275 0 0  0.3 0 0  0.325 0 0  0.35 0 0  0.375 0 0  0.4 0 0  0.425 0 0  0.45 0 0  0.475 0 0  0.5 0 0  0.525 0 0  0.55 0 0  0.575 0 0  0.6 0 0  0.625 0 0  0.65 0 0  0.675 0 0  0.7 0 0  0.725 0 0  0.75 0 0  0.775 0 0  0.8 0 0  0.825 0 0  0.85 0 0  0.875 0 0  0.9 0 0  0.925 0 0  0.95 0 0  0.975 0 0  1 0 0  0 0.025 0  0.025 0.025 0  0.05 0.025 0  0.075 0.025 0  0.1 0.025 0  0.125 0.025 0  0.15 0.025 0  0.175 0.025 0  0.2 0.025 0  0.225 0.025 0  0.25 0.025 0  0.275 0.025 0  0.3 0.025 0  0.325 0.025 0  0.35 0.025 0  0.375 0.025 0  0.4 0.025 0  0.425 0.025 0  0.45 0.025 0  0.475 0.025 0  0.5 0.025 0  0.525 0.025 0  0.55 0.025 0  0.575 0.025 0  0.6 0.025 0  0.625 0.025 0  0.65 0.025 0  0.675 0.025 0  0.7 0.025 0  0.725 0.025 0  0.75 0.025 0  0.775 0.025 0  0.8 0.025 0  0.825 0.025 0  0.85 0.025 0  0.875 0.025 0  0.9 0.025 0  0.925 0.025 0  0.95 0.025 0  0.975 0.025 0  1 0.025 0  0 0.05 0  0.025 0.05 0  0.05 0.05 0  0.075 0.05 0  0.1 0.05 0  0.125 0.05 0  0.15 0.05 0  0.175 0.05 0  0.2 0.05 0  0.225 0.05 0  0.25 0.05 0  0.275 0.05 0  0.3 0.05 0  0.325 0.05 0  0.35 0.05 0  0.375 0.05 0  0.4 0.05 0  0.425 0.05 0  0.45 0.05 0  0.475 0.05 0  0.5 0.05 0  0.525 0.05 0  0.55 0.05 0  0.575 0.05 0  0.6 0.05 0  0.625 0.05 0  0.65 0.05 0  0.675 0.05 0  0.7 0.05 0  0.725 0.05 0  0.75 0.05 0  0.775 0.05 0  0.8 0.05 0  0.825 0.05 0  0.85 0.05 0  0.875 0.05 0  0.9 0.05 0  0.925 0.05 0  0.95 0.05 0  0.975 0.05 0  1 0.05 0  0 0.075 0  0.025 0.075 0  0.05 0.075 0  0.075 0.075 0  0.1 0.075 0  0.125 0.075 0  0.15 0.075 0  0.175 0.075 0  0.2 0.075 0  0.225 0.075 0  0.25 0.075 0  0.275 0.075 0  0.3 0.075 0  0.325 0.075 0  0.35 0.075 0  0.375 0.075 0  0.4 0.075 0  0.425 0.075 0  0.45 0.075 0  0.475 0.075 0  0.5 0.075 0  0.525 0.075 0  0.55 0.075 0  0.575 0.075 0  0.6 0.075 0  0.625 0.075 0  0.65 0.075 0  0.675 0.075 0  0.7 0.075 0  0.725 0.075 0  0.75 0.075 0  0.775 0.075 0  0.8 0.075 0  0.825 0.075 0  0.85 0.075 0  0.875 0.075 0  0.9 0.075 0  0.925 0.075 0  0.95 0.075 0  0.975 0.075 0  1 0.075 0  0 0.1 0  0.025 0.1 0  0.05 0.1 0  0.075 0.1 0  0.1 0.1 0  0.125 0.1 0  0.15 0.1 0  0.175 0.1 0  0.2 0.1 0  0.225 0.1 0  0.25 0.1 0  0.275 0.1 0  0.3 0.1 0  0.325 0.1 0  0.35 0.1 0  0.375 0.1 0  0.4 0.1 0  0.425 0.1 0  0.45 0.1 0  0.475 0.1 0  0.5 0.1 0  0.525 0.1 0  0.55 0.1 0  0.575 0.1 0  0.6 0.1 0  0.625 0.1 0  0.65 0.1 0  0.675 0.1 0  0.7 0.1 0  0.725 0.1 0  0.75 0.1 0  0.775 0.1 0  0.8 0.1 0  0.825 0.1 0  0.85 0.1 0  0.875 0.1 0  0.9 0.1 0  0.925 0.1 0  0.95 0.1 0  0.975 0.1 0  1 0.1 0  0 0.125 0  0.025 0.125 0  0.05 0.125 0  0.075 0.125 0  0.1 0.125 0  0.125 0.125 0  0.15 0.125 0  0.175 0.125 0  0.2 0.125 0  0.225 0.125 0  0.25 0.125 0  0.275 0.125 0  0.3 0.125 0  0.325 0.125 0  0.35 0.125 0  0.375 0.125 0  0.4 0.125 0  0.425 0.125 0  0.45 0.125 0  0.475 0.125 0  0.5 0.125 0  0.525 0.125 0  0.55 0.125 0  0.575 0.125 0  0.6 0.125 0  0.625 0.125 0  0.65 0.125 0  0.675 0.125 0  0.7 0.125 0  0.725 0.125 0  0.75 0.125 0  0.775 0.125 0  0.8 0.125 0  0.825 0.125 0  0.85 0.125 0  0.875 0.125 0  0.9 0.125 0  0.925 0.125 0  0.95 0.125 0  0.975 0.125 0  1 0.125 0  0 0.15 0  0.025 0.15 0  0.05 0.15 0  0.075 0.15 0  0.1 0.15 0  0.125 0.15 0  0.15 0.15 0  0.175 0.15 0  0.2 0.15 0  0.225 0.15 0  0.25 0.15 0  0.275 0.15 0  0.3 0.15 0  0.325 0.15 0  0.35 0.15 0  0.375 0.15 0  0.4 0.15 0  0.425 0.15 0  0.45 0.15 0  0.475 0.15 0  0.5 0.15 0  0.525 0.15 0  0.55 0.15 0  0.575 0.15 0  0.6 0.15 0  0.625 0.15 0  0.65 0.15 0  0.675 0.15 0  0.7 0.15 0  0.725 0.15 0  0.75 0.15 0  0.775 0.15 0  0.8 0.15 0  0.825 0.15 0  0.85 0.15 0  0.875 0.15 0  0.9 0.15 0  0.925 0.15 0  0.95 0.15 0  0.975 0.15 0  1 0.15 0  0 0.175 0  0.025 0.175 0  0.05 0.175 0  0.075 0.175 0  0.1 0.175 0  0.125 0.175 0  0.15 0.175 0  0.175 0.175 0  0.2 0.175 0  0.225 0.175 0  0.25 0.175 0  0.275 0.175 0  0.3 0.175 0  0.325 0.175 0  0.35 0.175 0  0.375 0.175 0  0.4 0.175 0  0.425 0.175 0  0.45 0.175 0  0.475 0.175 0  0.5 0.175 0  0.525 0.175 0  0.55 0.175 0  0.575 0.175 0  0.6 0.175 0  0.625 0.175 0  0.65 0.175 0  0.675 0.175 0  0.7 0.175 0  0.725 0.175 0  0.75 0.175 0  0.775 0.175 0  0.8 0.175 0  0.825 0.175 0  0.85 0.175 0  0.875 0.175 0  0.9 0.175 0  0.925 0.175 0  0.95 0.175 0  0.975 0.175 0  1 0.175 0  0 0.2 0  0.025 0.2 0  0.05 0.2 0  0.075 0.2 0  0.1 0.2 0  0.125 0.2 0  0.15 0.2 0  0.175 0.2 0  0.2 0.2 0  0.225 0.2 0  0.25 0.2 0  0.275 0.2 0  0.3 0.2 0  0.325 0.2 0  0.35 0.2 0  0.375 0.2 0  0.4 0.2 0  0.425 0.2 0  0.45 0.2 0  0.475 0.2 0  0.5 0.2 0  0.525 0.2 0  0.55 0.2 0  0.575 0.2 0  0.6 0.2 0  0.625 0.2 0  0.65 0.2 0  0.675 0.2 0  0.7 0.2 0  0.725 0.2 0  0.75 0.2 0  0.775 0.2 0  0.8 0.2 0  0.825 0.2 0  0.85 0.2 0  0.875 0.2 0  0.9 0.2 0  0.925 0.2 0  0.95 0.2 0  0.975 0.2 0  1 0.2 0  0 0.225 0  0.025 0.225 0  0.05 0.225 0  0.075 0.225 0  0.1 0.225 0  0.125 0.225 0  0.15 0.225 0  0.175 0.225 0  0.2 0.225 0  0.225 0.225 0  0.25 0.225 0  0.275 0.225 0  0.3 0.225 0  0.325 0.225 0  0.35 0.225 0  0.375 0.225 0  0.4 0.225 0  0.425 0.225 0  0.45 0.225 0  0.475 0.225 0  0.5 0.225 0  0.525 0.225 0  0.55 0.225 0  0.575 0.225 0  0.6 0.225 0  0.625 0.225 0  0.65 0.225 0  0.675 0.225 0  0.7 0.225 0  0.725 0.225 0  0.75 0.225 0  0.775 0.225 0  0.8 0.225 0  0.825 0.225 0  0.85 0.225 0  0.875 0.225 0  0.9 0.225 0  0.925 0.225 0  0.95 0.225 0  0.975 0.225 0  1 0.225 0  0 0.25 0  0.025 0.25 0  0.05 0.25 0  0.075 0.25 0  0.1 0.25 0  0.125 0.25 0  0.15 0.25 0  0.175 0.25 0  0.2 0.25 0  0.225 0.25 0  0.25 0.25 0  0.275 0.25 0  0.3 0.25 0  0.325 0.25 0  0.35 0.25 0  0.375 0.25 0  0.4 0.25 0  0.425 0.25 0  0.45 0.25 0  0.475 0.25 0  0.5 0.25 0  0.525 0.25 0  0.55 0.25 0  0.575 0.25 0  0.6 0.25 0  0.625 0.25 0  0.65 0.25 0  0.675 0.25 0  0.7 0.25 0  0.725 0.25 0  0.75 0.25 0  0.775 0.25 0  0.8 0.25 0  0.825 0.25 0  0.85 0.25 0  0.875 0.25 0  0.9 0.25 0  0.925 0.25 0  0.95 0.25 0  0.975 0.25 0  1 0.25 0  0 0.275 0  0.025 0.275 0  0.05 0.275 0  0.075 0.275 0  0.1 0.275 0  0.125 0.275 0  0.15 0.275 0  0.175 0.275 0  0.2 0.275 0  0.225 0.275 0  0.25 0.275 0  0.275 0.275 0  0.3 0.275 0  0.325 0.275 0  0.35 0.275 0  0.375 0.275 0  0.4 0.275 0  0.425 0.275 0  0.45 0.275 0  0.475 0.275 0  0.5 0.275 0  0.525 0.275 0  0.55 0.275 0  0.575 0.275 0  0.6 0.275 0  0.625 0.275 0  0.65 0.275 0  0.675 0.275 0  0.7 0.275 0  0.725 0.275 0  0.75 0.275 0  0.775 0.275 0  0.8 0.275 0  0.825 0.275 0  0.85 0.275 0  0.875 0.275 0  0.9 0.275 0  0.925 0.275 0  0.95 0.275 0  0.975 0.275 0  1 0.275 0  0 0.3 0  0.025 0.3 0  0.05 0.3 0  0.075 0.3 0  0.1 0.3 0  0.125 0.3 0  0.15 0.3 0  0.175 0.3 0  0.2 0.3 0  0.225 0.3 0  0.25 0.3 0  0.275 0.3 0  0.3 0.3 0  0.325 0.3 0  0.35 0.3 0  0.375 0.3 0  0.4 0.3 0  0.425 0.3 0  0.45 0.3 0  0.475 0.3 0  0.5 0.3 0  0.525 0.3 0  0.55 0.3 0  0.575 0.3 0  0.6 0.3 0  0.625 0.3 0  0.65 0.3 0  0.675 0.3 0  0.7 0.3 0  0.725 0.3 0  0.75 0.3 0  0.775 0.3 0  0.8 0.3 0  0.825 0.3 0  0.85 0.3 0  0.875 0.3 0  0.9 0.3 0  0.925 0.3 0  0.95 0.3 0  0.975 0.3 0  1 0.3 0  0 0.325 0  0.025 0.325 0  0.05 0.325 0  0.075 0.325 0  0.1 0.325 0  0.125 0.325 0  0.15 0.325 0  0.175 0.325 0  0.2 0.325 0  0.225 0.325 0  0.25 0.325 0  0.275 0.325 0  0.3 0.325 0  0.325 0.325 0  0.35 0.325 0  0.375 0.325 0  0.4 0.325 0  0.425 0.325 0  0.45 0.325 0  0.475 0.325 0  0.5 0.325 0  0.525 0.325 0  0.55 0.325 0  0.575 0.325 0  0.6 0.325 0  0.625 0.325 0  0.65 0.325 0  0.675 0.325 0  0.7 0.325 0  0.725 0.325 0  0.75 0.325 0  0.775 0.325 0  0.8 0.325 0  0.825 0.325 0  0.85 0.325 0  0.875 0.325 0  0.9 0.325 0  0.925 0.325 0  0.95 0.325 0  0.975 0.325 0  1 0.325 0  0 0.35 0  0.025 0.35 0  0.05 0.35 0  0.075 0.35 0  0.1 0.35 0  0.125 0.35 0  0.15 0.35 0  0.175 0.35 0  0.2 0.35 0  0.225 0.35 0  0.25 0.35 0  0.275 0.35 0  0.3 0.35 0  0.325 0.35 0  0.35 0.35 0  0.375 0.35 0  0.4 0.35 0  0.425 0.35 0  0.45 0.35 0  0.475 0.35 0  0.5 0.35 0  0.525 0.35 0  0.55 0.35 0  0.575 0.35 0  0.6 0.35 0  0.625 0.35 0  0.65 0.35 0  0.675 0.35 0  0.7 0.35 0  0.725 0.35 0  0.75 0.35 0  0.775 0.35 0  0.8 0.35 0  0.825 0.35 0  0.85 0.35 0  0.875 0.35 0  0.9 0.35 0  0.925 0.35 0  0.95 0.35 0  0.975 0.35 0  1 0.35 0  0 0.375 0  0.025 0.375 0  0.05 0.375 0  0.075 0.375 0  0.1 0.375 0  0.125 0.375 0  0.15 0.375 0  0.175 0.375 0  0.2 0.375 0  0.225 0.375 0  0.25 0.375 0  0.275 0.375 0  0.3 0.375 0  0.325 0.375 0  0.35 0.375 0  0.375 0.375 0  0.4 0.375 0  0.425 0.375 0  0.45 0.375 0  0.475 0.375 0  0.5 0.375 0  0.525 0.375 0  0.55 0.375 0  0.575 0.375 0  0.6 0.375 0  0.625 0.375 0  0.65 0.375 0  0.675 0.375 0  0.7 0.375 0  0.725 0.375 0  0.75 0.375 0  0.775 0.375 0  0.8 0.375 0  0.825 0.375 0  0.85 0.375 0  0.875 0.375 0  0.9 0.375 0  0.925 0.375 0  0.95 0.375 0  0.975 0.375 0  1 0.375 0  0 0.4 0  0.025 0.4 0  0.05 0.4 0  0.075 0.4 0  0.1 0.4 0  0.125 0.4 0  0.15 0.4 0  0.175 0.4 0  0.2 0.4 0  0.225 0.4 0  0.25 0.4 0  0.275 0.4 0  0.3 0.4 0  0.325 0.4 0  0.35 0.4 0  0.375 0.4 0  0.4 0.4 0  0.425 0.4 0  0.45 0.4 0  0.475 0.4 0  0.5 0.4 0  0.525 0.4 0  0.55 0.4 0  0.575 0.4 0  0.6 0.4 0  0.625 0.4 0  0.65 0.4 0  0.675 0.4 0  0.7 0.4 0  0.725 0.4 0  0.75 0.4 0  0.775 0.4 0  0.8 0.4 0  0.825 0.4 0  0.85 0.4 0  0.875 0.4 0  0.9 0.4 0  0.925 0.4 0  0.95 0.4 0  0.975 0.4 0  1 0.4 0  0 0.425 0  0.025 0.425 0  0.05 0.425 0  0.075 0.425 0  0.1 0.425 0  0.125 0.425 0  0.15 0.425 0  0.175 0.425 0  0.2 0.425 0  0.225 0.425 0  0.25 0.425 0  0.275 0.425 0  0.3 0.425 0  0.325 0.425 0  0.35 0.425 0  0.375 0.425 0  0.4 0.425 0  0.425 0.425 0  0.45 0.425 0  0.475 0.425 0  0.5 0.425 0  0.525 0.425 0  0.55 0.425 0  0.575 0.425 0  0.6 0.425 0  0.625 0.425 0  0.65 0.425 0  0.675 0.425 0  0.7 0.425 0  0.725 0.425 0  0.75 0.425 0  0.775 0.425 0  0.8 0.425 0  0.825 0.425 0  0.85 0.425 0  0.875 0.425 0  0.9 0.425 0  0.925 0.425 0  0.95 0.425 0  0.975 0.425 0  1 0.425 0  0 0.45 0  0.02
[...]
<PointData  Scalars="ControlVisualisation"> 
<DataArray  type="Float64"  Name="ControlVisualisation"  format="ascii">3.7226685039205704e-01  3.5420868090613400e-01  3.5426848062018873e-01  3.5448930193040762e-01  3.5485665902959307e-01  3.5529665328007715e-01  3.5573048060377338e-01  3.5610162222409292e-01  3.5638244361941601e-01  3.5656832122226739e-01  3.5666835131373381e-01  3.5669754597788639e-01  3.5667187930796856e-01  3.5660576506767627e-01  3.5651110232142647e-01  3.5639718725711145e-01  3.5627101284751378e-01  3.5613769320609634e-01  3.5600089071204444e-01  3.5586318546958035e-01  3.5572637874542090e-01  3.5559172755058466e-01  3.5546012516189868e-01  3.5533223541941150e-01  3.5520859240390257e-01  3.5508966981600426e-01  3.5497593081628298e-01  3.5486785961316797e-01  3.5476597856970532e-01  3.5467085447103275e-01  3.5458309385973918e-01  3.5450333051983363e-01  3.5443220755585919e-01  3.5437035576229747e-01  3.5431837689528894e-01  3.5427685185317226e-01  3.5424639189960777e-01  3.5422762462824148e-01  3.5422040936463511e-01  3.5422082671499910e-01  3.9053842499692082e-01  3.5420613604147222e-01  3.0172961607652010e-01  3.0283130830939142e-01  3.0529268267791793e-01  3.0903085069099079e-01  3.1342348755670635e-01  3.1775388969751328e-01  3.2149464666340766e-01  3.2437595010809867e-01  3.2633913175969753e-01  3.2745644915383593e-01  3.2786120525156881e-01  3.2770144391357975e-01  3.2711485657741068e-01  3.2621810871461376e-01  3.2510456021501694e-01  3.2384607796364551e-01  3.2249646889485600e-01  3.2109519851561058e-01  3.1967079134104825e-01  3.1824369903557126e-01  3.1682860539463753e-01  3.1543622374463881e-01  3.1407467942452277e-01  3.1275053877299175e-01  3.1146957691324340e-01  3.1023731350795991e-01  3.0905938066354705e-01  3.0794174706422700e-01  3.0689081121030148e-01  3.0591339495043718e-01  3.0501664588149557e-01  3.0420787199175692e-01  3.0349433711244223e-01  3.0288305949632804e-01  3.0238070116500848e-01  3.0199346142845002e-01  3.0172604954704463e-01  3.0157570185393134e-01  3.0151994862802250e-01  3.5422082550377865e-01  3.5424385172962952e-01  3.0283513009698826e-01  3.0655933509758293e-01  3.1259032055983538e-01  3.2073643763018328e-01  3.2986981892933298e-01  3.3864269453121321e-01  3.4609105057455136e-01  3.5175322003456799e-01  3.5555908588611462e-01  3.5767211112271446e-01  3.5836158618514241e-01  3.5792018754033889e-01  3.5661932425049614e-01  3.5468987840767796e-01  3.5231784296822760e-01  3.4964750210988227e-01  3.4678774296194947e-01  3.4381906385734040e-01  3.4080009676586032e-01  3.3777319535899597e-01  3.3476897974588360e-01  3.3180993199537540e-01  3.2891318115387025e-01  3.2609261085268493e-01  3.2336042203559190e-01  3.2072826570279656e-01  3.1820801076803873e-01  3.1581222355518640e-01  3.1355438732832869e-01  3.1144890970913325e-01  3.0951094566082360e-01  3.0775607037135921e-01  3.0619985519809950e-01  3.0485736468892816e-01  3.0374248129387277e-01  3.0286629334112997e-01  3.0223144685050557e-01  3.0181641697650541e-01  3.0157572381916647e-01  3.5422038777218057e-01  3.5441326817344254e-01  3.0564793699131870e-01  3.1394541428993905e-01  3.2372205479595217e-01  3.3467472667831699e-01  3.4580756351787872e-01  3.5583285917834045e-01  3.6391064667322676e-01  3.6973088449854224e-01  3.7335679671007926e-01  3.7505212365440072e-01  3.7515815599304314e-01  3.7401968637960548e-01  3.7194670630271315e-01  3.6919907118358158e-01  3.6598446485610914e-01  3.6246317121685712e-01  3.5875560123846151e-01  3.5495031758750195e-01  3.5111141872913287e-01  3.4728484698347101e-01  3.4350354281230783e-01  3.3979149823624183e-01  3.3616692969465922e-01  3.3264466906885076e-01  3.2923794009641649e-01  3.2595964031311103e-01  3.2282321363147787e-01  3.1984318331544626e-01  3.1703538189375297e-01  3.1441693341971744e-01  3.1200602280191353e-01  3.0982146940725075e-01  3.0788213508967549e-01  3.0620606657640875e-01  3.0480881411161920e-01  3.0369876887412528e-01  3.0286296934135765e-01  3.0223552141790477e-01  3.0172715691429819e-01  3.5422755322252941e-01  3.5475271034477635e-01  3.1117093733087853e-01  3.2864529226021083e-01  3.4381513172269612e-01  3.5647734140901088e-01  3.6702165566018569e-01  3.7530466498324655e-01  3.8121973718420954e-01  3.8487806805533509e-01  3.8654509895621741e-01  3.8655298205552824e-01  3.8524151761277586e-01  3.8292400562684015e-01  3.7987052176743724e-01  3.7630264382329903e-01  3.7239519505113156e-01  3.6828173615976939e-01  3.6406156081057722e-01  3.5980677855051962e-01  3.5556874475826383e-01  3.5138356144482119e-01  3.4727656930755441e-01  3.4326590999842199e-01  3.3936531099051626e-01  3.3558620930259120e-01  3.3193931593406900e-01  3.2843575174173600e-01  3.2508779993180043e-01  3.2190935558241796e-01  3.1891607646766956e-01  3.1612529955908891e-01  3.1355573493066852e-01  3.1122694387919403e-01  3.0915856324350083e-01  3.0736898213707647e-01  3.0587226908103421e-01  3.0466914220256569e-01  3.0371998617734441e-01  3.0288665244640928e-01  3.0199996433665405e-01  3.5424640450170325e-01  3.5527596849208326e-01  3.2434229363581368e-01  3.5989815369749223e-01  3.8230203075742658e-01  3.9358527557891104e-01  3.9925258795038637e-01  4.0188712139364774e-01  4.0255654205901981e-01  4.0177951481902496e-01  3.9987842234559734e-01  3.9709891798972813e-01  3.9364874876043066e-01  3.8970787466046364e-01  3.8542941937262709e-01  3.8093930778622276e-01  3.7633721449622559e-01  3.7169910105627257e-01  3.6708076316640514e-01  3.6252175148679644e-01  3.5804915018192673e-01  3.5368099728822272e-01  3.4942916814152886e-01  3.4530175093199328e-01  3.4130495717800424e-01  3.3744459451810760e-01  3.3372718588842126e-01  3.3016076126033839e-01  3.2675538589037456e-01  3.2352343499917990e-01  3.2047962281557751e-01  3.1764081753231999e-01  3.1502564019965068e-01  3.1265382442629258e-01  3.1054522093071674e-01  3.0871790144833755e-01  3.0718329367598696e-01  3.0593129624592247e-01  3.0488535358430074e-01  3.0380530620865226e-01  3.0240291999732599e-01  3.5427749827637495e-01  3.6487178544441506e-01  3.6961818913809902e-01  4.3193869788817507e-01  4.5390693571435764e-01  4.5399128872323707e-01  4.4668831037829265e-01  4.3792340775876104e-01  4.2954612117584429e-01  4.2189795741633318e-01  4.1488571842431066e-01  4.0834711510783273e-01  4.0215242305006266e-01  3.9621916866605866e-01  3.9050186869184350e-01  3.8497827825462533e-01  3.7963851012178912e-01  3.7447796918780768e-01  3.6949344118195460e-01  3.6468131227458672e-01  3.6003709853048554e-01  3.5555571006355124e-01  3.5123202688385219e-01  3.4706160804762515e-01  3.4304138635789611e-01  3.3917027820909729e-01  3.3544969633224836e-01  3.3188390961867825e-01  3.2848026420758719e-01  3.2524925558124623e-01  3.2220440352937735e-01  3.1936195306799925e-01  3.1674036400274491e-01  3.1435953747200723e-01  3.1223956123041691e-01  3.1039810758785075e-01  3.0884329135020144e-01  3.0755116049626291e-01  3.0639733549048737e-01  3.0500901713570988e-01  3.0294014662946567e-01  3.5432088106332127e-01  4.8191601940228351e-01  5.3538174188857846e-01  5.7567947859404733e-01  5.6792241647638231e-01  5.4051120124839491e-01  5.0971723096266608e-01  4.8295437386448897e-01  4.6161596165667729e-01  4.4484247801272564e-01  4.3143315961153772e-01  4.2040095151352763e-01  4.1104139691551239e-01  4.0287700327633585e-01  3.9558934443884552e-01  3.8896565571365638e-01  3.8286174698297543e-01  3.7717758893559816e-01  3.7184172417263434e-01  3.6680147058446205e-01  3.6201689034785317e-01  3.5745713221574055e-01  3.5309825733191380e-01  3.4892199356215675e-01  3.4491503875342133e-01  3.4106870619310981e-01  3.3737874492778364e-01  3.3384523030819208e-01  3.3047245510874262e-01  3.2726878085793792e-01  3.2424636070595775e-01  3.2142072441984987e-01  3.1881015821000541e-01  3.1643478730751373e-01  3.1431502094084895e-01  3.1246807157929962e-01  3.1089794977480734e-01  3.0956342511474461e-01  3.0828071314406646e-01  3.0651296454845400e-01  3.0361707127857107e-01  3.5437686865893325e-01  7.0759902535184194e-01  7.8855128772408412e-01  7.4565365736461109e-01  7.0057831812715599e-01  6.4110471689892323e-01  5.8153483245450166e-01  5.3275728332217842e-01  4.9603961602204077e-01  4.6885291594991829e-01  4.4840866762854675e-01  4.3258576190181020e-01  4.1993497714810041e-01  4.0949632183418166e-01  4.0063496632674145e-01  3.9292650774830257e-01  3.8608239388627341e-01  3.7990243070970320e-01  3.7424472830049643e-01  3.6900650742578267e-01  3.6411185397001083e-01  3.5950385209501340e-01  3.5513951393393889e-01  3.5098652282977832e-01  3.4702112300442173e-01  3.4322678499328041e-01  3.3959335051057682e-01  3.3611644325948503e-01  3.3279705867573772e-01  3.2964119325665647e-01  3.2665943951965154e-01  3.2386647260525953e-01  3.2128033166464304e-01  3.1892135799821197e-01  3.1681027757417685e-01  3.1496365323525966e-01  3.1338034842462736e-01  3.1199795966455907e-01  3.1056095730473210e-01  3.0833573813428206e-01  3.0444151344669207e-01  3.5444606555513608e-01  7.9872114359976154e-01  8.8201915880265469e-01  8.4265316517378885e-01  8.0262158149532870e-01  7.2983217271296275e-01  6.4833825719360560e-01  5.7961920865027916e-01  5.2829904637631808e-01  4.9119214608278899e-01  4.6411252994714997e-01  4.4382746572668902e-01  4.2814705166798461e-01  4.1563699555283962e-01  4.0535719373128681e-01  3.9668269199687317e-01  3.8919010593696152e-01  3.8258666347925391e-01  3.7666573464670328e-01  3.7127861318118993e-01  3.6631635315265343e-01  3.6169802336092566e-01  3.5736295587303840e-01  3.5326566984272301e-01  3.4937248090463180e-01  3.4565928305987620e-01  3.4211007901688345e-01  3.3871597509299567e-01  3.3547450818504371e-01  3.3238909664890998e-01  3.2946853955207817e-01  3.2672643628990905e-01  3.2418040555872890e-01  3.2185087503115062e-01  3.1975874948538130e-01  3.1791956959706558e-01  3.1632571433720769e-01  3.1488918293344348e-01  3.1326938143750760e-01  3.1050135254262778e-01  3.0542395445114645e-01  3.5452932445885038e-01  8.1728600044248789e-01  9.0520833841695814e-01  8.7951593417272644e-01  8.5283874734126452e-01  7.8459174544178001e-01  6.9545988644596080e-01  6.1480637672952254e-01  5.5327961072490017e-01  5.0881203048043355e-01  4.7667471756696850e-01  4.5294278779658115e-01  4.3490674549887248e-01  4.2078359894705092e-01  4.0940342368904620e-01  3.9998801579730142e-01  3.9200971900201220e-01  3.8510338243064773e-01  3.7901119171023540e-01  3.7354767442726367e-01  3.6857711517011377e-01  3.6399881889532104e-01  3.5973732871038216e-01  3.5573592985829827e-01  3.5195226112482003e-01  3.4835539970685564e-01  3.4492391216722224e-01  3.4164451884860575e-01  3.3851122575552822e-01  3.3552466851286661e-01  3.3269156188532917e-01  3.3002410095454282e-01  3.2753915540673822e-01  3.2525693897703195e-01  3.2319820672886634e-01  3.2137685407950639e-01  3.1977706586959681e-01  3.1828014572320651e-01  3.1644581947940426e-01  3.1304067400544489e-01  3.0657795121205389e-01  3.5462775992041295e-01  7.9220919421090064e-01  8.8774765718828430e-01  8.7077192017468863e-01  8.5569660027759342e-01  7.9859146089014788e-01  7.1417133298213320e-01  6.3193070587681344e-01  5.6693917220019263e-01  5.1921595072993854e-01  4.8452782763166580e-01  4.5891711813588587e-01  4.3953473354913364e-01  4.2446628553459487e-01  4.1243885554121607e-01  4.0259735186423234e-01  3.9435728309697166e-01  3.8731139623907784e-01  3.8117049106195422e-01  3.7572550486936479e-01  3.7082285001275284e-01  3.6634813287372475e-01  3.6221526074226229e-01  3.5835911055419245e-01  3.5473054712205881e-01  3.5129304681373869e-01  3.4802044788635600e-01  3.4489541624113118e-01  3.4190844391785602e-01  3.3905717236860400e-01  3.3634584798148831e-01  3.3378477162815451e-01  3.3138952697861923e-01  3.2917955042532865e-01  3.2717482145313403e-01  3.2538661391712359e-01  3.2378868466745775e-01  3.2222562016854550e-01  3.2014115112707059e-01  3.1599316211682305e-01  3.0792084936452907e-01  3.5474280314849688e-01  6.7733509704389361e-01  8.2462378487621624e-01  8.1196639696561157e-01  8.1712686690533809e-01  7.7536448774196143e-01  7.0366552801031790e-01  6.2909134370201492e-01  5.6761731728353937e-01  5.2118555854278059e-01  4.8680920335283273e-01  4.6113465309566737e-01  4.4158188768368239e-01  4.2634926495147224e-01  4.1420628218088057e-01  4.0430922626028643e-01  3.9607174202621842e-01  3.8907960054628560e-01  3.8303519773718725e-01  3.7772124580005717e-01  3.7297671401047533e-01  3.6868069882604970e-01  3.6474146601007912e-01  3.6108895966722893e-01  3.5766966269707540e-01  3.5444305401985038e-01  3.5137923038546526e-01  3.4845730477368375e-01  3.4566436577903958e-01  3.4299482889011179e-01  3.4044996548467577e-01  3.3803746866388112e-01  3.3577078158291523e-01  3.3366761638099579e-01  3.3174609284326700e-01  3.3001333485211426e-01  3.2842965799542267e-01  3.2679563054022531e-01  3.2442046615731535e-01  3.1940922508952091e-01  3.0947479403027239e-01  3.5487628555628598e-01  4.3901166159661320e-01  6.4293240010506580e-01  7.1526518621618806e-01  7.4602574626070728e-01  7.2355616437511572e-01  6.6960087424229364e-01  6.0900010268917526e-01  5.5639486575906594e-01  5.1506234158888287e-01  4.8354621511581625e-01  4.5949753880763328e-01  4.4090718726513783e-01  4.2628339731299442e-01  4.1456287417864046e-01  4.0499239471367893e-01  3.9703466715671804e-01  3.9030191371900569e-01  3.8451051005669473e-01  3.7945020442424177e-01  3.7496311333911059e-01  3.7092927405562626e-01  3.6725661289479583e-01  3.6387393903148341e-01  3.6072605593975932e-01  3.5777032592503349e-01  3.5497434225210284e-01  3.5231434204187534e-01  3.4977420790579217e-01  3.4734488465762275e-01  3.4502402352811234e-01  3.4281571283248202e-01  3.4072996396442645e-01  3.3878123782984298e-01  3.3698400080809326e-01  3.3533882189663811e-01  3.3378838025851731e-01  3.3208011346760907e-01  3.2936732540900621e-01  3.2335340816159663e-01  3.1126809830760910e-01  3.5503055016391988e-01  3.6559949638366257e-01  4.5469381704595246e-01  6.0613134049552264e-01  6.5976625963255564e-01  6.5638465802745571e-01  6.2172716383790005e-01  5.7753164749231178e-01  5.3645244823116267e-01  5.0249119428235078e-01  4.7556439122308147e-01  4.5440089171921327e-01  4.3767858470327603e-01  4.2431614551902830e-01  4.1349241030500089e-01  4.0459767711069256e-01  3.9718075609831471e-01  3.9090621048202401e-01  3.8552263969851885e-01  3.8083982184440229e-01  3.7671239711500004e-01  3.7302819618624761e-01  3.6969987497486523e-01  3.6665888811890984e-01  3.6385117832260760e-01  3.6123406752997272e-01  3.5877409212880362e-01  3.5644550358098587e-01  3.5422932261190992e-01  3.5211281686920992e-01  3.5008925422694342e-01  3.4815779581357520e-01  3.4632316059916651e-01  3.4459420904369203e-01  3.4297886499447783e-01  3.4146734272155804e-01  3.3997864140971246e-01  3.3819532731759261e-01  3.3508961409966476e-01  3.2790872232667367e-01  3.1333707495975077e-01  3.5520860026734319e-01  3.6081721810812140e-01  3.9390020059840053e-01  5.2128764203736966e-01  5.8001424152286429e-01  5.8914765072803932e-01  5.7058876044228579e-01  5.4141088614000643e-01  5.1180180969230737e-01  4.8578497336599624e-01  4.6417988935564214e-01  4.4658588367217827e-01  4.3230442698940558e-01  4.2066134853888942e-01  4.1109383921950798e-01  4.0315563049509512e-01  3.9649973828727553e-01  3.9085797858588833e-01  3.8602295535979558e-01  3.8183365086583981e-01  3.7816435108993524e-01  3.7491623384842104e-01  3.7201105368034110e-01  3.6938639213487967e-01  3.6699210996198994e-01  3.6478768776864562e-01  3.6274029142898778e-01  3.6082336234248430e-01  3.5901567574914112e-01  3.5730080527859837e-01  3.5566686418587545e-01  3.5410647589203875e-01  3.5261654132132242e-01  3.5119684112407440e-01  3.4984422277722377e-01  3.4853252204775476e-01  3.4714806008585319e-01  3.4529282623770458e-01  3.4172770000220049e-01  3.3318257008637886e-01  3.1572849829859978e-01  3.5541429478211978e-01  3.5996626214766808e-01  3.7351910751856848e-01  4.6959837109985436e-01  5.1901155255726572e-01  5.3207353846657746e-01  5.2381645452819603e-01  5.0601931196774552e-01  4.8601309611838550e-01  4.6722473803086007e-01  4.5082192658915321e-01  4.3693728173856505e-01  4.2532550424876009e-01  4.1564232484945096e-01  4.0755218053440578e-01  4.0076264524214056e-01  3.9503076778787560e-01  3.9015915132091644e-01  3.8598908918108332e-01  3.8239348860657646e-01  3.7927061831087588e-01  3.7653885675296050e-01  3.7413243984224726e-01  3.7199805304955846e-01  3.7009211156195121e-01  3.6837857461383200e-01  3.6682723875300194e-01  3.6541235116469395e-01  3.6411157388125237e-01  3.6290522211745346e-01  3.6177578363380325e-01  3.6070765662646120e-01  3.5968675970446751e-01  3.5869888608025258e-01  3.5772288281310743e-01  3.5670663052111262e-01  3.5548992842013760e-01  3.5357228969752319e-01  3.4946600382519161e-01  3.3931496623953378e-01  3.1850291736760589e-01  3.5565260212733707e-01  3.5902386113151835e-01  3.5974385098733541e-01  4.3504491203685713e-01  4.7456445415744980e-01  4.8730115279125330e-01  4.8459336036409806e-01  4.7435316654822562e-01  4.6149303905974270e-01  4.4858284996901365e-01  4.3673229769126221e-01  4.2630038947263005e-01  4.1730560554105262e-01  4.0962745911537357e-01  4.0310135201705422e-01  3.9756019484281691e-01  3.9285151856216410e-01  3.8884309296674474e-01  3.8542336864505844e-01  3.8249974247655294e-01  3.7999604528135400e-01  3.7784992833261899e-01  3.7601041019548276e-01  3.7443568521843529e-01  3.7309117665722336e-01  3.7194781065057331e-01  3.7098045771649518e-01  3.7016649289702336e-01  3.6948445443027167e-01  3.6891279624816925e-01  3.6842875898116101e-01  3.6800731037070700e-01  3.6761994069393433e-01  3.6723201183123422e-01  3.6679408718267759e-01  3.6621295978671975e-01  3.6526005314210863e-01  3.6330031471299506e-01  3.5854991488616839e-01  3.4649012340860325e-01  3.2173912547932010e-01  3.5592992579628230e-01  3.5826953347270568e-01  3.4987666051847532e-01  4.1083531283422769e-01  4.4210811090552066e-01  4.5301208230878948e-01  4.5295243608530183e-01  4.4735809429049822e-01  4.3944355317111344e-01  4.3097209178549334e-01  4.2281704944023607e-01  4.1536537719548977e-01  4.0874958053953253e-01  4.0297518165638535e-01  3.9798859527533159e-01  3.9371262967428305e-01  3.9006496816209080e-01  3.8696728190766733e-01  3.8434933228799206e-01  3.8215036277330761e-01  3.8031906426371187e-01  3.7881285309607893e-01  3.7759681685332835e-01  3.7664251028543938e-01  3.7592668470595592e-01  3.7542994671220303e-01  3.7513531054631077e-01  3.7502659816685263e-01  3.7508660456674325e-01  3.7529500660781484e-01  3.7562598530185631e-01  3.7604547569626318e-01  3.7650783254736442e-01  3.7695044415905055e-01  3.7728125415214370e-01  3.7734250211019088e-01  3.7680161485854252e-01  3.7483894029089931e-01  3.6931110498351899e-01  3.5495313540940326e-01  3.2554021189075466e-01  3.5625450829292560e-01  3.5762974787153257e-01  3.4192213836139096e-01  3.9209562942668980e-01  4.1733106268665787e-01  4.2649004600328960e-01  4.2763631373087219e-01  4.2482315216656624e-01  4.2020507660571232e-01  4.1493729276266061e-01  4.0963726418762642e-01  4.0462664922166658e-01  4.0006003025811704e-01  3.9599766385459945e-01  3.9244706506462124e-01  3.8938781352413970e-01  3.8678644605495144e-01  3.8460522427990668e-01  3.8280716478807825e-01  3.8135876609855818e-01  3.8023129298950181e-01  3.7940122079186461e-01  3.7885015316951598e-01  3.7856439559805127e-01  3.7853424113964573e-01  3.7875299490798758e-01  3.7921565607173446e-01  3.7991712688617790e-01  3.8084980292198733e-01  3.8200032875418072e-01  3.8334529280214025e-01  3.8484554445168540e-01  3.8643856368507085e-01  3.8802710846009425e-01  3.8945837299809610e-01  3.9047416476016861e-01  3.9057924340966677e-01  3.8868845154358639e-01  3.8220781519282082e-01  3.6503587763155926e-01  3.3004172243810220e-01  3.5663683693530462e-01  3.5708991321403438e-01  3.3542150109627394e-01  3.7719702358967117e-01  3.9789647323274197e-01  4.0556472702604174e-01  4.0723277440715194e-01  4.0609672743715070e-01  4.0364880924455032e-01  4.006397529