<?xml version="1.0"?>
<VTKFile type="UnstructuredGrid"  version="0.1"  >
<UnstructuredGrid>
<Piece  NumberOfPoints="1681" NumberOfCells="3200">
<Points>
<DataArray  type="Float64"  NumberOfComponents="3"  format="ascii">0 0 0  0.025 0 0  0.05 0 0  0.075 0 0  0.1 0 0  0.125 0 0  0.15 0 0  0.175 0 0  0.2 0 0  0.225 0 0  0.25 0 0  0.275 0 0  0.3 0 0  0.325 0 0  0.35 0 0  0.375 0 0  0.4 0 0  0.425 0 0  0.45 0 0  0.475 0 0  0.5 0 0  0.525 0 0  0.55 0 0  0.575 0 0  0.6 0 0  0.625 0 0  0.65 0 0  0.675 0 0  0.7 0 0  0.725 0 0  0.75 0 0  0.775 0 0  0.8 0 0  0.825 0 0  0.85 0 0  0.875 0 0  0.9 0 0  0.925 0 0  0.95 0 0  0.975 0 0  1 0 0  0 0.025 0  0.025 0.025 0  0.05 0.025 0  0.075 0.025 0  0.1 0.025 0  0.125 0.025 0  0.15 0.025 0  0.175 0.025 0  0.2 0.025 0  0.225 0.025 0  0.25 0.025 0  0.275 0.025 0  0.3 0.025 0  0.325 0.025 0  0.35 0.025 0  0.375 0.025 0  0.4 0.025 0  0.425 0.025 0  0.45 0.025 0  0.475 0.025 0  0.5 0.025 0  0.525 0.025 0  0.55 0.025 0  0.575 0.025 0  0.6 0.025 0  0.625 0.025 0  0.65 0.025 0  0.675 0.025 0  0.7 0.025 0  0.725 0.025 0  0.75 0.025 0  0.775 0.025 0  0.8 0.025 0  0.825 0.025 0  0.85 0.025 0  0.875 0.025 0  0.9 0.025 0  0.925 0.025 0  0.95 0.025 0  0.975 0.025 0  1 0.025 0  0 0.05 0  0.025 0.05 0  0.05 0.05 0  0.075 0.05 0  0.1 0.05 0  0.125 0.05 0  0.15 0.05 0  0.175 0.05 0  0.2 0.05 0  0.225 0.05 0  0.25 0.05 0  0.275 0.05 0  0.3 0.05 0  0.325 0.05 0  0.35 0.05 0  0.375 0.05 0  0.4 0.05 0  0.425 0.05 0  0.45 0.05 0  0.475 0.05 0  0.5 0.05 0  0.525 0.05 0  0.55 0.05 0  0.575 0.05 0  0.6 0.05 0  0.625 0.05 0  0.65 0.05 0  0.675 0.05 0  0.7 0.05 0  0.725 0.05 0  0.75 0.05 0  0.775 0.05 0  0.8 0.05 0  0.825 0.05 0  0.85 0.05 0  0.875 0.05 0  0.9 0.05 0  0.925 0.05 0  0.95 0.05 0  0.975 0.05 0  1 0.05 0  0 0.075 0  0.025 0.075 0  0.05 0.075 0  0.075 0.075 0  0.1 0.075 0  0.125 0.075 0  0.15 0.075 0  0.175 0.075 0  0.2 0.075 0  0.225 0.075 0  0.25 0.075 0  0.275 0.075 0  0.3 0.075 0  0.325 0.075 0  0.35 0.075 0  0.375 0.075 0  0.4 0.075 0  0.425 0.075 0  0.45 0.075 0  0.475 0.075 0  0.5 0.075 0  0.525 0.075 0  0.55 0.075 0  0.575 0.075 0  0.6 0.075 0  0.625 0.075 0  0.65 0.075 0  0.675 0.075 0  0.7 0.075 0  0.725 0.075 0  0.75 0.075 0  0.775 0.075 0  0.8 0.075 0  0.825 0.075 0  0.85 0.075 0  0.875 0.075 0  0.9 0.075 0  0.925 0.075 0  0.95 0.075 0  0.975 0.075 0  1 0.075 0  0 0.1 0  0.025 0.1 0  0.05 0.1 0  0.075 0.1 0  0.1 0.1 0  0.125 0.1 0  0.15 0.1 0  0.175 0.1 0  0.2 0.1 0  0.225 0.1 0  0.25 0.1 0  0.275 0.1 0  0.3 0.1 0  0.325 0.1 0  0.35 0.1 0  0.375 0.1 0  0.4 0.1 0  0.425 0.1 0  0.45 0.1 0  0.475 0.1 0  0.5 0.1 0  0.525 0.1 0  0.55 0.1 0  0.575 0.1 0  0.6 0.1 0  0.625 0.1 0  0.65 0.1 0  0.675 0.1 0  0.7 0.1 0  0.725 0.1 0  0.75 0.1 0  0.775 0.1 0  0.8 0.1 0  0.825 0.1 0  0.85 0.1 0  0.875 0.1 0  0.9 0.1 0  0.925 0.1 0  0.95 0.1 0  0.975 0.1 0  1 0.1 0  0 0.125 0  0.025 0.125 0  0.05 0.125 0  0.075 0.125 0  0.1 0.125 0  0.125 0.125 0  0.15 0.125 0  0.175 0.125 0  0.2 0.125 0  0.225 0.125 0  0.25 0.125 0  0.275 0.125 0  0.3 0.125 0  0.325 0.125 0  0.35 0.125 0  0.375 0.125 0  0.4 0.125 0  0.425 0.125 0  0.45 0.125 0  0.475 0.125 0  0.5 0.125 0  0.525 0.125 0  0.55 0.125 0  0.575 0.125 0  0.6 0.125 0  0.625 0.125 0  0.65 0.125 0  0.675 0.125 0  0.7 0.125 0  0.725 0.125 0  0.75 0.125 0  0.775 0.125 0  0.8 0.125 0  0.825 0.125 0  0.85 0.125 0  0.875 0.125 0  0.9 0.125 0  0.925 0.125 0  0.95 0.125 0  0.975 0.125 0  1 0.125 0  0 0.15 0  0.025 0.15 0  0.05 0.15 0  0.075 0.15 0  0.1 0.15 0  0.125 0.15 0  0.15 0.15 0  0.175 0.15 0  0.2 0.15 0  0.225 0.15 0  0.25 0.15 0  0.275 0.15 0  0.3 0.15 0  0.325 0.15 0  0.35 0.15 0  0.375 0.15 0  0.4 0.15 0  0.425 0.15 0  0.45 0.15 0  0.475 0.15 0  0.5 0.15 0  0.525 0.15 0  0.55 0.15 0  0.575 0.15 0  0.6 0.15 0  0.625 0.15 0  0.65 0.15 0  0.675 0.15 0  0.7 0.15 0  0.725 0.15 0  0.75 0.15 0  0.775 0.15 0  0.8 0.15 0  0.825 0.15 0  0.85 0.15 0  0.875 0.15 0  0.9 0.15 0  0.925 0.15 0  0.95 0.15 0  0.975 0.15 0  1 0.15 0  0 0.175 0  0.025 0.175 0  0.05 0.175 0  0.075 0.175 0  0.1 0.175 0  0.125 0.175 0  0.15 0.175 0  0.175 0.175 0  0.2 0.175 0  0.225 0.175 0  0.25 0.175 0  0.275 0.175 0  0.3 0.175 0  0.325 0.175 0  0.35 0.175 0  0.375 0.175 0  0.4 0.175 0  0.425 0.175 0  0.45 0.175 0  0.475 0.175 0  0.5 0.175 0  0.525 0.175 0  0.55 0.175 0  0.575 0.175 0  0.6 0.175 0  0.625 0.175 0  0.65 0.175 0  0.675 0.175 0  0.7 0.175 0  0.725 0.175 0  0.75 0.175 0  0.775 0.175 0  0.8 0.175 0  0.825 0.175 0  0.85 0.175 0  0.875 0.175 0  0.9 0.175 0  0.925 0.175 0  0.95 0.175 0  0.975 0.175 0  1 0.175 0  0 0.2 0  0.025 0.2 0  0.05 0.2 0  0.075 0.2 0  0.1 0.2 0  0.125 0.2 0  0.15 0.2 0  0.175 0.2 0  0.2 0.2 0  0.225 0.2 0  0.25 0.2 0  0.275 0.2 0  0.3 0.2 0  0.325 0.2 0  0.35 0.2 0  0.375 0.2 0  0.4 0.2 0  0.425 0.2 0  0.45 0.2 0  0.475 0.2 0  0.5 0.2 0  0.525 0.2 0  0.55 0.2 0  0.575 0.2 0  0.6 0.2 0  0.625 0.2 0  0.65 0.2 0  0.675 0.2 0  0.7 0.2 0  0.725 0.2 0  0.75 0.2 0  0.775 0.2 0  0.8 0.2 0  0.825 0.2 0  0.85 0.2 0  0.875 0.2 0  0.9 0.2 0  0.925 0.2 0  0.95 0.2 0  0.975 0.2 0  1 0.2 0  0 0.225 0  0.025 0.225 0  0.05 0.225 0  0.075 0.225 0  0.1 0.225 0  0.125 0.225 0  0.15 0.225 0  0.175 0.225 0  0.2 0.225 0  0.225 0.225 0  0.25 0.225 0  0.275 0.225 0  0.3 0.225 0  0.325 0.225 0  0.35 0.225 0  0.375 0.225 0  0.4 0.225 0  0.425 0.225 0  0.45 0.225 0  0.475 0.225 0  0.5 0.225 0  0.525 0.225 0  0.55 0.225 0  0.575 0.225 0  0.6 0.225 0  0.625 0.225 0  0.65 0.225 0  0.675 0.225 0  0.7 0.225 0  0.725 0.225 0  0.75 0.225 0  0.775 0.225 0  0.8 0.225 0  0.825 0.225 0  0.85 0.225 0  0.875 0.225 0  0.9 0.225 0  0.925 0.225 0  0.95 0.225 0  0.975 0.225 0  1 0.225 0  0 0.25 0  0.025 0.25 0  0.05 0.25 0  0.075 0.25 0  0.1 0.25 0  0.125 0.25 0  0.15 0.25 0  0.175 0.25 0  0.2 0.25 0  0.225 0.25 0  0.25 0.25 0  0.275 0.25 0  0.3 0.25 0  0.325 0.25 0  0.35 0.25 0  0.375 0.25 0  0.4 0.25 0  0.425 0.25 0  0.45 0.25 0  0.475 0.25 0  0.5 0.25 0  0.525 0.25 0  0.55 0.25 0  0.575 0.25 0  0.6 0.25 0  0.625 0.25 0  0.65 0.25 0  0.675 0.25 0  0.7 0.25 0  0.725 0.25 0  0.75 0.25 0  0.775 0.25 0  0.8 0.25 0  0.825 0.25 0  0.85 0.25 0  0.875 0.25 0  0.9 0.25 0  0.925 0.25 0  0.95 0.25 0  0.975 0.25 0  1 0.25 0  0 0.275 0  0.025 0.275 0  0.05 0.275 0  0.075 0.275 0  0.1 0.275 0  0.125 0.275 0  0.15 0.275 0  0.175 0.275 0  0.2 0.275 0  0.225 0.275 0  0.25 0.275 0  0.275 0.275 0  0.3 0.275 0  0.325 0.275 0  0.35 0.275 0  0.375 0.275 0  0.4 0.275 0  0.425 0.275 0  0.45 0.275 0  0.475 0.275 0  0.5 0.275 0  0.525 0.275 0  0.55 0.275 0  0.575 0.275 0  0.6 0.275 0  0.625 0.275 0  0.65 0.275 0  0.675 0.275 0  0.7 0.275 0  0.725 0.275 0  0.75 0.275 0  0.775 0.275 0  0.8 0.275 0  0.825 0.275 0  0.85 0.275 0  0.875 0.275 0  0.9 0.275 0  0.925 0.275 0  0.95 0.275 0  0.975 0.275 0  1 0.275 0  0 0.3 0  0.025 0.3 0  0.05 0.3 0  0.075 0.3 0  0.1 0.3 0  0.125 0.3 0  0.15 0.3 0  0.175 0.3 0  0.2 0.3 0  0.225 0.3 0  0.25 0.3 0  0.275 0.3 0  0.3 0.3 0  0.325 0.3 0  0.35 0.3 0  0.375 0.3 0  0.4 0.3 0  0.425 0.3 0  0.45 0.3 0  0.475 0.3 0  0.5 0.3 0  0.525 0.3 0  0.55 0.3 0  0.575 0.3 0  0.6 0.3 0  0.625 0.3 0  0.65 0.3 0  0.675 0.3 0  0.7 0.3 0  0.725 0.3 0  0.75 0.3 0  0.775 0.3 0  0.8 0.3 0  0.825 0.3 0  0.85 0.3 0  0.875 0.3 0  0.9 0.3 0  0.925 0.3 0  0.95 0.3 0  0.975 0.3 0  1 0.3 0  0 0.325 0  0.025 0.325 0  0.05 0.325 0  0.075 0.325 0  0.1 0.325 0  0.125 0.325 0  0.15 0.325 0  0.175 0.325 0  0.2 0.325 0  0.225 0.325 0  0.25 0.325 0  0.275 0.325 0  0.3 0.325 0  0.325 0.325 0  0.35 0.325 0  0.375 0.325 0  0.4 0.325 0  0.425 0.325 0  0.45 0.325 0  0.475 0.325 0  0.5 0.325 0  0.525 0.325 0  0.55 0.325 0  0.575 0.325 0  0.6 0.325 0  0.625 0.325 0  0.65 0.325 0  0.675 0.325 0  0.7 0.325 0  0.725 0.325 0  0.75 0.325 0  0.775 0.325 0  0.8 0.325 0  0.825 0.325 0  0.85 0.325 0  0.875 0.325 0  0.9 0.325 0  0.925 0.325 0  0.95 0.325 0  0.975 0.325 0  1 0.325 0  0 0.35 0  0.025 0.35 0  0.05 0.35 0  0.075 0.35 0  0.1 0.35 0  0.125 0.35 0  0.15 0.35 0  0.175 0.35 0  0.2 0.35 0  0.225 0.35 0  0.25 0.35 0  0.275 0.35 0  0.3 0.35 0  0.325 0.35 0  0.35 0.35 0  0.375 0.35 0  0.4 0.35 0  0.425 0.35 0  0.45 0.35 0  0.475 0.35 0  0.5 0.35 0  0.525 0.35 0  0.55 0.35 0  0.575 0.35 0  0.6 0.35 0  0.625 0.35 0  0.65 0.35 0  0.675 0.35 0  0.7 0.35 0  0.725 0.35 0  0.75 0.35 0  0.775 0.35 0  0.8 0.35 0  0.825 0.35 0  0.85 0.35 0  0.875 0.35 0  0.9 0.35 0  0.925 0.35 0  0.95 0.35 0  0.975 0.35 0  1 0.35 0  0 0.375 0  0.025 0.375 0  0.05 0.375 0  0.075 0.375 0  0.1 0.375 0  0.125 0.375 0  0.15 0.375 0  0.175 0.375 0  0.2 0.375 0  0.225 0.375 0  0.25 0.375 0  0.275 0.375 0  0.3 0.375 0  0.325 0.375 0  0.35 0.375 0  0.375 0.375 0  0.4 0.375 0  0.425 0.375 0  0.45 0.375 0  0.475 0.375 0  0.5 0.375 0  0.525 0.375 0  0.55 0.375 0  0.575 0.375 0  0.6 0.375 0  0.625 0.375 0  0.65 0.375 0  0.675 0.375 0  0.7 0.375 0  0.725 0.375 0  0.75 0.375 0  0.775 0.375 0  0.8 0.375 0  0.825 0.375 0  0.85 0.375 0  0.875 0.375 0  0.9 0.375 0  0.925 0.375 0  0.95 0.375 0  0.975 0.375 0  1 0.375 0  0 0.4 0  0.025 0.4 0  0.05 0.4 0  0.075 0.4 0  0.1 0.4 0  0.125 0.4 0  0.15 0.4 0  0.175 0.4 0  0.2 0.4 0  0.225 0.4 0  0.25 0.4 0  0.275 0.4 0  0.3 0.4 0  0.325 0.4 0  0.35 0.4 0  0.375 0.4 0  0.4 0.4 0  0.425 0.4 0  0.45 0.4 0  0.475 0.4 0  0.5 0.4 0  0.525 0.4 0  0.55 0.4 0  0.575 0.4 0  0.6 0.4 0  0.625 0.4 0  0.65 0.4 0  0.675 0.4 0  0.7 0.4 0  0.725 0.4 0  0.75 0.4 0  0.775 0.4 0  0.8 0.4 0  0.825 0.4 0  0.85 0.4 0  0.875 0.4 0  0.9 0.4 0  0.925 0.4 0  0.95 0.4 0  0.975 0.4 0  1 0.4 0  0 0.425 0  0.025 0.425 0  0.05 0.425 0  0.075 0.425 0  0.1 0.425 0  0.125 0.425 0  0.15 0.425 0  0.175 0.425 0  0.2 0.425 0  0.225 0.425 0  0.25 0.425 0  0.275 0.425 0  0.3 0.425 0  0.325 0.425 0  0.35 0.425 0  0.375 0.425 0  0.4 0.425 0  0.425 0.425 0  0.45 0.425 0  0.475 0.425 0  0.5 0.425 0  0.525 0.425 0  0.55 0.425 0  0.575 0.425 0  0.6 0.425 0  0.625 0.425 0  0.65 0.425 0  0.675 0.425 0  0.7 0.425 0  0.725 0.425 0  0.75 0.425 0  0.775 0.425 0  0.8 0.425 0  0.825 0.425 0  0.85 0.425 0  0.875 0.425 0  0.9 0.425 0  0.925 0.425 0  0.95 0.425 0  0.975 0.425 0  1 0.425 0  0 0.45 0  0.02
[...]
<PointData  Scalars="ControlVisualisation"> 
<DataArray  type="Float64"  Name="ControlVisualisation"  format="ascii">3.7227820025372027e-01  3.5422961271002551e-01  3.5429038573772093e-01  3.5451195207721359e-01  3.5487976607504418e-01  3.5532022253655710e-01  3.5575482468907127e-01  3.5612632415600720e-01  3.5640747635339426e-01  3.5659343228027379e-01  3.5669335619921699e-01  3.5672289492925813e-01  3.5669644582117488e-01  3.5663141407277860e-01  3.5653767028249966e-01  3.5642357273001246e-01  3.5629759371502573e-01  3.5616404289737624e-01  3.5602720305980501e-01  3.5588892057020405e-01  3.5575206966509848e-01  3.5561768202289318e-01  3.5548639091344814e-01  3.5535821033844700e-01  3.5523460867103945e-01  3.5511560079197690e-01  3.5500154259075001e-01  3.5489313800120464e-01  3.5479069535194524e-01  3.5469524049469930e-01  3.5460744584168785e-01  3.5452733757417487e-01  3.5445568329194188e-01  3.5439335129004573e-01  3.5434089084105408e-01  3.5429910447333057e-01  3.5426825159885572e-01  3.5424909277660110e-01  3.5424149590479798e-01  3.5424151921995101e-01  3.9054037019056320e-01  3.5422640039904063e-01  3.0177679741653801e-01  3.0287764687056162e-01  3.0533685434158386e-01  3.0907309194700788e-01  3.1346231994257495e-01  3.1779230193046154e-01  3.2153131871119561e-01  3.2441197276260741e-01  3.2637378310271742e-01  3.2748900746399834e-01  3.2789634201539258e-01  3.2773274673472536e-01  3.2715113648757671e-01  3.2625659642198451e-01  3.2514474389655407e-01  3.2388685440042336e-01  3.2253769625384759e-01  3.2113764086814361e-01  3.1971397902395443e-01  3.1828766254530499e-01  3.1687501292184345e-01  3.1548331530321960e-01  3.1412310824651718e-01  3.1279781294527736e-01  3.1151805768906476e-01  3.1028794842217211e-01  3.0910943875238633e-01  3.0799089520513084e-01  3.0693925254461724e-01  3.0596253392944855e-01  3.0506692265197166e-01  3.0425719994212669e-01  3.0354252969956780e-01  3.0293054627168853e-01  3.0242845206192343e-01  3.0204154125865168e-01  3.0177395979824634e-01  3.0162336210064411e-01  3.0156737013124557e-01  3.5424151219590794e-01  3.5426312368533247e-01  3.0288231141079625e-01  3.0660424591243018e-01  3.1262961443572446e-01  3.2076934504924953e-01  3.2989631966035032e-01  3.3866622986084266e-01  3.4610841150432115e-01  3.5176501704824037e-01  3.5557258090754451e-01  3.5768123561437770e-01  3.5837164051562936e-01  3.5792977695756534e-01  3.5663429519368484e-01  3.5470557140369569e-01  3.5233430224841616e-01  3.4966699844576354e-01  3.4681070740663561e-01  3.4384567187986614e-01  3.4082753688830231e-01  3.3780314060354238e-01  3.3480324783305410e-01  3.3184539607832447e-01  3.2894757479161602e-01  3.2612768909219225e-01  3.2339683894274346e-01  3.2076805126018554e-01  3.1824926313674429e-01  3.1585416582386538e-01  3.1359644089325950e-01  3.1149158590644593e-01  3.0955605018750676e-01  3.0780081658051478e-01  3.0624358355110209e-01  3.0490143800189023e-01  3.0378727739599215e-01  3.0291216388914571e-01  3.0227806395711571e-01  3.0186348890195319e-01  3.0162321924937946e-01  3.5424144526125123e-01  3.5443149596417617e-01  3.0569454936996471e-01  3.1398924772116665e-01  3.2375843950436445e-01  3.3470443343829426e-01  3.4582990801561619e-01  3.5585123716986117e-01  3.6392432290338350e-01  3.6973601673789508e-01  3.7336234680481256e-01  3.7505619846581589e-01  3.7516135334732059e-01  3.7402559725774587e-01  3.7195295743463003e-01  3.6920734698646224e-01  3.6599575590249805e-01  3.6247897793368977e-01  3.5877456059424867e-01  3.5497285246026927e-01  3.5113681587799794e-01  3.4730879826282629e-01  3.4353377418604825e-01  3.3982317478489138e-01  3.3619673039462661e-01  3.3267478326016214e-01  3.2927149201040851e-01  3.2599719462568355e-01  3.2286145150897599e-01  3.1988283425772185e-01  3.1707768978297557e-01  3.1445978379024786e-01  3.1205014877433945e-01  3.0986610482263932e-01  3.0792582319642553e-01  3.0624953313468889e-01  3.0485330489814783e-01  3.0374416446342317e-01  3.0290973063727483e-01  3.0228228505403820e-01  3.0177467677459263e-01  3.5424894241464860e-01  3.5476985264061917e-01  3.1121568329970206e-01  3.2868651791421971e-01  3.4384549530671521e-01  3.5649826892242781e-01  3.6703719290143849e-01  3.7531318845355510e-01  3.8122672963397558e-01  3.8487814895280947e-01  3.8654704080411667e-01  3.8655278000123294e-01  3.8523832624515625e-01  3.8292368862953563e-01  3.7987142511087035e-01  3.7630465127749468e-01  3.7240309326702892e-01  3.6829426954195787e-01  3.6407636469798665e-01  3.5982663167082957e-01  3.5558970503500981e-01  3.5140315720946763e-01  3.4730036299415423e-01  3.4329398427409968e-01  3.3939259650566989e-01  3.3561545619217953e-01  3.3197137237073049e-01  3.2847238048137922e-01  3.2512422519827844e-01  3.2194760171519243e-01  3.1895729850205407e-01  3.1616785453255497e-01  3.1359910595371421e-01  3.1127041014454399e-01  3.0920233655733553e-01  3.0741245249257682e-01  3.0591553158247425e-01  3.0471358204147053e-01  3.0376542548999175e-01  3.0293292669510707e-01  3.0204779863667042e-01  3.5426819658856978e-01  3.5529250596999085e-01  3.2438435885489736e-01  3.5993052095989037e-01  3.8231852132015642e-01  3.9359063886015516e-01  3.9925231894428403e-01  4.0187997234758971e-01  4.0254804591424193e-01  4.0176918045383314e-01  3.9987268759460726e-01  3.9709569087750890e-01  3.9363994492473109e-01  3.8969952803054503e-01  3.8542255183356477e-01  3.8093559064651800e-01  3.7633714407913138e-01  3.7170448702445691e-01  3.6708892812005023e-01  3.6253674224653776e-01  3.5806312427578574e-01  3.5369522811582499e-01  3.4944882065660243e-01  3.4532409968103606e-01  3.4132904065358521e-01  3.3746907750670646e-01  3.3375671966340087e-01  3.3019501311195976e-01  3.2678991833802407e-01  3.2355906513910943e-01  3.2051746981935791e-01  3.1768016933526322e-01  3.1506652362562843e-01  3.1269520756427455e-01  3.1058706278770293e-01  3.0876069909055803e-01  3.0722556568241594e-01  3.0597417493461826e-01  3.0492902777424186e-01  3.0385044000390438e-01  3.0245150528506393e-01  3.5429983306916296e-01  3.6488215238715865e-01  3.6964560067496766e-01  4.3194476365105450e-01  4.5389087819619733e-01  4.5396425250292194e-01  4.4666232054704286e-01  4.3789750085168455e-01  4.2952215061886095e-01  4.2187687023606135e-01  4.1487082279329940e-01  4.0833880189635602e-01  4.0214164518393175e-01  3.9620867096637707e-01  3.9049487729477411e-01  3.8497270740502892e-01  3.7963734858489812e-01  3.7447961513297195e-01  3.6949940133288817e-01  3.6469371441777498e-01  3.6004882115991116e-01  3.5556870329704943e-01  3.5124721721828256e-01  3.4707902999517931e-01  3.4306336866419845e-01  3.3919320002745895e-01  3.3547658596046653e-01  3.3191731971271810e-01  3.2851398314714336e-01  3.2528380949135310e-01  3.2224024131568701e-01  3.1939935112278767e-01  3.1677899330877379e-01  3.1439805387480879e-01  3.1227901856585333e-01  3.1043862364148084e-01  3.0888474053807946e-01  3.0759363052423888e-01  3.0643961282932231e-01  3.0505373661542329e-01  3.0298872973279689e-01  3.5434365989821387e-01  4.8187984367265985e-01  5.3533157813996712e-01  5.7562355536275545e-01  5.6785265606142699e-01  5.4043987476571498e-01  5.0965514390903532e-01  4.8290274857254001e-01  4.6157177745855382e-01  4.4480572895492743e-01  4.3140834248063198e-01  4.2038191315843287e-01  4.1102593058354997e-01  4.0286717812534906e-01  3.9558201696616457e-01  3.8895947040786666e-01  3.8286128109275691e-01  3.7717880560202788e-01  3.7184682183887002e-01  3.6681003803992090e-01  3.6202687305813847e-01  3.5746871302546873e-01  3.5311057115552053e-01  3.4893850971459905e-01  3.4493474241336214e-01  3.4108901587619289e-01  3.3740176748387796e-01  3.3387535255029271e-01  3.3050425355112900e-01  3.2730136594714720e-01  3.2427918430152769e-01  3.2145542621274131e-01  3.1884683684489062e-01  3.1647026601636929e-01  3.1435242157435117e-01  3.1250645733450599e-01  3.1093666228770239e-01  3.0960220482610368e-01  3.0832030580063385e-01  3.0655665002319021e-01  3.0366580458620307e-01  3.5440005659563267e-01  7.0750321530156202e-01  7.8844746362121132e-01  7.4554413108826900e-01  7.0044847714088188e-01  6.4097763893222548e-01  5.8143205815191290e-01  5.3267823721815344e-01  4.9597582763042575e-01  4.6879818629895664e-01  4.4837004652298590e-01  4.3255654352594175e-01  4.1990914445905020e-01  4.0947717452702598e-01  4.0062337023636430e-01  3.9291504790758380e-01  3.8608389294098422e-01  3.7990122421784978e-01  3.7424515650777213e-01  3.6901195581880919e-01  3.6412125204751938e-01  3.5951566068088481e-01  3.5515026695893492e-01  3.5100255782164042e-01  3.4704189062240109e-01  3.4324531117846263e-01  3.3961422601206148e-01  3.3614074500538632e-01  3.3282491823404192e-01  3.2967140872556694e-01  3.2668930839261395e-01  3.2389807655281544e-01  3.2131333584865462e-01  3.1895554175612040e-01  3.1684636526047422e-01  3.1499976961377624e-01  3.1341631391454300e-01  3.1203314816410149e-01  3.1059849028340503e-01  3.0837855446358986e-01  3.0448998463096066e-01  3.5446961681906719e-01  7.9863093225399950e-01  8.8195863060765112e-01  8.4254599032429600e-01  8.0246146157651199e-01  7.2966413912556960e-01  6.4820178092415204e-01  5.7951680651173965e-01  5.2822043979750910e-01  4.9112346873407076e-01  4.6405857383172461e-01  4.4378799405790381e-01  4.2811628109681743e-01  4.1560970101587968e-01  4.0534167664385690e-01  3.9666928170248555e-01  3.8918439689770312e-01  3.8258431151599531e-01  3.7666124795471001e-01  3.7128546491737713e-01  3.6632519660014984e-01  3.6171085889740645e-01  3.5737384571869046e-01  3.5328125125252019e-01  3.4939156790186260e-01  3.4567620890797851e-01  3.4213076662246150e-01  3.3873769280818228e-01  3.3549997841979845e-01  3.3241781040926849e-01  3.2949820548814718e-01  3.2675603000604919e-01  3.2421102430060161e-01  3.2188496544413192e-01  3.1979247033634089e-01  3.1795230624092141e-01  3.1636035616802427e-01  3.1492421773670259e-01  3.1330695059301145e-01  3.1054277783485434e-01  3.0547230701344125e-01  3.5455331723066008e-01  8.1720114659957899e-01  9.0515701632884471e-01  8.7940532349331657e-01  8.5266489038185045e-01  7.8440135962287094e-01  6.9530295485184701e-01  6.1468325734009099e-01  5.5318262366041993e-01  5.0873243079841535e-01  4.7661135557471379e-01  4.5289250626470268e-01  4.3487011844475465e-01  4.2075240258922081e-01  4.0938173102434938e-01  3.9997634874270493e-01  3.9200056855007109e-01  3.8509991727081955e-01  3.7901031992075962e-01  3.7355455199938409e-01  3.6858491329121074e-01  3.6400975128142388e-01  3.5974562612737154e-01  3.5574922274144821e-01  3.5196869635413186e-01  3.4836771435980290e-01  3.4494256895006986e-01  3.4166681862696935e-01  3.3853582290700818e-01  3.3554973461426890e-01  3.3271797711091744e-01  3.3005273547495051e-01  3.2756839669822518e-01  3.2528945910962798e-01  3.2323138010678054e-01  3.2140743528056614e-01  3.1980791746848886e-01  3.1831149357519445e-01  3.1648032131583897e-01  3.1307944973963275e-01  3.0662513737507258e-01  3.5465212910582461e-01  7.9211415752001979e-01  8.8769289608994284e-01  8.7065744806488421e-01  8.5552047276218768e-01  7.9839574212513698e-01  7.1399787374066859e-01  6.3179125687118809e-01  5.6682950092203122e-01  5.1913255178071849e-01  4.8446069290797239e-01  4.5886297641834956e-01  4.3949388355778579e-01  4.2443670596250732e-01  4.1241754501763539e-01  4.0258797281665554e-01  3.9434925062785320e-01  3.8730720988246625e-01  3.8117310825758288e-01  3.7573231218870545e-01  3.7082951996639757e-01  3.6635695558934450e-01  3.6222392822225052e-01  3.5836985416006495e-01  3.5474707257377391e-01  3.5130663414230617e-01  3.4803702814833420e-01  3.4491954963779964e-01  3.4193398916246359e-01  3.3908205360126753e-01  3.3637121069787024e-01  3.3381081425250303e-01  3.3141760687542432e-01  3.2921030790412886e-01  3.2720691066294294e-01  3.2541380773364154e-01  3.2381360772799717e-01  3.2225105477334703e-01  3.2017069937850789e-01  3.1602822182873563e-01  3.0796677863744332e-01  3.5476720076261653e-01  6.7724494702703386e-01  8.2453383201008479e-01  8.1184480911405066e-01  8.1695187125148994e-01  7.7517403507708649e-01  7.0349428649511869e-01  6.2894815386000114e-01  5.6750489104035517e-01  5.2110089137054050e-01  4.8674339113341702e-01  4.6108386707728366e-01  4.4154197372284826e-01  4.2632183014544728e-01  4.1418241019850688e-01  4.0429184453307820e-01  3.9605595808464400e-01  3.8907189261539715e-01  3.8303564844629806e-01  3.7772798161322690e-01  3.7298295903447110e-01  3.6868685141086549e-01  3.6474922475219651e-01  3.6109696289696802e-01  3.5768396428041566e-01  3.5445858896708665e-01  3.5139535993983356e-01  3.4847800528085210e-01  3.4568484464371435e-01  3.4301687822074828e-01  3.4047395400911851e-01  3.3806025681822433e-01  3.3579420408905836e-01  3.3369179641594071e-01  3.3177172226057683e-01  3.3003563114642687e-01  3.2844991694608522e-01  3.2681729969088286e-01  3.2444615205484040e-01  3.1944093273579655e-01  3.0951967193343866e-01  3.5490100513996020e-01  4.3900496118280169e-01  6.4285058128665751e-01  7.1514649440211586e-01  7.4586517285958676e-01  7.2338273569728628e-01  6.6944717329667391e-01  6.0887105153733601e-01  5.5628680282507403e-01  5.1497596775529442e-01  4.8348125093835981e-01  4.5944890390033821e-01  4.4086850928722604e-01  4.2625473556423332e-01  4.1453461090907878e-01  4.0497013443553237e-01  3.9701704946831984e-01  3.9029337658203178e-01  3.8451131730745547e-01  3.7945695452171258e-01  3.7496951038744170e-01  3.7093462023433976e-01  3.6726440540922789e-01  3.6388119578418548e-01  3.6073859285044968e-01  3.5778100739354440e-01  3.5498648896476503e-01  3.5233127342249221e-01  3.4979149432151341e-01  3.4736510531581544e-01  3.4504551706745207e-01  3.4283566950312422e-01  3.4075213525609549e-01  3.3880312017152253e-01  3.3700630584148172e-01  3.3535860424828090e-01  3.3380636631649152e-01  3.3209839538924379e-01  3.2939011562171799e-01  3.2338330961247880e-01  3.1131275707885064e-01  3.5505569923562758e-01  3.6562526703906084e-01  4.5467672543029947e-01  6.0603808143741411e-01  6.5963520534734199e-01  6.5624376842597021e-01  6.2159289671345253e-01  5.7741368579855368e-01  5.3635028777700611e-01  5.0240474207045105e-01  4.7549767449231117e-01  4.5435171501438137e-01  4.3764182873282165e-01  4.2428377110107907e-01  4.1345856998052360e-01  4.0457062095615265e-01  3.9716196995377745e-01  3.9089555956893912e-01  3.8552342375279097e-01  3.8084578702242544e-01  3.7671723156551251e-01  3.7302985842224573e-01  3.6970524574279112e-01  3.6666500906990074e-01  3.6385938121086719e-01  3.6123757121285172e-01  3.5877758900552803e-01  3.5645471630591086e-01  3.5424172990875280e-01  3.5212785402789248e-01  3.5010256732760975e-01  3.4817113191663646e-01  3.4633957519124203e-01  3.4461137078144810e-01  3.4299533871526733e-01  3.4148197956654103e-01  3.3999162178105602e-01  3.3821053132257189e-01  3.3510837707182417e-01  3.2793728029517244e-01  3.1338107228063461e-01  3.5523402044483238e-01  3.6084466372754587e-01  3.9390810441408275e-01  5.2121827524923214e-01  5.7990859777329851e-01  5.8902965417441233e-01  5.7047442283904948e-01  5.4131135066639047e-01  5.1171551441211838e-01  4.8570544961329204e-01  4.6411505945737680e-01  4.4653795820959291e-01  4.3227021687322975e-01  4.2063160985504838e-01  4.1106076880019055e-01  4.0312874194140358e-01  3.9647756237291865e-01  3.9084217219938255e-01  3.8601826945746381e-01  3.8183301225702942e-01  3.7816594615948762e-01  3.7491734676313487e-01  3.7201319896576707e-01  3.6938849648350436e-01  3.6699636556231580e-01  3.6478654579011704e-01  3.6273743862269908e-01  3.6082591005287340e-01  3.5901950267735644e-01  3.5731069350699357e-01  3.5567456336499975e-01  3.5411516637890550e-01  3.5262483530859873e-01  3.5120784186067400e-01  3.4985648207998110e-01  3.4854391862958345e-01  3.4715713153678218e-01  3.4530220209293599e-01  3.4174414850814810e-01  3.3320745766712651e-01  3.1577179275269068e-01  3.5544012132596170e-01  3.5999351407223179e-01  3.7353692556211049e-01  4.6955449712371727e-01  5.1893725312050165e-01  5.3198823928660843e-01  5.2372745153053701e-01  5.0594313406123126e-01  4.8594720770209349e-01  4.6716363931694865e-01  4.5076925421702607e-01  4.3690085937617490e-01  4.2529917602395295e-01  4.1561996176965937e-01  4.0753214752093575e-01  4.0074586020923181e-01  3.9501824326806972e-01  3.9014773679533793e-01  3.8598445240305324e-01  3.8239127674972434e-01  3.7927286375174524e-01  3.7654565602292744e-01  3.7413968397913216e-01  3.7200178668193584e-01  3.7009746936920351e-01  3.6837854905344924e-01  3.6682723583735349e-01  3.6541140319637072e-01  3.6411162395716923e-01  3.6290943550824106e-01  3.6178155037984167e-01  3.6071532102414139e-01  3.5969229416731863e-01  3.5870545546518728e-01  3.5773312227989923e-01  3.5671466893258502e-01  3.5549641893895556e-01  3.5358019953761238e-01  3.4947580570952996e-01  3.3933446236046594e-01  3.1854224087852390e-01  3.5567858207140485e-01  3.5905033069226022e-01  3.5976285116520113e-01  4.3501324890508353e-01  4.7451249364584930e-01  4.8723965838210731e-01  4.8452235720468190e-01  4.7429395644364192e-01  4.6143938534612966e-01  4.4853425097787492e-01  4.3669013747273161e-01  4.2626962874002211e-01  4.1728220090801782e-01  4.0961076316481854e-01  4.0308717992534149e-01  3.9754670985893353e-01  3.9283832233999177e-01  3.8883513403417452e-01  3.8541957483643330e-01  3.8250061189730217e-01  3.8000035435600177e-01  3.7785709132980660e-01  3.7601685912047733e-01  3.7444079928231583e-01  3.7309449302951680e-01  3.7194843837330316e-01  3.7098025033715121e-01  3.7016773768939926e-01  3.6948720644742761e-01  3.6891262645967138e-01  3.6842979589007618e-01  3.6800766827855136e-01  3.6761847809067255e-01  3.6723206692793126e-01  3.6679654921331262e-01  3.6621425306890198e-01  3.6525899954874813e-01  3.6330223526877220e-01  3.5855665231069467e-01  3.4650339000018349e-01  3.2177670250079093e-01  3.5595611523168785e-01  3.5829557500069237e-01  3.4989960962058342e-01  4.1081924701697925e-01  4.4207510493551688e-01  4.5297012109915413e-01  4.5290613042489430e-01  4.4731798348975932e-01  4.3940647535566035e-01  4.3093698029956290e-01  4.2278819198698714e-01  4.1534220649109554e-01  4.0873153109141347e-01  4.0296294316092574e-01  3.9798078983905227e-01  3.9370158097468361e-01  3.9005638679053101e-01  3.8696468327395156e-01  3.8435029106303364e-01  3.8215624509584600e-01  3.8032657585818980e-01  3.7881818936028611e-01  3.7760100373730071e-01  3.7664611785307162e-01  3.7592897886315130e-01  3.7543019270106764e-01  3.7513121586587012e-01  3.7502380818643899e-01  3.7508785313342602e-01  3.7529204232931884e-01  3.7562063072372609e-01  3.7603718761964483e-01  3.7649989450299742e-01  3.7694264293202062e-01  3.7727425577593537e-01  3.7733358684584223e-01  3.7678977096892269e-01  3.7482800878707695e-01  3.6930995793533122e-01  3.5496690769562028e-01  3.2557902232899216e-01  3.5628115393269494e-01  3.5765609582289687e-01  3.4194944462035964e-01  3.9208807924238853e-01  4.1731172237845393e-01  4.2646514041193806e-01  4.2760847661123264e-01  4.2479832105632670e-01  4.2018165658059220e-01  4.1491393320105596e-01  4.0961456475636099e-01  4.0460861935533621e-01  4.0004708675452366e-01  3.9599038165740602e-01  3.9244319121142224e-01  3.8937988410886343e-01  3.8678025625738688e-01  3.8460738406768857e-01  3.8281058670616869e-01  3.8136302189315074e-01  3.8023605524916121e-01  3.7940454177730731e-01  3.7884893695212768e-01  3.7856297953860152e-01  3.7853251482046257e-01  3.7874629444197594e-01  3.7920526024594614e-01  3.7990600905222727e-01  3.8083982999025451e-01  3.8198550190200509e-01  3.8332716636454761e-01  3.8482564682297360e-01  3.8641878077173586e-01  3.8801097372469134e-01  3.8943924124216911e-01  3.9045147383051670e-01  3.9055794144927897e-01  3.8866970661833500e-01  3.8219768900955875e-01  3.6504309174650945e-01  3.3007864697761286e-01  3.5666429400522076e-01  3.5711642500777330e-01  3.3545109953093888e-01  3.7719576497348184e-01  3.9788432191634060e-01  4.0554939352219854e-01  4.0721643210449221e-01  4.0608082932078243e-01  4.0362956383978754e-01  4.006202687