<?xml version="1.0"?>
<VTKFile type="UnstructuredGrid"  version="0.1"  >
<UnstructuredGrid>
<Piece  NumberOfPoints="1681" NumberOfCells="3200">
<Points>
<DataArray  type="Float64"  NumberOfComponents="3"  format="ascii">0 0 0  0.025 0 0  0.05 0 0  0.075 0 0  0.1 0 0  0.125 0 0  0.15 0 0  0.175 0 0  0.2 0 0  0.225 0 0  0.25 0 0  0.275 0 0  0.3 0 0  0.325 0 0  0.35 0 0  0.375 0 0  0.4 0 0  0.425 0 0  0.45 0 0  0.475 0 0  0.5 0 0  0.525 0 0  0.55 0 0  0.575 0 0  0.6 0 0  0.625 0 0  0.65 0 0  0.675 0 0  0.7 0 0  0.725 0 0  0.75 0 0  0.775 0 0  0.8 0 0  0.825 0 0  0.85 0 0  0.875 0 0  0.9 0 0  0.925 0 0  0.95 0 0  0.975 0 0  1 0 0  0 0.025 0  0.025 0.025 0  0.05 0.025 0  0.075 0.025 0  0.1 0.025 0  0.125 0.025 0  0.15 0.025 0  0.175 0.025 0  0.2 0.025 0  0.225 0.025 0  0.25 0.025 0  0.275 0.025 0  0.3 0.025 0  0.325 0.025 0  0.35 0.025 0  0.375 0.025 0  0.4 0.025 0  0.425 0.025 0  0.45 0.025 0  0.475 0.025 0  0.5 0.025 0  0.525 0.025 0  0.55 0.025 0  0.575 0.025 0  0.6 0.025 0  0.625 0.025 0  0.65 0.025 0  0.675 0.025 0  0.7 0.025 0  0.725 0.025 0  0.75 0.025 0  0.775 0.025 0  0.8 0.025 0  0.825 0.025 0  0.85 0.025 0  0.875 0.025 0  0.9 0.025 0  0.925 0.025 0  0.95 0.025 0  0.975 0.025 0  1 0.025 0  0 0.05 0  0.025 0.05 0  0.05 0.05 0  0.075 0.05 0  0.1 0.05 0  0.125 0.05 0  0.15 0.05 0  0.175 0.05 0  0.2 0.05 0  0.225 0.05 0  0.25 0.05 0  0.275 0.05 0  0.3 0.05 0  0.325 0.05 0  0.35 0.05 0  0.375 0.05 0  0.4 0.05 0  0.425 0.05 0  0.45 0.05 0  0.475 0.05 0  0.5 0.05 0  0.525 0.05 0  0.55 0.05 0  0.575 0.05 0  0.6 0.05 0  0.625 0.05 0  0.65 0.05 0  0.675 0.05 0  0.7 0.05 0  0.725 0.05 0  0.75 0.05 0  0.775 0.05 0  0.8 0.05 0  0.825 0.05 0  0.85 0.05 0  0.875 0.05 0  0.9 0.05 0  0.925 0.05 0  0.95 0.05 0  0.975 0.05 0  1 0.05 0  0 0.075 0  0.025 0.075 0  0.05 0.075 0  0.075 0.075 0  0.1 0.075 0  0.125 0.075 0  0.15 0.075 0  0.175 0.075 0  0.2 0.075 0  0.225 0.075 0  0.25 0.075 0  0.275 0.075 0  0.3 0.075 0  0.325 0.075 0  0.35 0.075 0  0.375 0.075 0  0.4 0.075 0  0.425 0.075 0  0.45 0.075 0  0.475 0.075 0  0.5 0.075 0  0.525 0.075 0  0.55 0.075 0  0.575 0.075 0  0.6 0.075 0  0.625 0.075 0  0.65 0.075 0  0.675 0.075 0  0.7 0.075 0  0.725 0.075 0  0.75 0.075 0  0.775 0.075 0  0.8 0.075 0  0.825 0.075 0  0.85 0.075 0  0.875 0.075 0  0.9 0.075 0  0.925 0.075 0  0.95 0.075 0  0.975 0.075 0  1 0.075 0  0 0.1 0  0.025 0.1 0  0.05 0.1 0  0.075 0.1 0  0.1 0.1 0  0.125 0.1 0  0.15 0.1 0  0.175 0.1 0  0.2 0.1 0  0.225 0.1 0  0.25 0.1 0  0.275 0.1 0  0.3 0.1 0  0.325 0.1 0  0.35 0.1 0  0.375 0.1 0  0.4 0.1 0  0.425 0.1 0  0.45 0.1 0  0.475 0.1 0  0.5 0.1 0  0.525 0.1 0  0.55 0.1 0  0.575 0.1 0  0.6 0.1 0  0.625 0.1 0  0.65 0.1 0  0.675 0.1 0  0.7 0.1 0  0.725 0.1 0  0.75 0.1 0  0.775 0.1 0  0.8 0.1 0  0.825 0.1 0  0.85 0.1 0  0.875 0.1 0  0.9 0.1 0  0.925 0.1 0  0.95 0.1 0  0.975 0.1 0  1 0.1 0  0 0.125 0  0.025 0.125 0  0.05 0.125 0  0.075 0.125 0  0.1 0.125 0  0.125 0.125 0  0.15 0.125 0  0.175 0.125 0  0.2 0.125 0  0.225 0.125 0  0.25 0.125 0  0.275 0.125 0  0.3 0.125 0  0.325 0.125 0  0.35 0.125 0  0.375 0.125 0  0.4 0.125 0  0.425 0.125 0  0.45 0.125 0  0.475 0.125 0  0.5 0.125 0  0.525 0.125 0  0.55 0.125 0  0.575 0.125 0  0.6 0.125 0  0.625 0.125 0  0.65 0.125 0  0.675 0.125 0  0.7 0.125 0  0.725 0.125 0  0.75 0.125 0  0.775 0.125 0  0.8 0.125 0  0.825 0.125 0  0.85 0.125 0  0.875 0.125 0  0.9 0.125 0  0.925 0.125 0  0.95 0.125 0  0.975 0.125 0  1 0.125 0  0 0.15 0  0.025 0.15 0  0.05 0.15 0  0.075 0.15 0  0.1 0.15 0  0.125 0.15 0  0.15 0.15 0  0.175 0.15 0  0.2 0.15 0  0.225 0.15 0  0.25 0.15 0  0.275 0.15 0  0.3 0.15 0  0.325 0.15 0  0.35 0.15 0  0.375 0.15 0  0.4 0.15 0  0.425 0.15 0  0.45 0.15 0  0.475 0.15 0  0.5 0.15 0  0.525 0.15 0  0.55 0.15 0  0.575 0.15 0  0.6 0.15 0  0.625 0.15 0  0.65 0.15 0  0.675 0.15 0  0.7 0.15 0  0.725 0.15 0  0.75 0.15 0  0.775 0.15 0  0.8 0.15 0  0.825 0.15 0  0.85 0.15 0  0.875 0.15 0  0.9 0.15 0  0.925 0.15 0  0.95 0.15 0  0.975 0.15 0  1 0.15 0  0 0.175 0  0.025 0.175 0  0.05 0.175 0  0.075 0.175 0  0.1 0.175 0  0.125 0.175 0  0.15 0.175 0  0.175 0.175 0  0.2 0.175 0  0.225 0.175 0  0.25 0.175 0  0.275 0.175 0  0.3 0.175 0  0.325 0.175 0  0.35 0.175 0  0.375 0.175 0  0.4 0.175 0  0.425 0.175 0  0.45 0.175 0  0.475 0.175 0  0.5 0.175 0  0.525 0.175 0  0.55 0.175 0  0.575 0.175 0  0.6 0.175 0  0.625 0.175 0  0.65 0.175 0  0.675 0.175 0  0.7 0.175 0  0.725 0.175 0  0.75 0.175 0  0.775 0.175 0  0.8 0.175 0  0.825 0.175 0  0.85 0.175 0  0.875 0.175 0  0.9 0.175 0  0.925 0.175 0  0.95 0.175 0  0.975 0.175 0  1 0.175 0  0 0.2 0  0.025 0.2 0  0.05 0.2 0  0.075 0.2 0  0.1 0.2 0  0.125 0.2 0  0.15 0.2 0  0.175 0.2 0  0.2 0.2 0  0.225 0.2 0  0.25 0.2 0  0.275 0.2 0  0.3 0.2 0  0.325 0.2 0  0.35 0.2 0  0.375 0.2 0  0.4 0.2 0  0.425 0.2 0  0.45 0.2 0  0.475 0.2 0  0.5 0.2 0  0.525 0.2 0  0.55 0.2 0  0.575 0.2 0  0.6 0.2 0  0.625 0.2 0  0.65 0.2 0  0.675 0.2 0  0.7 0.2 0  0.725 0.2 0  0.75 0.2 0  0.775 0.2 0  0.8 0.2 0  0.825 0.2 0  0.85 0.2 0  0.875 0.2 0  0.9 0.2 0  0.925 0.2 0  0.95 0.2 0  0.975 0.2 0  1 0.2 0  0 0.225 0  0.025 0.225 0  0.05 0.225 0  0.075 0.225 0  0.1 0.225 0  0.125 0.225 0  0.15 0.225 0  0.175 0.225 0  0.2 0.225 0  0.225 0.225 0  0.25 0.225 0  0.275 0.225 0  0.3 0.225 0  0.325 0.225 0  0.35 0.225 0  0.375 0.225 0  0.4 0.225 0  0.425 0.225 0  0.45 0.225 0  0.475 0.225 0  0.5 0.225 0  0.525 0.225 0  0.55 0.225 0  0.575 0.225 0  0.6 0.225 0  0.625 0.225 0  0.65 0.225 0  0.675 0.225 0  0.7 0.225 0  0.725 0.225 0  0.75 0.225 0  0.775 0.225 0  0.8 0.225 0  0.825 0.225 0  0.85 0.225 0  0.875 0.225 0  0.9 0.225 0  0.925 0.225 0  0.95 0.225 0  0.975 0.225 0  1 0.225 0  0 0.25 0  0.025 0.25 0  0.05 0.25 0  0.075 0.25 0  0.1 0.25 0  0.125 0.25 0  0.15 0.25 0  0.175 0.25 0  0.2 0.25 0  0.225 0.25 0  0.25 0.25 0  0.275 0.25 0  0.3 0.25 0  0.325 0.25 0  0.35 0.25 0  0.375 0.25 0  0.4 0.25 0  0.425 0.25 0  0.45 0.25 0  0.475 0.25 0  0.5 0.25 0  0.525 0.25 0  0.55 0.25 0  0.575 0.25 0  0.6 0.25 0  0.625 0.25 0  0.65 0.25 0  0.675 0.25 0  0.7 0.25 0  0.725 0.25 0  0.75 0.25 0  0.775 0.25 0  0.8 0.25 0  0.825 0.25 0  0.85 0.25 0  0.875 0.25 0  0.9 0.25 0  0.925 0.25 0  0.95 0.25 0  0.975 0.25 0  1 0.25 0  0 0.275 0  0.025 0.275 0  0.05 0.275 0  0.075 0.275 0  0.1 0.275 0  0.125 0.275 0  0.15 0.275 0  0.175 0.275 0  0.2 0.275 0  0.225 0.275 0  0.25 0.275 0  0.275 0.275 0  0.3 0.275 0  0.325 0.275 0  0.35 0.275 0  0.375 0.275 0  0.4 0.275 0  0.425 0.275 0  0.45 0.275 0  0.475 0.275 0  0.5 0.275 0  0.525 0.275 0  0.55 0.275 0  0.575 0.275 0  0.6 0.275 0  0.625 0.275 0  0.65 0.275 0  0.675 0.275 0  0.7 0.275 0  0.725 0.275 0  0.75 0.275 0  0.775 0.275 0  0.8 0.275 0  0.825 0.275 0  0.85 0.275 0  0.875 0.275 0  0.9 0.275 0  0.925 0.275 0  0.95 0.275 0  0.975 0.275 0  1 0.275 0  0 0.3 0  0.025 0.3 0  0.05 0.3 0  0.075 0.3 0  0.1 0.3 0  0.125 0.3 0  0.15 0.3 0  0.175 0.3 0  0.2 0.3 0  0.225 0.3 0  0.25 0.3 0  0.275 0.3 0  0.3 0.3 0  0.325 0.3 0  0.35 0.3 0  0.375 0.3 0  0.4 0.3 0  0.425 0.3 0  0.45 0.3 0  0.475 0.3 0  0.5 0.3 0  0.525 0.3 0  0.55 0.3 0  0.575 0.3 0  0.6 0.3 0  0.625 0.3 0  0.65 0.3 0  0.675 0.3 0  0.7 0.3 0  0.725 0.3 0  0.75 0.3 0  0.775 0.3 0  0.8 0.3 0  0.825 0.3 0  0.85 0.3 0  0.875 0.3 0  0.9 0.3 0  0.925 0.3 0  0.95 0.3 0  0.975 0.3 0  1 0.3 0  0 0.325 0  0.025 0.325 0  0.05 0.325 0  0.075 0.325 0  0.1 0.325 0  0.125 0.325 0  0.15 0.325 0  0.175 0.325 0  0.2 0.325 0  0.225 0.325 0  0.25 0.325 0  0.275 0.325 0  0.3 0.325 0  0.325 0.325 0  0.35 0.325 0  0.375 0.325 0  0.4 0.325 0  0.425 0.325 0  0.45 0.325 0  0.475 0.325 0  0.5 0.325 0  0.525 0.325 0  0.55 0.325 0  0.575 0.325 0  0.6 0.325 0  0.625 0.325 0  0.65 0.325 0  0.675 0.325 0  0.7 0.325 0  0.725 0.325 0  0.75 0.325 0  0.775 0.325 0  0.8 0.325 0  0.825 0.325 0  0.85 0.325 0  0.875 0.325 0  0.9 0.325 0  0.925 0.325 0  0.95 0.325 0  0.975 0.325 0  1 0.325 0  0 0.35 0  0.025 0.35 0  0.05 0.35 0  0.075 0.35 0  0.1 0.35 0  0.125 0.35 0  0.15 0.35 0  0.175 0.35 0  0.2 0.35 0  0.225 0.35 0  0.25 0.35 0  0.275 0.35 0  0.3 0.35 0  0.325 0.35 0  0.35 0.35 0  0.375 0.35 0  0.4 0.35 0  0.425 0.35 0  0.45 0.35 0  0.475 0.35 0  0.5 0.35 0  0.525 0.35 0  0.55 0.35 0  0.575 0.35 0  0.6 0.35 0  0.625 0.35 0  0.65 0.35 0  0.675 0.35 0  0.7 0.35 0  0.725 0.35 0  0.75 0.35 0  0.775 0.35 0  0.8 0.35 0  0.825 0.35 0  0.85 0.35 0  0.875 0.35 0  0.9 0.35 0  0.925 0.35 0  0.95 0.35 0  0.975 0.35 0  1 0.35 0  0 0.375 0  0.025 0.375 0  0.05 0.375 0  0.075 0.375 0  0.1 0.375 0  0.125 0.375 0  0.15 0.375 0  0.175 0.375 0  0.2 0.375 0  0.225 0.375 0  0.25 0.375 0  0.275 0.375 0  0.3 0.375 0  0.325 0.375 0  0.35 0.375 0  0.375 0.375 0  0.4 0.375 0  0.425 0.375 0  0.45 0.375 0  0.475 0.375 0  0.5 0.375 0  0.525 0.375 0  0.55 0.375 0  0.575 0.375 0  0.6 0.375 0  0.625 0.375 0  0.65 0.375 0  0.675 0.375 0  0.7 0.375 0  0.725 0.375 0  0.75 0.375 0  0.775 0.375 0  0.8 0.375 0  0.825 0.375 0  0.85 0.375 0  0.875 0.375 0  0.9 0.375 0  0.925 0.375 0  0.95 0.375 0  0.975 0.375 0  1 0.375 0  0 0.4 0  0.025 0.4 0  0.05 0.4 0  0.075 0.4 0  0.1 0.4 0  0.125 0.4 0  0.15 0.4 0  0.175 0.4 0  0.2 0.4 0  0.225 0.4 0  0.25 0.4 0  0.275 0.4 0  0.3 0.4 0  0.325 0.4 0  0.35 0.4 0  0.375 0.4 0  0.4 0.4 0  0.425 0.4 0  0.45 0.4 0  0.475 0.4 0  0.5 0.4 0  0.525 0.4 0  0.55 0.4 0  0.575 0.4 0  0.6 0.4 0  0.625 0.4 0  0.65 0.4 0  0.675 0.4 0  0.7 0.4 0  0.725 0.4 0  0.75 0.4 0  0.775 0.4 0  0.8 0.4 0  0.825 0.4 0  0.85 0.4 0  0.875 0.4 0  0.9 0.4 0  0.925 0.4 0  0.95 0.4 0  0.975 0.4 0  1 0.4 0  0 0.425 0  0.025 0.425 0  0.05 0.425 0  0.075 0.425 0  0.1 0.425 0  0.125 0.425 0  0.15 0.425 0  0.175 0.425 0  0.2 0.425 0  0.225 0.425 0  0.25 0.425 0  0.275 0.425 0  0.3 0.425 0  0.325 0.425 0  0.35 0.425 0  0.375 0.425 0  0.4 0.425 0  0.425 0.425 0  0.45 0.425 0  0.475 0.425 0  0.5 0.425 0  0.525 0.425 0  0.55 0.425 0  0.575 0.425 0  0.6 0.425 0  0.625 0.425 0  0.65 0.425 0  0.675 0.425 0  0.7 0.425 0  0.725 0.425 0  0.75 0.425 0  0.775 0.425 0  0.8 0.425 0  0.825 0.425 0  0.85 0.425 0  0.875 0.425 0  0.9 0.425 0  0.925 0.425 0  0.95 0.425 0  0.975 0.425 0  1 0.425 0  0 0.45 0  0.02
[...]
<PointData  Scalars="ControlVisualisation"> 
<DataArray  type="Float64"  Name="ControlVisualisation"  format="ascii">1.4883511977573328e-03  9.8656436236491639e-04  9.8684360068374000e-04  9.8750420334647827e-04  9.8864027869613371e-04  9.9019330250567795e-04  9.9196282981687004e-04  9.9370271479586308e-04  9.9522340543024574e-04  9.9643336636236288e-04  9.9731864988170408e-04  9.9790477538868856e-04  9.9823065505895382e-04  9.9833681968121467e-04  9.9826089923429982e-04  9.9803587687174490e-04  9.9768980191954071e-04  9.9724638574684096e-04  9.9672584059024971e-04  9.9614557154420599e-04  9.9552066669722928e-04  9.9486427092452786e-04  9.9418790872933885e-04  9.9350176961504263e-04  9.9281494372580395e-04  9.9213560332057395e-04  9.9147113654969241e-04  9.9082824678176562e-04  9.9021302741877362e-04  9.8963101734610278e-04  9.8908723906634272e-04  9.8858622222955297e-04  9.8813201531161793e-04  9.8772818999480353e-04  9.8737784252667929e-04  9.8708359610507473e-04  9.8684759516415440e-04  9.8667154561224478e-04  9.8655699697888528e-04  9.8650326425513829e-04  3.2335277481779796e-03  9.8654545474059904e-04  5.0669691461806884e-04  5.0687460136488653e-04  5.0734688835765165e-04  5.0825040165209463e-04  5.0959249351886630e-04  5.1121777840486466e-04  5.1288650863787536e-04  5.1439107019676605e-04  5.1561840750805011e-04  5.1653938731677197e-04  5.1716968452426956e-04  5.1754166737068427e-04  5.1769213558073787e-04  5.1765710912475744e-04  5.1746923050999152e-04  5.1715702941617335e-04  5.1674527232991587e-04  5.1625551434967545e-04  5.1570647974190321e-04  5.1511431391097241e-04  5.1449284418991423e-04  5.1385389985382154e-04  5.1320765490652800e-04  5.1256293707268468e-04  5.1192747273789171e-04  5.1130806838243733e-04  5.1071074327616972e-04  5.1014082851681751e-04  5.0960304239125811e-04  5.0910154778518080e-04  5.0863999601591110e-04  5.0822156097039524e-04  5.0784896755238151e-04  5.0752451812009997e-04  5.0725011740632912e-04  5.0702730115893401e-04  5.0685727388223166e-04  5.0674072029136333e-04  5.0667514946707874e-04  9.8650327078028286e-04  9.8660110887581259e-04  5.0676804282684200e-04  5.0708396533072917e-04  5.0781416121682362e-04  5.0908967079742640e-04  5.1084292454377212e-04  5.1284662387705935e-04  5.1479881734673523e-04  5.1647258524013481e-04  5.1779306565336621e-04  5.1877057368024263e-04  5.1943168849776986e-04  5.1980713343595299e-04  5.1993443166004235e-04  5.1985277030283249e-04  5.1959788461620939e-04  5.1920115800944825e-04  5.1869044110275928e-04  5.1809063799954503e-04  5.1742376908530383e-04  5.1670891150992987e-04  5.1596234042252027e-04  5.1519789672138910e-04  5.1442743267395203e-04  5.1366120154172656e-04  5.1290814464865012e-04  5.1217609290852846e-04  5.1147191508753385e-04  5.1080163478880200e-04  5.1017052543212522e-04  5.0958318650827159e-04  5.0904360392072673e-04  5.0855519868325144e-04  5.0812086865815336e-04  5.0774302778976426e-04  5.0742364518549586e-04  5.0716428810263317e-04  5.0696608560020159e-04  5.0682893003008720e-04  5.0674099930620884e-04  9.8655717452523616e-04  9.8645327881097039e-04  5.0687972017430941e-04  5.0758173180161258e-04  5.0893835499077182e-04  5.1075174721713456e-04  5.1280892051576129e-04  5.1501889872965646e-04  5.1684423489816974e-04  5.1814234667300224e-04  5.1911090201750521e-04  5.1984542186562892e-04  5.2032993259175733e-04  5.2056496212408185e-04  5.2058290533246721e-04  5.2041830184770094e-04  5.2009966020261545e-04  5.1965187099149105e-04  5.1909867551617203e-04  5.1846293164922990e-04  5.1776563818178812e-04  5.1702504115154306e-04  5.1625651314519711e-04  5.1547302459363010e-04  5.1468573392117771e-04  5.1390441754062971e-04  5.1313771252837613e-04  5.1239325337224082e-04  5.1167777376314350e-04  5.1099720081118779e-04  5.1035674068302197e-04  5.0976094936035395e-04  5.0921378705571000e-04  5.0871866024508432e-04  5.0827845716529881e-04  5.0789558225577058e-04  5.0757199194958851e-04  5.0730922805430033e-04  5.0710830915583465e-04  5.0696774168554988e-04  5.0685893809183024e-04  9.8667283719628849e-04  9.8624680073197690e-04  5.0868168241404550e-04  5.1095882273988885e-04  5.1649858862457736e-04  5.1995767730532818e-04  5.2067919229360532e-04  5.2155415961826850e-04  5.2119503912054091e-04  5.2071489366841642e-04  5.2086651896119805e-04  5.2123649512763942e-04  5.2143411496252939e-04  5.2144064017022192e-04  5.2129410394813032e-04  5.2101419555653763e-04  5.2061170797310650e-04  5.2009931805961185e-04  5.1949418873546553e-04  5.1881684822556841e-04  5.1808735716465178e-04  5.1732259837028265e-04  5.1653606928446418e-04  5.1573893350909008e-04  5.1494099529591055e-04  5.1415115517560069e-04  5.1337750033075727e-04  5.1262729057449967e-04  5.1190697810200533e-04  5.1122227424625741e-04  5.1057822877158179e-04  5.0997929448796183e-04  5.0942937102791308e-04  5.0893183349062397e-04  5.0848955510341071e-04  5.0810493131074900e-04  5.0777990782399727e-04  5.0751600451634450e-04  5.0731410627330236e-04  5.0717075331729823e-04  5.0703300838988649e-04  9.8685258912779806e-04  1.1060211602617876e-03  5.3992390898082831e-04  5.8860421524174148e-04  6.6068656550648047e-04  7.1504237941686136e-04  6.8709087050201879e-04  6.3180671149730004e-04  5.6935599759895452e-04  5.3373961810274865e-04  5.2583512609954844e-04  5.2381647476673035e-04  5.2302441334870658e-04  5.2257270102644610e-04  5.2219327706404055e-04  5.2176956272905178e-04  5.2126875011721083e-04  5.2067822889550368e-04  5.2000566250021802e-04  5.1927286705183385e-04  5.1850142744109520e-04  5.1770650170074545e-04  5.1689823003132885e-04  5.1608477215624149e-04  5.1527401224322111e-04  5.1447383176344229e-04  5.1369175748110392e-04  5.1293464271994762e-04  5.1220858633455534e-04  5.1151900419918678e-04  5.1087072792032706e-04  5.1026807042725336e-04  5.0971485482123797e-04  5.0921442241543544e-04  5.0876963586601604e-04  5.0838288802007765e-04  5.0805611971224067e-04  5.0779083203373698e-04  5.0758774373536051e-04  5.0744080788245793e-04  5.0726484045205767e-04  9.8709743178020115e-04  1.2064133951408544e-03  1.4695298643707787e-03  2.5595995157406659e-01  3.9410146629514986e-01  3.9135245560721083e-01  2.8859804384468213e-01  1.2824377014267757e-01  7.2422183209163351e-03  1.0663235952318194e-03  6.5128726727063917e-04  5.5157485253403294e-04  5.2883607543699235e-04  5.2472545843599422e-04  5.2341888714283011e-04  5.2270185894678087e-04  5.2208880080528383e-04  5.2140724302766331e-04  5.2064362618650618e-04  5.1983613224997321e-04  5.1901245683950580e-04  5.1818290014547395e-04  5.1735059087761092e-04  5.1651868856897212e-04  5.1569272422242150e-04  5.1487985968588703e-04  5.1408735773399573e-04  5.1332172300082128e-04  5.1258860707923803e-04  5.1189301339042725e-04  5.1123947452591284e-04  5.1063212445813088e-04  5.1007470003650479e-04  5.0957051570357553e-04  5.0912243797660017e-04  5.0873287299592058e-04  5.0840377043126798e-04  5.0813662026791794e-04  5.0793194082212592e-04  5.0778042959951373e-04  5.0755630273265572e-04  9.8740909589334954e-04  9.9903110896722036e-01  9.9931484647852886e-01  9.9954634694268096e-01  9.9952681351018202e-01  9.9934848929897013e-01  9.9890912834636791e-01  9.9676405961698422e-01  8.4294621256556412e-01  4.5673711543298540e-01  1.3340827028159410e-01  1.8201129720436509e-03  6.9640656037489091e-04  5.5223251045259181e-04  5.2810442313842680e-04  5.2435377660245213e-04  5.2323397555120005e-04  5.2233890340211138e-04  5.2141042250692955e-04  5.2049774247006468e-04  5.1961431950539084e-04  5.1875103695032368e-04  5.1789645519233164e-04  5.1704549714309692e-04  5.1620181727684623e-04  5.1537346438850222e-04  5.1456832299708651e-04  5.1379259151509765e-04  5.1305121235310021e-04  5.1234855279261727e-04  5.1168873174552284e-04  5.1107566663917046e-04  5.1051301113556056e-04  5.1000407525985899e-04  5.0955175970075024e-04  5.0915851484099666e-04  5.0882632589522062e-04  5.0855668929873296e-04  5.0834989204855791e-04  5.0819265655702031e-04  5.0790970082120821e-04  9.8778974908999987e-04  9.9987485119446873e-01  9.9991518349349695e-01  9.9989510703939755e-01  9.9986618867676491e-01  9.9982579136961092e-01  9.9976494319361875e-01  9.9965875192454157e-01  9.9943484146190964e-01  9.9876788217010370e-01  9.8756981158732304e-01  5.4907442574324428e-01  1.6091985033228184e-01  1.6634212837314901e-03  6.5350223521478171e-04  5.4190529953509136e-04  5.2694708446362234e-04  5.2382946624500513e-04  5.2233003461770768e-04  5.2124477688675645e-04  5.2029457800698117e-04  5.1940950184089032e-04  5.1854276387776105e-04  5.1767323814339732e-04  5.1680719426918840e-04  5.1595902469512406e-04  5.1513877479901602e-04  5.1435169689860579e-04  5.1360122766067680e-04  5.1289069297824272e-04  5.1222367126551151e-04  5.1160385292646059e-04  5.1103483830687157e-04  5.1051997960577808e-04  5.1006226591166002e-04  5.0966424604703860e-04  5.0932798849394551e-04  5.0905503132902207e-04  5.0884540965117167e-04  5.0868109356612000e-04  5.0832772771731527e-04  9.8824191515647529e-04  9.9993349306665258e-01  9.9996004618572221e-01  9.9994860408845887e-01  9.9993197286751412e-01  9.9991099954581886e-01  9.9988471227554299e-01  9.9984964931890241e-01  9.9979704164179994e-01  9.9970369008814330e-01  9.9948993369754779e-01  9.9879263901209214e-01  9.7691375734123154e-01  4.9354988314299286e-01  9.0565807244670907e-02  1.1212299847092990e-03  6.0103691147453864e-04  5.3275814493485246e-04  5.2443286999062438e-04  5.2223121594964213e-04  5.2104750619124795e-04  5.2016479113435382e-04  5.1931220650480898e-04  5.1841762547118956e-04  5.1751515751287782e-04  5.1663972490952168e-04  5.1580241591248164e-04  5.1500393119069984e-04  5.1424439338949748e-04  5.1352562737427170e-04  5.1285067300516161e-04  5.1222307059112183e-04  5.1164643885622419e-04  5.1112424923136618e-04  5.1065966786616396e-04  5.1025543234913722e-04  5.0991377540679430e-04  5.0963634075161849e-04  5.0942291066395358e-04  5.0924986113738864e-04  5.0881339313380361e-04  9.8876841012466351e-04  9.9994184510193529e-01  9.9996816253011178e-01  9.9996012294828795e-01  9.9994835044621710e-01  9.9993411831129186e-01  9.9991782507182525e-01  9.9989875911878634e-01  9.9987466390085600e-01  9.9984075585916876e-01  9.9978651205955338e-01  9.9968367064682795e-01  9.9942456189086093e-01  9.9841821742440706e-01  8.6066645536660602e-01  3.7922604021455386e-01  1.5826259385918192e-02  8.0412179252080471e-04  5.5945983240697831e-04  5.2674150642199923e-04  5.2226563211496980e-04  5.2116488387062552e-04  5.2029799747501152e-04  5.1930413612293210e-04  5.1832462701901193e-04  5.1741375389436207e-04  5.1656182852845680e-04  5.1575489037104013e-04  5.1498775572240149e-04  5.1426101337526185e-04  5.1357763573148241e-04  5.1294124987186717e-04  5.1235557961380046e-04  5.1182431286481167e-04  5.1135093414236019e-04  5.1093851960484879e-04  5.1058959830503994e-04  5.1030602727690196e-04  5.1008736905917840e-04  5.0990349955799255e-04  5.0936990280467192e-04  9.8937221761032654e-04  9.9992443520586072e-01  9.9996277141959533e-01  9.9995628209446807e-01  9.9994705020515151e-01  9.9993665957807987e-01  9.9992568799097015e-01  9.9991392164656645e-01  9.9990041525983941e-01  9.9988340906360362e-01  9.9985981499330734e-01  9.9982362623682675e-01  9.9976096674379877e-01  9.9963086733721984e-01  9.9926649714336757e-01  9.9709698745488062e-01  6.8568743297454249e-01  2.2839806610224525e-01  2.0231753769631919e-03  6.4437026461208876e-04  5.3643497313292799e-04  5.2450379285257185e-04  5.2193278297641343e-04  5.2035534561385038e-04  5.1921042438547716e-04  5.1827264825934894e-04  5.1741990505287604e-04  5.1661225682408669e-04  5.1584059417446857e-04  5.1510645907892926e-04  5.1441436963258424e-04  5.1376831968262646e-04  5.1317200441379181e-04  5.1262940903821401e-04  5.1214459636876922e-04  5.1172124017155227e-04  5.1136236832841271e-04  5.1107021699099177e-04  5.1084421814154941e-04  5.1064679174294227e-04  5.1000044817615410e-04  9.9005628456642599e-04  9.9982014141501052e-01  9.9993115453427883e-01  9.9993085101878632e-01  9.9992767613884836e-01  9.9992327225711175e-01  9.9991831967263223e-01  9.9991279680890577e-01  9.9990624190874799e-01  9.9989784976871288e-01  9.9988637690609106e-01  9.9986978281811678e-01  9.9984434305351988e-01  9.9980230112313317e-01  9.9972421003638068e-01  9.9954446849185008e-01  9.9893500329792240e-01  9.8397794917704184e-01  4.9557664380529787e-01  7.1430866249086220e-02  9.9321105468372275e-04  5.8470453939241216e-04  5.2919885562496632e-04  5.2210454967446590e-04  5.2024326245226401e-04  5.1923401832311596e-04  5.1838720978003442e-04  5.1759062704524359e-04  5.1681628461671802e-04  5.1607368717040514e-04  5.1537289942097742e-04  5.1471695830144289e-04  5.1410822558681929e-04  5.1355119394763779e-04  5.1305117956165639e-04  5.1261290315103342e-04  5.1224014538289796e-04  5.1193574162918887e-04  5.1169917497540548e-04  5.1148444990183582e-04  5.1070784817429154e-04  9.9082318481126530e-04  9.8928647023120675e-01  9.9968001286966768e-01  9.9981298936238838e-01  9.9986155132845778e-01  9.9988179906557018e-01  9.9989180519140908e-01  9.9989674870814838e-01  9.9989845567503022e-01  9.9989752758357375e-01  9.9989391918498327e-01  9.9988706940460392e-01  9.9987577986760900e-01  9.9985775310742431e-01  9.9982835401207937e-01  9.9977700068730380e-01  9.9967409029905074e-01  9.9939939059102245e-01  9.9824354070796861e-01  8.0999056267496661e-01  3.2704662058567141e-01  6.6846846835524609e-03  7.2395072597560787e-04  5.4481667544808261e-04  5.2394521513903164e-04  5.2066533545092335e-04  5.1955268215267826e-04  5.1873816532157406e-04  5.1793481815542888e-04  5.1717365460673742e-04  5.1646763503860552e-04  5.1580446340751800e-04  5.1518097105967089e-04  5.1460456149056107e-04  5.1408373728817033e-04  5.1362480246831756e-04  5.1323238223934854e-04  5.1291013516762156e-04  5.1265794968920566e-04  5.1242057490816077e-04  5.1149393954698656e-04  9.9167456138773372e-04  1.1573804749024723e-03  1.8851572776487296e-01  9.9814256774012677e-01  9.9953135949430960e-01  9.9974889841008852e-01  9.9982221282219763e-01  9.9985589974810285e-01  9.9987387379383574e-01  9.9988379816888484e-01  9.9988862754013874e-01  9.9988951319219377e-01  9.9988669241068007e-01  9.9987969551281974e-01  9.9986717843307171e-01  9.9984626112354114e-01  9.9981063890177302e-01  9.9974459560284956e-01  9.9959867606944164e-01  9.9915769501244434e-01  9.9555293690691882e-01  6.1092768932815289e-01  1.6646341946463816e-01  1.3172193557326739e-03  6.0907528072430659e-04  5.3097978928025389e-04  5.2226491682824552e-04  5.2035543027763049e-04  5.1922415276773909e-04  5.1840597320474487e-04  5.1772152894461907e-04  5.1705878240472286e-04  5.1641334559018675e-04  5.1580820835137953e-04  5.1525836086113892e-04  5.1477085590704403e-04  5.1435041658428444e-04  5.1400171818268697e-04  5.1372579791810770e-04  5.1345773348135415e-04  5.1235853272130227e-04  9.9261018988107061e-04  9.9698845393592951e-04  6.5285048343769413e-04  1.7594400545665323e-01  8.3748629433701727e-01  9.9892240620077444e-01  9.9957576341276755e-01  9.9974708217980646e-01  9.9981486288146149e-01  9.9984922804282139e-01  9.9986850278755635e-01  9.9987936041011838e-01  9.9988464083251338e-01  9.9988550713216950e-01  9.9988214657964969e-01  9.9987390305980206e-01  9.9985898142109386e-01  9.9983347406341572e-01  9.9978860766597322e-01  9.9970116633341688e-01  9.9948564026079156e-01  9.9868310722644904e-01  9.2533718580068325e-01  4.2150777525670469e-01  2.5923645701191288e-02  8.4058961673394916e-04  5.6272960899917074e-04  5.2618089191964568e-04  5.2102038148626865e-04  5.1985193991175736e-04  5.1922052009148109e-04  5.1853341778963736e-04  5.1783426117758781e-04  5.1718335925310442e-04  5.1659473412165409e-04  5.1606887713199589e-04  5.1560863494263880e-04  5.1522000241367174e-04  5.1490687337299912e-04  5.1459537849392941e-04  5.1329760103208740e-04  9.9362637391600022e-04  9.9021605462970346e-04  5.1740305560598232e-04  6.8775837791298748e-04  4.6743770973314336e-02  5.6293629618165775e-01  9.9630463698684557e-01  9.9926011388446723e-01  9.9963758252734713e-01  9.9976329194298030e-01  9.9982052834368296e-01  9.9985130015399026e-01  9.9986899092486425e-01  9.9987891215830105e-01  9.9988336936111721e-01  9.9988324350922153e-01  9.9987848472196972e-01  9.9986811538314457e-01  9.9984976243440826e-01  9.9981816651722688e-01  9.9976050662651039e-01  9.9963872507141627e-01  9.9929128340674445e-01  9.9742033028475219e-01  7.2130705751358704e-01  2.5653133908176107e-01  2.4351745760207693e-03  6.5594122663312194e-04  5.3651968777121038e-04  5.2353730407651974e-04  5.2147158696228501e-04  5.2033472833403339e-04  5.1946634588174697e-04  5.1875318052404130e-04  5.1811769372569995e-04  5.1754353127854771e-04  5.1702744135100195e-04  5.1657695886479305e-04  5.1620331729271599e-04  5.1582710750007802e-04  5.1430009879366973e-04  9.9471314254373890e-04  9.9490430612780107e-04  5.1430354898488254e-04  5.3039259038500713e-04  6.4119318502806966e-04  3.1355934401918212e-03  3.1511145274584618e-01  8.3263046690916886e-01  9.9844423824364081e-01  9.9944345898026299e-01  9.9968945849723601e-01  9.9978330770401491e-01  9.9983017814025954e-01  9.9985650467502873e-01  9.9987175058045108e-01  9.9987995854922374e-01  9.9988292109555388e-01  9.9988122232289223e-01  9.9987452210843342e-01  9.9986137834158473e-01  9.9983845681130112e-01  9.9979828645920721e-01  9.9972189123314448e-01  9.9954565866062661e-01  9.9896341139420242e-01  9.8954839553187646e-01  5.2453055785997682e-01  9.2408057955658568e-02  1.0337233006749505e-03  5.8778940860921604e-04  5.3037053073489956e-04  5.2313226390184628e-04  5.2145822368574975e-04  5.2056925187709223e-04  5.1986025201993045e-04  5.1923525361242885e-04  5.1864110194032079e-04  5.1809014379468235e-04  5.1761380641887384e-04  5.1713588410987163e-04  5.1534234013060230e-04  9.9584930156631059e-04  9.9812463536860839e-04  5.1702641991681450e-04  5.2350949915489994e-04  5.3252058233022633e-04  5.7585885998354298e-04  9.6053362083644298e-04  8.2098519606779080e-02  5.2935785959156856e-01  9.9185104708241822e-01  9.9903218964217544e-01  9.9956482336566954e-01  9.9973009184993966e-01  9.9980235723451261e-01  9.9984053131459716e-01  9.9986236975409393e-01  9.9987484090969292e-01  9.9988102715286409e-01  9.9988222435029450e-01  9.9987865115326102e-01  9.9986957529283771e-01  9.9985298730937711e-01  9.9982447586737466e-01  9.9977376297555920e-01  9.9967193912873398e-01  9.9940228080587290e-01  9.9826499828386828e-01  8.3688130203575417e-01  3.4885296634149582e-01  9.5348787560726265e-03  7.4104739846761318e-04  5.4967199749818491e-04  5.2664089187158840e-04  5.2300139111102989e-04  5.2192459507564826e-04  5.2124090407663286e-04  5.2052068202827284e-04  5.1978650089463420e-04  5.1913078897892757e-04  5.1848653272284443e-04  5.1637808803059351e-04  9.9699354332332714e-04  9.9918383070568420e-04  5.1810007107855891e-04  5.2215932233128277e-04  5.2492557099394948e-04  5.2766759320494285e-04  5.4096489117296009e-04  6.5922754224032390e-04  2.5182539495324785e-03  2.6652401197348141e-01  7.4327515083593398e-01  9.9766078753996434e-01  9.9931498467685465e-01  9.9964603162286403e-01  9.9976297716857554e-01  9.9981892401748307e-01  9.9984969867555562e-01  9.9986750049724604e-01  9.9987737166519475e-01  9.9988155951605739e-01  9.9988092116639260e-01  9.9987535762919388e-01  9.9986377021201145e-01  9.9984347239475269e-01  9.9980835947751678e-01  9.9974312605606586e-01  9.9959998283199192e-01  9.9916995916027984e-01  9.9605008529263828e-01  6.3371266934706449e-01  1.8302636765858560e-01  1.4311727426908755e-03  6.1894188943884638e-04  5.3496880801920117e-04  5.2561283096179997e-04  5.2405452876559677e-04  5.2282095783853788e-04  5.2169177901417263e-04  5.2074320067727812e-04  5.1981836670647868e-04  5.1732024675022435e-04  9.9806650286906641e-04  9.9890910500768752e-04  5.1800172670617877e-04  5.2105214775873725e-04  5.2249400825510382e-04  5.2387940902202793e-04  5.2594056780764348e-04  5.3213689018351870e-04  5.6982663759187855e-04  8.628658664