<?xml version="1.0"?>
<VTKFile type="UnstructuredGrid"  version="0.1"  >
<UnstructuredGrid>
<Piece  NumberOfPoints="1681" NumberOfCells="3200">
<Points>
<DataArray  type="Float64"  NumberOfComponents="3"  format="ascii">0 0 0  0.025 0 0  0.05 0 0  0.075 0 0  0.1 0 0  0.125 0 0  0.15 0 0  0.175 0 0  0.2 0 0  0.225 0 0  0.25 0 0  0.275 0 0  0.3 0 0  0.325 0 0  0.35 0 0  0.375 0 0  0.4 0 0  0.425 0 0  0.45 0 0  0.475 0 0  0.5 0 0  0.525 0 0  0.55 0 0  0.575 0 0  0.6 0 0  0.625 0 0  0.65 0 0  0.675 0 0  0.7 0 0  0.725 0 0  0.75 0 0  0.775 0 0  0.8 0 0  0.825 0 0  0.85 0 0  0.875 0 0  0.9 0 0  0.925 0 0  0.95 0 0  0.975 0 0  1 0 0  0 0.025 0  0.025 0.025 0  0.05 0.025 0  0.075 0.025 0  0.1 0.025 0  0.125 0.025 0  0.15 0.025 0  0.175 0.025 0  0.2 0.025 0  0.225 0.025 0  0.25 0.025 0  0.275 0.025 0  0.3 0.025 0  0.325 0.025 0  0.35 0.025 0  0.375 0.025 0  0.4 0.025 0  0.425 0.025 0  0.45 0.025 0  0.475 0.025 0  0.5 0.025 0  0.525 0.025 0  0.55 0.025 0  0.575 0.025 0  0.6 0.025 0  0.625 0.025 0  0.65 0.025 0  0.675 0.025 0  0.7 0.025 0  0.725 0.025 0  0.75 0.025 0  0.775 0.025 0  0.8 0.025 0  0.825 0.025 0  0.85 0.025 0  0.875 0.025 0  0.9 0.025 0  0.925 0.025 0  0.95 0.025 0  0.975 0.025 0  1 0.025 0  0 0.05 0  0.025 0.05 0  0.05 0.05 0  0.075 0.05 0  0.1 0.05 0  0.125 0.05 0  0.15 0.05 0  0.175 0.05 0  0.2 0.05 0  0.225 0.05 0  0.25 0.05 0  0.275 0.05 0  0.3 0.05 0  0.325 0.05 0  0.35 0.05 0  0.375 0.05 0  0.4 0.05 0  0.425 0.05 0  0.45 0.05 0  0.475 0.05 0  0.5 0.05 0  0.525 0.05 0  0.55 0.05 0  0.575 0.05 0  0.6 0.05 0  0.625 0.05 0  0.65 0.05 0  0.675 0.05 0  0.7 0.05 0  0.725 0.05 0  0.75 0.05 0  0.775 0.05 0  0.8 0.05 0  0.825 0.05 0  0.85 0.05 0  0.875 0.05 0  0.9 0.05 0  0.925 0.05 0  0.95 0.05 0  0.975 0.05 0  1 0.05 0  0 0.075 0  0.025 0.075 0  0.05 0.075 0  0.075 0.075 0  0.1 0.075 0  0.125 0.075 0  0.15 0.075 0  0.175 0.075 0  0.2 0.075 0  0.225 0.075 0  0.25 0.075 0  0.275 0.075 0  0.3 0.075 0  0.325 0.075 0  0.35 0.075 0  0.375 0.075 0  0.4 0.075 0  0.425 0.075 0  0.45 0.075 0  0.475 0.075 0  0.5 0.075 0  0.525 0.075 0  0.55 0.075 0  0.575 0.075 0  0.6 0.075 0  0.625 0.075 0  0.65 0.075 0  0.675 0.075 0  0.7 0.075 0  0.725 0.075 0  0.75 0.075 0  0.775 0.075 0  0.8 0.075 0  0.825 0.075 0  0.85 0.075 0  0.875 0.075 0  0.9 0.075 0  0.925 0.075 0  0.95 0.075 0  0.975 0.075 0  1 0.075 0  0 0.1 0  0.025 0.1 0  0.05 0.1 0  0.075 0.1 0  0.1 0.1 0  0.125 0.1 0  0.15 0.1 0  0.175 0.1 0  0.2 0.1 0  0.225 0.1 0  0.25 0.1 0  0.275 0.1 0  0.3 0.1 0  0.325 0.1 0  0.35 0.1 0  0.375 0.1 0  0.4 0.1 0  0.425 0.1 0  0.45 0.1 0  0.475 0.1 0  0.5 0.1 0  0.525 0.1 0  0.55 0.1 0  0.575 0.1 0  0.6 0.1 0  0.625 0.1 0  0.65 0.1 0  0.675 0.1 0  0.7 0.1 0  0.725 0.1 0  0.75 0.1 0  0.775 0.1 0  0.8 0.1 0  0.825 0.1 0  0.85 0.1 0  0.875 0.1 0  0.9 0.1 0  0.925 0.1 0  0.95 0.1 0  0.975 0.1 0  1 0.1 0  0 0.125 0  0.025 0.125 0  0.05 0.125 0  0.075 0.125 0  0.1 0.125 0  0.125 0.125 0  0.15 0.125 0  0.175 0.125 0  0.2 0.125 0  0.225 0.125 0  0.25 0.125 0  0.275 0.125 0  0.3 0.125 0  0.325 0.125 0  0.35 0.125 0  0.375 0.125 0  0.4 0.125 0  0.425 0.125 0  0.45 0.125 0  0.475 0.125 0  0.5 0.125 0  0.525 0.125 0  0.55 0.125 0  0.575 0.125 0  0.6 0.125 0  0.625 0.125 0  0.65 0.125 0  0.675 0.125 0  0.7 0.125 0  0.725 0.125 0  0.75 0.125 0  0.775 0.125 0  0.8 0.125 0  0.825 0.125 0  0.85 0.125 0  0.875 0.125 0  0.9 0.125 0  0.925 0.125 0  0.95 0.125 0  0.975 0.125 0  1 0.125 0  0 0.15 0  0.025 0.15 0  0.05 0.15 0  0.075 0.15 0  0.1 0.15 0  0.125 0.15 0  0.15 0.15 0  0.175 0.15 0  0.2 0.15 0  0.225 0.15 0  0.25 0.15 0  0.275 0.15 0  0.3 0.15 0  0.325 0.15 0  0.35 0.15 0  0.375 0.15 0  0.4 0.15 0  0.425 0.15 0  0.45 0.15 0  0.475 0.15 0  0.5 0.15 0  0.525 0.15 0  0.55 0.15 0  0.575 0.15 0  0.6 0.15 0  0.625 0.15 0  0.65 0.15 0  0.675 0.15 0  0.7 0.15 0  0.725 0.15 0  0.75 0.15 0  0.775 0.15 0  0.8 0.15 0  0.825 0.15 0  0.85 0.15 0  0.875 0.15 0  0.9 0.15 0  0.925 0.15 0  0.95 0.15 0  0.975 0.15 0  1 0.15 0  0 0.175 0  0.025 0.175 0  0.05 0.175 0  0.075 0.175 0  0.1 0.175 0  0.125 0.175 0  0.15 0.175 0  0.175 0.175 0  0.2 0.175 0  0.225 0.175 0  0.25 0.175 0  0.275 0.175 0  0.3 0.175 0  0.325 0.175 0  0.35 0.175 0  0.375 0.175 0  0.4 0.175 0  0.425 0.175 0  0.45 0.175 0  0.475 0.175 0  0.5 0.175 0  0.525 0.175 0  0.55 0.175 0  0.575 0.175 0  0.6 0.175 0  0.625 0.175 0  0.65 0.175 0  0.675 0.175 0  0.7 0.175 0  0.725 0.175 0  0.75 0.175 0  0.775 0.175 0  0.8 0.175 0  0.825 0.175 0  0.85 0.175 0  0.875 0.175 0  0.9 0.175 0  0.925 0.175 0  0.95 0.175 0  0.975 0.175 0  1 0.175 0  0 0.2 0  0.025 0.2 0  0.05 0.2 0  0.075 0.2 0  0.1 0.2 0  0.125 0.2 0  0.15 0.2 0  0.175 0.2 0  0.2 0.2 0  0.225 0.2 0  0.25 0.2 0  0.275 0.2 0  0.3 0.2 0  0.325 0.2 0  0.35 0.2 0  0.375 0.2 0  0.4 0.2 0  0.425 0.2 0  0.45 0.2 0  0.475 0.2 0  0.5 0.2 0  0.525 0.2 0  0.55 0.2 0  0.575 0.2 0  0.6 0.2 0  0.625 0.2 0  0.65 0.2 0  0.675 0.2 0  0.7 0.2 0  0.725 0.2 0  0.75 0.2 0  0.775 0.2 0  0.8 0.2 0  0.825 0.2 0  0.85 0.2 0  0.875 0.2 0  0.9 0.2 0  0.925 0.2 0  0.95 0.2 0  0.975 0.2 0  1 0.2 0  0 0.225 0  0.025 0.225 0  0.05 0.225 0  0.075 0.225 0  0.1 0.225 0  0.125 0.225 0  0.15 0.225 0  0.175 0.225 0  0.2 0.225 0  0.225 0.225 0  0.25 0.225 0  0.275 0.225 0  0.3 0.225 0  0.325 0.225 0  0.35 0.225 0  0.375 0.225 0  0.4 0.225 0  0.425 0.225 0  0.45 0.225 0  0.475 0.225 0  0.5 0.225 0  0.525 0.225 0  0.55 0.225 0  0.575 0.225 0  0.6 0.225 0  0.625 0.225 0  0.65 0.225 0  0.675 0.225 0  0.7 0.225 0  0.725 0.225 0  0.75 0.225 0  0.775 0.225 0  0.8 0.225 0  0.825 0.225 0  0.85 0.225 0  0.875 0.225 0  0.9 0.225 0  0.925 0.225 0  0.95 0.225 0  0.975 0.225 0  1 0.225 0  0 0.25 0  0.025 0.25 0  0.05 0.25 0  0.075 0.25 0  0.1 0.25 0  0.125 0.25 0  0.15 0.25 0  0.175 0.25 0  0.2 0.25 0  0.225 0.25 0  0.25 0.25 0  0.275 0.25 0  0.3 0.25 0  0.325 0.25 0  0.35 0.25 0  0.375 0.25 0  0.4 0.25 0  0.425 0.25 0  0.45 0.25 0  0.475 0.25 0  0.5 0.25 0  0.525 0.25 0  0.55 0.25 0  0.575 0.25 0  0.6 0.25 0  0.625 0.25 0  0.65 0.25 0  0.675 0.25 0  0.7 0.25 0  0.725 0.25 0  0.75 0.25 0  0.775 0.25 0  0.8 0.25 0  0.825 0.25 0  0.85 0.25 0  0.875 0.25 0  0.9 0.25 0  0.925 0.25 0  0.95 0.25 0  0.975 0.25 0  1 0.25 0  0 0.275 0  0.025 0.275 0  0.05 0.275 0  0.075 0.275 0  0.1 0.275 0  0.125 0.275 0  0.15 0.275 0  0.175 0.275 0  0.2 0.275 0  0.225 0.275 0  0.25 0.275 0  0.275 0.275 0  0.3 0.275 0  0.325 0.275 0  0.35 0.275 0  0.375 0.275 0  0.4 0.275 0  0.425 0.275 0  0.45 0.275 0  0.475 0.275 0  0.5 0.275 0  0.525 0.275 0  0.55 0.275 0  0.575 0.275 0  0.6 0.275 0  0.625 0.275 0  0.65 0.275 0  0.675 0.275 0  0.7 0.275 0  0.725 0.275 0  0.75 0.275 0  0.775 0.275 0  0.8 0.275 0  0.825 0.275 0  0.85 0.275 0  0.875 0.275 0  0.9 0.275 0  0.925 0.275 0  0.95 0.275 0  0.975 0.275 0  1 0.275 0  0 0.3 0  0.025 0.3 0  0.05 0.3 0  0.075 0.3 0  0.1 0.3 0  0.125 0.3 0  0.15 0.3 0  0.175 0.3 0  0.2 0.3 0  0.225 0.3 0  0.25 0.3 0  0.275 0.3 0  0.3 0.3 0  0.325 0.3 0  0.35 0.3 0  0.375 0.3 0  0.4 0.3 0  0.425 0.3 0  0.45 0.3 0  0.475 0.3 0  0.5 0.3 0  0.525 0.3 0  0.55 0.3 0  0.575 0.3 0  0.6 0.3 0  0.625 0.3 0  0.65 0.3 0  0.675 0.3 0  0.7 0.3 0  0.725 0.3 0  0.75 0.3 0  0.775 0.3 0  0.8 0.3 0  0.825 0.3 0  0.85 0.3 0  0.875 0.3 0  0.9 0.3 0  0.925 0.3 0  0.95 0.3 0  0.975 0.3 0  1 0.3 0  0 0.325 0  0.025 0.325 0  0.05 0.325 0  0.075 0.325 0  0.1 0.325 0  0.125 0.325 0  0.15 0.325 0  0.175 0.325 0  0.2 0.325 0  0.225 0.325 0  0.25 0.325 0  0.275 0.325 0  0.3 0.325 0  0.325 0.325 0  0.35 0.325 0  0.375 0.325 0  0.4 0.325 0  0.425 0.325 0  0.45 0.325 0  0.475 0.325 0  0.5 0.325 0  0.525 0.325 0  0.55 0.325 0  0.575 0.325 0  0.6 0.325 0  0.625 0.325 0  0.65 0.325 0  0.675 0.325 0  0.7 0.325 0  0.725 0.325 0  0.75 0.325 0  0.775 0.325 0  0.8 0.325 0  0.825 0.325 0  0.85 0.325 0  0.875 0.325 0  0.9 0.325 0  0.925 0.325 0  0.95 0.325 0  0.975 0.325 0  1 0.325 0  0 0.35 0  0.025 0.35 0  0.05 0.35 0  0.075 0.35 0  0.1 0.35 0  0.125 0.35 0  0.15 0.35 0  0.175 0.35 0  0.2 0.35 0  0.225 0.35 0  0.25 0.35 0  0.275 0.35 0  0.3 0.35 0  0.325 0.35 0  0.35 0.35 0  0.375 0.35 0  0.4 0.35 0  0.425 0.35 0  0.45 0.35 0  0.475 0.35 0  0.5 0.35 0  0.525 0.35 0  0.55 0.35 0  0.575 0.35 0  0.6 0.35 0  0.625 0.35 0  0.65 0.35 0  0.675 0.35 0  0.7 0.35 0  0.725 0.35 0  0.75 0.35 0  0.775 0.35 0  0.8 0.35 0  0.825 0.35 0  0.85 0.35 0  0.875 0.35 0  0.9 0.35 0  0.925 0.35 0  0.95 0.35 0  0.975 0.35 0  1 0.35 0  0 0.375 0  0.025 0.375 0  0.05 0.375 0  0.075 0.375 0  0.1 0.375 0  0.125 0.375 0  0.15 0.375 0  0.175 0.375 0  0.2 0.375 0  0.225 0.375 0  0.25 0.375 0  0.275 0.375 0  0.3 0.375 0  0.325 0.375 0  0.35 0.375 0  0.375 0.375 0  0.4 0.375 0  0.425 0.375 0  0.45 0.375 0  0.475 0.375 0  0.5 0.375 0  0.525 0.375 0  0.55 0.375 0  0.575 0.375 0  0.6 0.375 0  0.625 0.375 0  0.65 0.375 0  0.675 0.375 0  0.7 0.375 0  0.725 0.375 0  0.75 0.375 0  0.775 0.375 0  0.8 0.375 0  0.825 0.375 0  0.85 0.375 0  0.875 0.375 0  0.9 0.375 0  0.925 0.375 0  0.95 0.375 0  0.975 0.375 0  1 0.375 0  0 0.4 0  0.025 0.4 0  0.05 0.4 0  0.075 0.4 0  0.1 0.4 0  0.125 0.4 0  0.15 0.4 0  0.175 0.4 0  0.2 0.4 0  0.225 0.4 0  0.25 0.4 0  0.275 0.4 0  0.3 0.4 0  0.325 0.4 0  0.35 0.4 0  0.375 0.4 0  0.4 0.4 0  0.425 0.4 0  0.45 0.4 0  0.475 0.4 0  0.5 0.4 0  0.525 0.4 0  0.55 0.4 0  0.575 0.4 0  0.6 0.4 0  0.625 0.4 0  0.65 0.4 0  0.675 0.4 0  0.7 0.4 0  0.725 0.4 0  0.75 0.4 0  0.775 0.4 0  0.8 0.4 0  0.825 0.4 0  0.85 0.4 0  0.875 0.4 0  0.9 0.4 0  0.925 0.4 0  0.95 0.4 0  0.975 0.4 0  1 0.4 0  0 0.425 0  0.025 0.425 0  0.05 0.425 0  0.075 0.425 0  0.1 0.425 0  0.125 0.425 0  0.15 0.425 0  0.175 0.425 0  0.2 0.425 0  0.225 0.425 0  0.25 0.425 0  0.275 0.425 0  0.3 0.425 0  0.325 0.425 0  0.35 0.425 0  0.375 0.425 0  0.4 0.425 0  0.425 0.425 0  0.45 0.425 0  0.475 0.425 0  0.5 0.425 0  0.525 0.425 0  0.55 0.425 0  0.575 0.425 0  0.6 0.425 0  0.625 0.425 0  0.65 0.425 0  0.675 0.425 0  0.7 0.425 0  0.725 0.425 0  0.75 0.425 0  0.775 0.425 0  0.8 0.425 0  0.825 0.425 0  0.85 0.425 0  0.875 0.425 0  0.9 0.425 0  0.925 0.425 0  0.95 0.425 0  0.975 0.425 0  1 0.425 0  0 0.45 0  0.02
[...]
<PointData  Scalars="ControlVisualisation"> 
<DataArray  type="Float64"  Name="ControlVisualisation"  format="ascii">8.5081886503750523e-02  6.4601977219807663e-02  6.4668401647570983e-02  6.4843127120827140e-02  6.5115816260087445e-02  6.5454122925278496e-02  6.5819067641177675e-02  6.6175364178779644e-02  6.6497993517664306e-02  6.6773805646588552e-02  6.6999588854084982e-02  6.7178511058995097e-02  6.7316643170588455e-02  6.7420502296903814e-02  6.7495783605345611e-02  6.7546994765809387e-02  6.7577585690379124e-02  6.7590238310641190e-02  6.7587110355949651e-02  6.7569941443509973e-02  6.7540008476411895e-02  6.7497965041410798e-02  6.7443627689982563e-02  6.7375788861838787e-02  6.7292143135081639e-02  6.7189406311504357e-02  6.7063680523180999e-02  6.6911073865524223e-02  6.6728527259715648e-02  6.6514755681639767e-02  6.6271182403938117e-02  6.6002752431918263e-02  6.5718577950993326e-02  6.5432289166175023e-02  6.5161954393099186e-02  6.4928991006576439e-02  6.4753270611983813e-02  6.4645367700704878e-02  6.4599787064350905e-02  6.4596872606700148e-02  1.5881351617774198e-01  6.4600797307187915e-02  3.9907572068006027e-02  4.0297401323792975e-02  4.1083859529299244e-02  4.2244834200013348e-02  4.3656204153580444e-02  4.5173934446012316e-02  4.6678183272217955e-02  4.8086617304423852e-02  4.9351872162766833e-02  5.0452488761518401e-02  5.1383434624340224e-02  5.2148787125128916e-02  5.2756932188885636e-02  5.3217808579797174e-02  5.3541608611920678e-02  5.3738412335357547e-02  5.3818276334286569e-02  5.3791355070563492e-02  5.3667762271912722e-02  5.3457068464516401e-02  5.3167519844776460e-02  5.2805199376914191e-02  5.2373401415089754e-02  5.1872444832577712e-02  5.1300020341515852e-02  5.0652007502624330e-02  4.9923595037219985e-02  4.9110572099846518e-02  4.8210837888518571e-02  4.7226345953171024e-02  4.6165771801336804e-02  4.5047953106622789e-02  4.3905705982861080e-02  4.2789476791443119e-02  4.1767837681174973e-02  4.0918913182438642e-02  4.0310317200633730e-02  3.9959562329653600e-02  3.9812677587713965e-02  6.4596776829186922e-02  6.4657083664737144e-02  4.0297149967746179e-02  4.1343126130316779e-02  4.2971907492598389e-02  4.5237478841311414e-02  4.7962118691143425e-02  5.0986566762591681e-02  5.4251004568391298e-02  5.7730505919293372e-02  6.1359601069928937e-02  6.5019261282256963e-02  6.8569248435658689e-02  7.1877628876060945e-02  7.4827786917670960e-02  7.7313680003220975e-02  7.9239299588770393e-02  8.0527779986540315e-02  8.1135382076321913e-02  8.1062413960237431e-02  8.0355571516450286e-02  7.9100412343125176e-02  7.7406188112307761e-02  7.5387279726428377e-02  7.3146120904609313e-02  7.0761945799448903e-02  6.8287989936151872e-02  6.5757063047237121e-02  6.3192341660595674e-02  6.0617978776891804e-02  5.8063997285585964e-02  5.5562516187444920e-02  5.3137542734221485e-02  5.0796206068261476e-02  4.8533877707108784e-02  4.6360330420181672e-02  4.4335318921568827e-02  4.2585205553035806e-02  4.1261166482917742e-02  4.0420908275146376e-02  3.9938836432079315e-02  6.4595269870642166e-02  6.4806787096562873e-02  4.1138307017195314e-02  4.3190492769987862e-02  4.5595061538864202e-02  4.8638428363332153e-02  5.2296676367825180e-02  5.6612599576840207e-02  6.1680025558946215e-02  6.7544470573182344e-02  7.4265264925899091e-02  8.1986746557792936e-02  9.0845061317789508e-02  1.0076053894381914e-01  1.1129223368491467e-01  1.2166266385583674e-01  1.3092589625949363e-01  1.3817962785870963e-01  1.4273518060419282e-01  1.4421071692193155e-01  1.4255443555211050e-01  1.3801983069807991e-01  1.3111172254118403e-01  1.2251265513917223e-01  1.1299337657533542e-01  1.0331203007959866e-01  9.4113433055548840e-02  8.5847635093182995e-02  7.8729053418463285e-02  7.2749224885600150e-02  6.7739301024278373e-02  6.3460393887264460e-02  5.9689331070026400e-02  5.6267920927269371e-02  5.3103122560108892e-02  5.0136323918692736e-02  4.7344469784498376e-02  4.4796949619264392e-02  4.2677927828036533e-02  4.1176811151176725e-02  4.0177530154606581e-02  6.4607590397737530e-02  6.5048090834221445e-02  4.2554375121470568e-02  4.6559047437091702e-02  5.0437199910830989e-02  5.5011405839143060e-02  6.0625702859783165e-02  6.7527129980141334e-02  7.6238137113571455e-02  8.7912843363329898e-02  1.0406178913372405e-01  1.2569516694490385e-01  1.5255596264277743e-01  1.8297826028946917e-01  2.1437865179908827e-01  2.4399385160933629e-01  2.6946466957105852e-01  2.8910221910003520e-01  3.0189206802838381e-01  3.0737249754891049e-01  3.0549944083538533e-01  2.9655718514755491e-01  2.8113083414209711e-01  2.6012905109590462e-01  2.3482536728800493e-01  2.0686801746782202e-01  1.7819856928154501e-01  1.5083754539799638e-01  1.2655573742012549e-01  1.0653325884473139e-01  9.1151821488496404e-02  8.0016194893624826e-02  7.2186799809261321e-02  6.6515024606834672e-02  6.1964049042894848e-02  5.7820395502829885e-02  5.3767924910424127e-02  4.9776803656371174e-02  4.6049856320901347e-02  4.2974267803694351e-02  4.0647145169348343e-02  6.4614531080196880e-02  6.5390405151102365e-02  4.5422892389957198e-02  5.3812411327508074e-02  6.2266280213849404e-02  7.2814850751710250e-02  8.8469311126429917e-02  1.1299695782056168e-01  1.4890742280346067e-01  1.9561438503424211e-01  2.4961342249245688e-01  3.0612546318434020e-01  3.6074928010307622e-01  4.1032371670816631e-01  4.5302736720293008e-01  4.8808063117942901e-01  5.1536079213337760e-01  5.3508160678058037e-01  5.4757554882105841e-01  5.5316622255299586e-01  5.5210597392742022e-01  5.4455765666330036e-01  5.3060856496815634e-01  5.1031412280754174e-01  4.8377676600854419e-01  4.5126816149051774e-01  4.1339352953188480e-01  3.7126643317889269e-01  3.2661160365316338e-01  2.8167400248935770e-01  2.3885091662699195e-01  2.0011781283065364e-01  1.6650175891351104e-01  1.3789719833248795e-01  1.1342020835161415e-01  9.2291216320108588e-02  7.4944746532072809e-02  6.2611459542265324e-02  5.5125492811066615e-02  4.8647659411167832e-02  4.1814128245331150e-02  6.4564151566501110e-02  6.9340762225133898e-02  5.4977957570604308e-02  7.9926411833420724e-02  1.4928995987657281e-01  2.7110815418021333e-01  3.9979130192912615e-01  5.0342107878454156e-01  5.7741441795567394e-01  6.2849452952084306e-01  6.6441060047478029e-01  6.9080820735366144e-01  7.1111366898903916e-01  7.2721055983709537e-01  7.4008451287144317e-01  7.5025022455283930e-01  7.5798801819250428e-01  7.6346153604132416e-01  7.6677599043927702e-01  7.6801277666517387e-01  7.6725710639186950e-01  7.6462402532861340e-01  7.6028326312468897e-01  7.5448242887586492e-01  7.4756931579060093e-01  7.4001598380840383e-01  7.3244738016734712e-01  7.2567154914551357e-01  7.2069344189022777e-01  7.1867260603069616e-01  7.2077163521457144e-01  7.2785885229446479e-01  7.4006846086111322e-01  7.5622430873121049e-01  7.7314906130094407e-01  7.8504958297878202e-01  7.8302459283511128e-01  7.4750895175333443e-01  6.1293283166532397e-01  1.2910527761346169e-01  5.2924680908474991e-02  6.5918453530940002e-02  3.7087537217242916e-01  4.9807228795187658e-01  8.5197915159954507e-01  8.8767947780800949e-01  9.1322621830318473e-01  9.3452133822371963e-01  9.4657932867828509e-01  9.4802684019894889e-01  9.4226292232203135e-01  9.3364343588424858e-01  9.2508707147765912e-01  9.1785431508983495e-01  9.1215387519346813e-01  9.0774130944672393e-01  9.0428301316609327e-01  9.0150707178572498e-01  8.9922810381470197e-01  8.9732783841317643e-01  8.9574066752763626e-01  8.9445988639868834e-01  8.9355885045763106e-01  8.9321236611569899e-01  8.9370236765470512e-01  8.9539365906907697e-01  8.9866726117708973e-01  9.0379946283230184e-01  9.1077785316843007e-01  9.1907001538886390e-01  9.2744748918694575e-01  9.3414341166500114e-01  9.3773427503524798e-01  9.3866027838481347e-01  9.3990159376675941e-01  9.4475514504694524e-01  9.5297483728541432e-01  9.6075699301879103e-01  9.6607234421306654e-01  9.7066803323607709e-01  9.7743689031878178e-01  9.7497686249764193e-01  7.8939797180682358e-01  9.5273798529646825e-01  9.5983441624936150e-01  9.5652313275409362e-01  9.5237859806143677e-01  9.4893150352404698e-01  9.5262315069579451e-01  9.6355712131635685e-01  9.7389176237272079e-01  9.7863368430910647e-01  9.7837600082122245e-01  9.7572194281295388e-01  9.7262938971217605e-01  9.6989513204947397e-01  9.6756516984765795e-01  9.6543407938662507e-01  9.6333739047219025e-01  9.6122395263303551e-01  9.5911217003061910e-01  9.5703487047092373e-01  9.5502299981805283e-01  9.5312606695255186e-01  9.5144053667665340e-01  9.5011364712119717e-01  9.4930175392129734e-01  9.4908566828468310e-01  9.4937940826252021e-01  9.4990830404878590e-01  9.5035805595101197e-01  9.5075372371808964e-01  9.5190989037507101e-01  9.5534594827229935e-01  9.6182639438862005e-01  9.6903629317344719e-01  9.7236602636770397e-01  9.7179306198849069e-01  9.7390828814325403e-01  9.8096186968453647e-01  9.8806582289171585e-01  9.9385071492504684e-01  9.9289854274606781e-01  9.8013596131344327e-01  9.6677530629064579e-01  9.7738335090049100e-01  9.6802712108878652e-01  9.6518863233746643e-01  9.6431830949256847e-01  9.5985141760503534e-01  9.6051187148642692e-01  9.6733313786374719e-01  9.7444921665527195e-01  9.7874955535183872e-01  9.8079944844592748e-01  9.8206135673695716e-01  9.8335291428616867e-01  9.8472529259213049e-01  9.8586554746670374e-01  9.8645715520981647e-01  9.8631444453539863e-01  9.8535147088436337e-01  9.8351835655476449e-01  9.8078879758833271e-01  9.7720599100409589e-01  9.7294648022983132e-01  9.6835168872831889e-01  9.6389766573447311e-01  9.6011455278422442e-01  9.5750894026373545e-01  9.5654739788196064e-01  9.5768705171578206e-01  9.6129355923482129e-01  9.6718818158596442e-01  9.7381200824642489e-01  9.7798739203197305e-01  9.7744608285221646e-01  9.7542638467793552e-01  9.7813728190680549e-01  9.8438654439950624e-01  9.8846639172643846e-01  9.9071601541375798e-01  9.9351396606100684e-01  9.9583102121013367e-01  9.9170737239419215e-01  9.6999476844141597e-01  9.8297620309863543e-01  9.7272660518233067e-01  9.6714266721587561e-01  9.6739143559724072e-01  9.6276103584991535e-01  9.6089105020696342e-01  9.6656419643379554e-01  9.7442904318645318e-01  9.8000980259554571e-01  9.8310635957856074e-01  9.8518787836187405e-01  9.8732744690114771e-01  9.8977467339769043e-01  9.9226524311599340e-01  9.9437739865855757e-01  9.9569714619417571e-01  9.9584074889604524e-01  9.9446373627177098e-01  9.9133214590485585e-01  9.8644876386646185e-01  9.8017375167718546e-01  9.7326810672707642e-01  9.6681468918589730e-01  9.6202086609471937e-01  9.5995072088012012e-01  9.6123760994884477e-01  9.6578574537645556e-01  9.7245955677551665e-01  9.7892766265007125e-01  9.8224208572266924e-01  9.8093747763132777e-01  9.7773561600669678e-01  9.7802863392476169e-01  9.8263240084313563e-01  9.8673316771266684e-01  9.8907086079506445e-01  9.9165578037628943e-01  9.9481361390492151e-01  9.9679994299082586e-01  9.9376593425550397e-01  9.6351106689633159e-01  9.7781293233505695e-01  9.6816478647199755e-01  9.6469939597544663e-01  9.6211467112338023e-01  9.5672172213763607e-01  9.5999365435399964e-01  9.7109124168077299e-01  9.8083673691394457e-01  9.8490290435152927e-01  9.8481448051496512e-01  9.8357060839052801e-01  9.8319667979222869e-01  9.8443063240784090e-01  9.8712808429962351e-01  9.9065714715032904e-01  9.9413254536099649e-01  9.9656705960592640e-01  9.9703809457163328e-01  9.9490318208772277e-01  9.9002791933096090e-01  9.8294724008486034e-01  9.7487574133621857e-01  9.6751340066584424e-01  9.6264942195049397e-01  9.6163218635458514e-01  9.6482896109382643e-01  9.7123957164590702e-01  9.7847788571849348e-01  9.8342342293198226e-01  9.8383719096844935e-01  9.8050351367716893e-01  9.7754181934068540e-01  9.7851822468679084e-01  9.8224572039014135e-01  9.8549959870450132e-01  9.8819357036904920e-01  9.9087537838650674e-01  9.9376059911583692e-01  9.9580086052520922e-01  9.9332631838597663e-01  9.4507721924128218e-01  9.5975098736990028e-01  9.5366223826407126e-01  9.4600354714529655e-01  9.4200443654378097e-01  9.4929023670358981e-01  9.6324752245979794e-01  9.7145399606744998e-01  9.6830575059632862e-01  9.5771497362514024e-01  9.4623123938750575e-01  9.3846466099729109e-01  9.3638199462493843e-01  9.4001328625366820e-01  9.4821561741052640e-01  9.5919948085298334e-01  9.7088184991278081e-01  9.8118061601900819e-01  9.8831950710609218e-01  9.9114250277784333e-01  9.8937825265988355e-01  9.8376898451777672e-01  9.7598834896918862e-01  9.6830946503545112e-01  9.6304161413899847e-01  9.6183368602687247e-01  9.6503583090261746e-01  9.7137769455276146e-01  9.7821736262102243e-01  9.8253187410255449e-01  9.8257392833514934e-01  9.7937449955390254e-01  9.7628647518677858e-01  9.7597240554635645e-01  9.7815163095120639e-01  9.8123693450075455e-01  9.8478134600092837e-01  9.8867873103094750e-01  9.9209606404226047e-01  9.9251874536148410e-01  9.8847245071559331e-01  1.2418095932687467e-01  4.8977132546797658e-01  6.9266622652452825e-01  7.4193876969546335e-01  7.4753670912632897e-01  7.4713629843088825e-01  7.3903013462803524e-01  7.2742344850759788e-01  7.1775268460534436e-01  7.1456158869890629e-01  7.2035578186755378e-01  7.3581926076149162e-01  7.6020773736952973e-01  7.9172244210325249e-01  8.2780378885711281e-01  8.6540063742471651e-01  9.0128718335632740e-01  9.3245963609456339e-01  9.5657522858545430e-01  9.7233788147732580e-01  9.7972532721661643e-01  9.7999118901865545e-01  9.7542819798449998e-01  9.6891546682087948e-01  9.6330054626751838e-01  9.6071650813562137e-01  9.6200811509836781e-01  9.6648503130886165e-01  9.7217400853594094e-01  9.7661542413594393e-01  9.7805408499639390e-01  9.7649043286290460e-01  9.7364132007653215e-01  9.7149394669083566e-01  9.7095337041859719e-01  9.7202716549231849e-01  9.7468918870343735e-01  9.7913644157006074e-01  9.8265315786424146e-01  9.7479761415212662e-01  9.4843137197923388e-01  6.6025240427467505e-02  4.9698695635101459e-02  6.5023567372588076e-02  8.0803877320388171e-02  1.0326494874293243e-01  1.3274124779200236e-01  1.6555084065220765e-01  2.0023956557065292e-01  2.3765472943268906e-01  2.7992577954821912e-01  3.2929358729882996e-01  3.8741174304264397e-01  4.5473314851483360e-01  5.3006928747296678e-01  6.1043186665439886e-01  6.9132448197107776e-01  7.6752415679807973e-01  8.3416253433984333e-01  8.8773320686798529e-01  9.2668102151879761e-01  9.5145357192490243e-01  9.6413050870729511e-01  9.6783968726864866e-01  9.6612282273813010e-01  9.6233097480440344e-01  9.5909830227098847e-01  9.5796617706376508e-01  9.5924945919061144e-01  9.6220156840917825e-01  9.6546021745716704e-01  9.6767731269406831e-01  9.6812521118749362e-01  9.6694296841956906e-01  9.6481646088553541e-01  9.6239373013373541e-01  9.5991628683020425e-01  9.5725303114357085e-01  9.5429400976243273e-01  9.4177193824553562e-01  2.1966340316969962e-01  7.7553139053558956e-02  6.5270130096939313e-02  4.3135117708932982e-02  4.8544234437793626e-02  5.4213732439113885e-02  6.0822474504298236e-02  6.8391700360620880e-02  7.7110401936427819e-02  8.7617817457417868e-02  1.0110550229308608e-01  1.1957663735576331e-01  1.4594176050403257e-01  1.8385825803239836e-01  2.3701609293564926e-01  3.0778283052422639e-01  3.9551651221826639e-01  4.9545695399848722e-01  5.9924983718995528e-01  6.9727330566553114e-01  7.8155933048956905e-01  8.4768827171381522e-01  8.9499464018634645e-01  9.2558687555069441e-01  9.4304068159204735e-01  9.5131195076909059e-01  9.5401469099960967e-01  9.5401206639570624e-01  9.5324408795373250e-01  9.5274203285682801e-01  9.5278542388161369e-01  9.5314455338763682e-01  9.5334797584278197e-01  9.5291921983749961e-01  9.5152736201839050e-01  9.4900565111746826e-01  9.4514377703071184e-01  9.3880760462398971e-01  9.2486970132093116e-01  8.7241067038089126e-01  3.2145934908334922e-01  5.3892992242387278e-02  6.6929489193576733e-02  6.5137119305531677e-02  4.1863037101408179e-02  4.4712773819230479e-02  4.7962114697834450e-02  5.2232636731106646e-02  5.7453246409805828e-02  6.3707820322146017e-02  7.1157474816292351e-02  8.0069905001227015e-02  9.1134505542426275e-02  1.0591767550394972e-01  1.2728813947570330e-01  1.5947600228065695e-01  2.0733914816322235e-01  2.7452317817893057e-01  3.6093277892862513e-01  4.6107818180371929e-01  5.6507364445176300e-01  6.6219316527345251e-01  7.4459770761050992e-01  8.0896611160646170e-01  8.5586535914278028e-01  8.8811936922408097e-01  9.0930220810132356e-01  9.2277587520594917e-01  9.3123303101859889e-01  9.3657839004744359e-01  9.4000413765621338e-01  9.4215428130921608e-01  9.4329695765599109e-01  9.4344185664227698e-01  9.4235739114050232e-01  9.3944223618524292e-01  9.3328674870366157e-01  9.1980078979136326e-01  8.8125801113221647e-01  7.2451778118915899e-01  2.6009002433312756e-01  4.5672931174644160e-02  4.9417474157401518e-02  6.6443347518813187e-02  6.5159000428172048e-02  4.1411578530790978e-02  4.3299882933432940e-02  4.5731225237472674e-02  4.9286890764424732e-02  5.3856475900603495e-02  5.9469112930723364e-02  6.6348324705484865e-02  7.4813184554292783e-02  8.5304739212193892e-02  9.8678935204758830e-02  1.1667049169575591e-01  1.4222555849472218e-01  1.7926375504169922e-01  2.3147504276098130e-01  3.0025809150930000e-01  3.8286744034866993e-01  4.7238589416954785e-01  5.6006123962930066e-01  6.3850552410327377e-01  7.0365775754752202e-01  7.5481834901730671e-01  7.9352405334539333e-01  8.2227268726042768e-01  8.4361438478211837e-01  8.5967429091338732e-01  8.7198408323484500e-01  8.8147429006401101e-01  8.8849650417712300e-01  8.9274410942177385e-01  8.9288330713570740e-01  8.8552028981664543e-01  8.6268476687533557e-01  8.0644516850521464e-01  6.8216709587803814e-01  4.5752151936970564e-01  2.0094317366538256e-01  6.9479547661454838e-02  5.4202556945580502e-02  4.7967059640375682e-02  6.6297186777399389e-02  6.5268093299546401e-02  4.1470964300490382e-02  4.3105078247089333e-02  4.5209986288519736e-02  4.8446850291109712e-02  5.2799554492017911e-02  5.8319183480454111e-02  6.5259937899977138e-02  7.4052993326116562e-02  8.5290331792087420e-02  9.9857711948475272e-02  1.1918703902141670e-01  1.4539056038706402e-01  1.8093072893957951e-01  2.2764332823917130e-01  2.8541549997060672e-01  3.5135953897363931e-01  4.2028938348266420e-01  4.8639995140373593e-01  5.4508821906640470e-01  5.9389452083611693e-01  6.3238530777989754e-01  6.6144748203696779e-01  6.8251151551924027e-01  6.9696214567618986e-01  7.0576500516918483e-01  7.0922613879102192e-01  7.0676836878128602e-01  6.9661466128994320e-01  6.7533496097882240e-01  6.3746453155225868e-01  5.7607995270147216e-01  4.8621700949738156e-01  3.7210408892398078e-01  2.5248200769145518e-01  1.5328438855312035e-01  9.1111578459922765e-02  6.4139416085706724e-02  5.5560305115867403e-02  4.7396119822490999e-02  6.6260864527525734e-02  6.5443261900752447e-02  4.1944892057149991e-02  4.3826315674526897e-02  4.5932843674621721e-02  4.9107413324815406e-02  5.3443315647219672e-02  5.9081224777572855e-02  6.6374964762540012e-02  7.5935293946826202e-02  8.8657964381352608e-02  1.0576398243845637e-01  1.2874957443622778e-01  1.5906100548279090e-01  1.9742630910848424e-01  2.4309444364734420e-01  2.9349624012784459e-01  3.4470724573661393e-01  3.9254525726625439e-01  4.3367551005304983e-01  4.6617899886482800e-01  4.8949387206960804e-01  5.0398439937968142e-01  5.1043367483632018e-01  5.0963024818592328e-01  5.0209537047298225e-01  4.8793954799222250e-01  4.6683732888655533e-01  4.3814869349295377e-01  4.0127184886810974e-01  3.5631639505766571e-01  3.0498163631126685e-01  2.5104179960036266e-01  1.9959013925637176e-01  1.5508599726735836e-01  1.1971334293456587e-01  9.3395502926132828e-02  7.4966800089425648e-02  6.2994111448284304e-02  5.5287406958032831e-02  4.7125018648418192e-02  6.6247635269249816e-02  6.5670929819499055e-02  4.2795394458348769e-02  4.5395925003626762e-02  4.7799224948294701e-02  5.1177189457682848e-02  5.5747550236543833e-02  6.1746078613092739e-02  6.9700479740180649e-02  8.059266634