<?xml version="1.0"?>
<VTKFile type="UnstructuredGrid"  version="0.1"  >
<UnstructuredGrid>
<Piece  NumberOfPoints="1681" NumberOfCells="3200">
<Points>
<DataArray  type="Float64"  NumberOfComponents="3"  format="ascii">0 0 0  0.025 0 0  0.05 0 0  0.075 0 0  0.1 0 0  0.125 0 0  0.15 0 0  0.175 0 0  0.2 0 0  0.225 0 0  0.25 0 0  0.275 0 0  0.3 0 0  0.325 0 0  0.35 0 0  0.375 0 0  0.4 0 0  0.425 0 0  0.45 0 0  0.475 0 0  0.5 0 0  0.525 0 0  0.55 0 0  0.575 0 0  0.6 0 0  0.625 0 0  0.65 0 0  0.675 0 0  0.7 0 0  0.725 0 0  0.75 0 0  0.775 0 0  0.8 0 0  0.825 0 0  0.85 0 0  0.875 0 0  0.9 0 0  0.925 0 0  0.95 0 0  0.975 0 0  1 0 0  0 0.025 0  0.025 0.025 0  0.05 0.025 0  0.075 0.025 0  0.1 0.025 0  0.125 0.025 0  0.15 0.025 0  0.175 0.025 0  0.2 0.025 0  0.225 0.025 0  0.25 0.025 0  0.275 0.025 0  0.3 0.025 0  0.325 0.025 0  0.35 0.025 0  0.375 0.025 0  0.4 0.025 0  0.425 0.025 0  0.45 0.025 0  0.475 0.025 0  0.5 0.025 0  0.525 0.025 0  0.55 0.025 0  0.575 0.025 0  0.6 0.025 0  0.625 0.025 0  0.65 0.025 0  0.675 0.025 0  0.7 0.025 0  0.725 0.025 0  0.75 0.025 0  0.775 0.025 0  0.8 0.025 0  0.825 0.025 0  0.85 0.025 0  0.875 0.025 0  0.9 0.025 0  0.925 0.025 0  0.95 0.025 0  0.975 0.025 0  1 0.025 0  0 0.05 0  0.025 0.05 0  0.05 0.05 0  0.075 0.05 0  0.1 0.05 0  0.125 0.05 0  0.15 0.05 0  0.175 0.05 0  0.2 0.05 0  0.225 0.05 0  0.25 0.05 0  0.275 0.05 0  0.3 0.05 0  0.325 0.05 0  0.35 0.05 0  0.375 0.05 0  0.4 0.05 0  0.425 0.05 0  0.45 0.05 0  0.475 0.05 0  0.5 0.05 0  0.525 0.05 0  0.55 0.05 0  0.575 0.05 0  0.6 0.05 0  0.625 0.05 0  0.65 0.05 0  0.675 0.05 0  0.7 0.05 0  0.725 0.05 0  0.75 0.05 0  0.775 0.05 0  0.8 0.05 0  0.825 0.05 0  0.85 0.05 0  0.875 0.05 0  0.9 0.05 0  0.925 0.05 0  0.95 0.05 0  0.975 0.05 0  1 0.05 0  0 0.075 0  0.025 0.075 0  0.05 0.075 0  0.075 0.075 0  0.1 0.075 0  0.125 0.075 0  0.15 0.075 0  0.175 0.075 0  0.2 0.075 0  0.225 0.075 0  0.25 0.075 0  0.275 0.075 0  0.3 0.075 0  0.325 0.075 0  0.35 0.075 0  0.375 0.075 0  0.4 0.075 0  0.425 0.075 0  0.45 0.075 0  0.475 0.075 0  0.5 0.075 0  0.525 0.075 0  0.55 0.075 0  0.575 0.075 0  0.6 0.075 0  0.625 0.075 0  0.65 0.075 0  0.675 0.075 0  0.7 0.075 0  0.725 0.075 0  0.75 0.075 0  0.775 0.075 0  0.8 0.075 0  0.825 0.075 0  0.85 0.075 0  0.875 0.075 0  0.9 0.075 0  0.925 0.075 0  0.95 0.075 0  0.975 0.075 0  1 0.075 0  0 0.1 0  0.025 0.1 0  0.05 0.1 0  0.075 0.1 0  0.1 0.1 0  0.125 0.1 0  0.15 0.1 0  0.175 0.1 0  0.2 0.1 0  0.225 0.1 0  0.25 0.1 0  0.275 0.1 0  0.3 0.1 0  0.325 0.1 0  0.35 0.1 0  0.375 0.1 0  0.4 0.1 0  0.425 0.1 0  0.45 0.1 0  0.475 0.1 0  0.5 0.1 0  0.525 0.1 0  0.55 0.1 0  0.575 0.1 0  0.6 0.1 0  0.625 0.1 0  0.65 0.1 0  0.675 0.1 0  0.7 0.1 0  0.725 0.1 0  0.75 0.1 0  0.775 0.1 0  0.8 0.1 0  0.825 0.1 0  0.85 0.1 0  0.875 0.1 0  0.9 0.1 0  0.925 0.1 0  0.95 0.1 0  0.975 0.1 0  1 0.1 0  0 0.125 0  0.025 0.125 0  0.05 0.125 0  0.075 0.125 0  0.1 0.125 0  0.125 0.125 0  0.15 0.125 0  0.175 0.125 0  0.2 0.125 0  0.225 0.125 0  0.25 0.125 0  0.275 0.125 0  0.3 0.125 0  0.325 0.125 0  0.35 0.125 0  0.375 0.125 0  0.4 0.125 0  0.425 0.125 0  0.45 0.125 0  0.475 0.125 0  0.5 0.125 0  0.525 0.125 0  0.55 0.125 0  0.575 0.125 0  0.6 0.125 0  0.625 0.125 0  0.65 0.125 0  0.675 0.125 0  0.7 0.125 0  0.725 0.125 0  0.75 0.125 0  0.775 0.125 0  0.8 0.125 0  0.825 0.125 0  0.85 0.125 0  0.875 0.125 0  0.9 0.125 0  0.925 0.125 0  0.95 0.125 0  0.975 0.125 0  1 0.125 0  0 0.15 0  0.025 0.15 0  0.05 0.15 0  0.075 0.15 0  0.1 0.15 0  0.125 0.15 0  0.15 0.15 0  0.175 0.15 0  0.2 0.15 0  0.225 0.15 0  0.25 0.15 0  0.275 0.15 0  0.3 0.15 0  0.325 0.15 0  0.35 0.15 0  0.375 0.15 0  0.4 0.15 0  0.425 0.15 0  0.45 0.15 0  0.475 0.15 0  0.5 0.15 0  0.525 0.15 0  0.55 0.15 0  0.575 0.15 0  0.6 0.15 0  0.625 0.15 0  0.65 0.15 0  0.675 0.15 0  0.7 0.15 0  0.725 0.15 0  0.75 0.15 0  0.775 0.15 0  0.8 0.15 0  0.825 0.15 0  0.85 0.15 0  0.875 0.15 0  0.9 0.15 0  0.925 0.15 0  0.95 0.15 0  0.975 0.15 0  1 0.15 0  0 0.175 0  0.025 0.175 0  0.05 0.175 0  0.075 0.175 0  0.1 0.175 0  0.125 0.175 0  0.15 0.175 0  0.175 0.175 0  0.2 0.175 0  0.225 0.175 0  0.25 0.175 0  0.275 0.175 0  0.3 0.175 0  0.325 0.175 0  0.35 0.175 0  0.375 0.175 0  0.4 0.175 0  0.425 0.175 0  0.45 0.175 0  0.475 0.175 0  0.5 0.175 0  0.525 0.175 0  0.55 0.175 0  0.575 0.175 0  0.6 0.175 0  0.625 0.175 0  0.65 0.175 0  0.675 0.175 0  0.7 0.175 0  0.725 0.175 0  0.75 0.175 0  0.775 0.175 0  0.8 0.175 0  0.825 0.175 0  0.85 0.175 0  0.875 0.175 0  0.9 0.175 0  0.925 0.175 0  0.95 0.175 0  0.975 0.175 0  1 0.175 0  0 0.2 0  0.025 0.2 0  0.05 0.2 0  0.075 0.2 0  0.1 0.2 0  0.125 0.2 0  0.15 0.2 0  0.175 0.2 0  0.2 0.2 0  0.225 0.2 0  0.25 0.2 0  0.275 0.2 0  0.3 0.2 0  0.325 0.2 0  0.35 0.2 0  0.375 0.2 0  0.4 0.2 0  0.425 0.2 0  0.45 0.2 0  0.475 0.2 0  0.5 0.2 0  0.525 0.2 0  0.55 0.2 0  0.575 0.2 0  0.6 0.2 0  0.625 0.2 0  0.65 0.2 0  0.675 0.2 0  0.7 0.2 0  0.725 0.2 0  0.75 0.2 0  0.775 0.2 0  0.8 0.2 0  0.825 0.2 0  0.85 0.2 0  0.875 0.2 0  0.9 0.2 0  0.925 0.2 0  0.95 0.2 0  0.975 0.2 0  1 0.2 0  0 0.225 0  0.025 0.225 0  0.05 0.225 0  0.075 0.225 0  0.1 0.225 0  0.125 0.225 0  0.15 0.225 0  0.175 0.225 0  0.2 0.225 0  0.225 0.225 0  0.25 0.225 0  0.275 0.225 0  0.3 0.225 0  0.325 0.225 0  0.35 0.225 0  0.375 0.225 0  0.4 0.225 0  0.425 0.225 0  0.45 0.225 0  0.475 0.225 0  0.5 0.225 0  0.525 0.225 0  0.55 0.225 0  0.575 0.225 0  0.6 0.225 0  0.625 0.225 0  0.65 0.225 0  0.675 0.225 0  0.7 0.225 0  0.725 0.225 0  0.75 0.225 0  0.775 0.225 0  0.8 0.225 0  0.825 0.225 0  0.85 0.225 0  0.875 0.225 0  0.9 0.225 0  0.925 0.225 0  0.95 0.225 0  0.975 0.225 0  1 0.225 0  0 0.25 0  0.025 0.25 0  0.05 0.25 0  0.075 0.25 0  0.1 0.25 0  0.125 0.25 0  0.15 0.25 0  0.175 0.25 0  0.2 0.25 0  0.225 0.25 0  0.25 0.25 0  0.275 0.25 0  0.3 0.25 0  0.325 0.25 0  0.35 0.25 0  0.375 0.25 0  0.4 0.25 0  0.425 0.25 0  0.45 0.25 0  0.475 0.25 0  0.5 0.25 0  0.525 0.25 0  0.55 0.25 0  0.575 0.25 0  0.6 0.25 0  0.625 0.25 0  0.65 0.25 0  0.675 0.25 0  0.7 0.25 0  0.725 0.25 0  0.75 0.25 0  0.775 0.25 0  0.8 0.25 0  0.825 0.25 0  0.85 0.25 0  0.875 0.25 0  0.9 0.25 0  0.925 0.25 0  0.95 0.25 0  0.975 0.25 0  1 0.25 0  0 0.275 0  0.025 0.275 0  0.05 0.275 0  0.075 0.275 0  0.1 0.275 0  0.125 0.275 0  0.15 0.275 0  0.175 0.275 0  0.2 0.275 0  0.225 0.275 0  0.25 0.275 0  0.275 0.275 0  0.3 0.275 0  0.325 0.275 0  0.35 0.275 0  0.375 0.275 0  0.4 0.275 0  0.425 0.275 0  0.45 0.275 0  0.475 0.275 0  0.5 0.275 0  0.525 0.275 0  0.55 0.275 0  0.575 0.275 0  0.6 0.275 0  0.625 0.275 0  0.65 0.275 0  0.675 0.275 0  0.7 0.275 0  0.725 0.275 0  0.75 0.275 0  0.775 0.275 0  0.8 0.275 0  0.825 0.275 0  0.85 0.275 0  0.875 0.275 0  0.9 0.275 0  0.925 0.275 0  0.95 0.275 0  0.975 0.275 0  1 0.275 0  0 0.3 0  0.025 0.3 0  0.05 0.3 0  0.075 0.3 0  0.1 0.3 0  0.125 0.3 0  0.15 0.3 0  0.175 0.3 0  0.2 0.3 0  0.225 0.3 0  0.25 0.3 0  0.275 0.3 0  0.3 0.3 0  0.325 0.3 0  0.35 0.3 0  0.375 0.3 0  0.4 0.3 0  0.425 0.3 0  0.45 0.3 0  0.475 0.3 0  0.5 0.3 0  0.525 0.3 0  0.55 0.3 0  0.575 0.3 0  0.6 0.3 0  0.625 0.3 0  0.65 0.3 0  0.675 0.3 0  0.7 0.3 0  0.725 0.3 0  0.75 0.3 0  0.775 0.3 0  0.8 0.3 0  0.825 0.3 0  0.85 0.3 0  0.875 0.3 0  0.9 0.3 0  0.925 0.3 0  0.95 0.3 0  0.975 0.3 0  1 0.3 0  0 0.325 0  0.025 0.325 0  0.05 0.325 0  0.075 0.325 0  0.1 0.325 0  0.125 0.325 0  0.15 0.325 0  0.175 0.325 0  0.2 0.325 0  0.225 0.325 0  0.25 0.325 0  0.275 0.325 0  0.3 0.325 0  0.325 0.325 0  0.35 0.325 0  0.375 0.325 0  0.4 0.325 0  0.425 0.325 0  0.45 0.325 0  0.475 0.325 0  0.5 0.325 0  0.525 0.325 0  0.55 0.325 0  0.575 0.325 0  0.6 0.325 0  0.625 0.325 0  0.65 0.325 0  0.675 0.325 0  0.7 0.325 0  0.725 0.325 0  0.75 0.325 0  0.775 0.325 0  0.8 0.325 0  0.825 0.325 0  0.85 0.325 0  0.875 0.325 0  0.9 0.325 0  0.925 0.325 0  0.95 0.325 0  0.975 0.325 0  1 0.325 0  0 0.35 0  0.025 0.35 0  0.05 0.35 0  0.075 0.35 0  0.1 0.35 0  0.125 0.35 0  0.15 0.35 0  0.175 0.35 0  0.2 0.35 0  0.225 0.35 0  0.25 0.35 0  0.275 0.35 0  0.3 0.35 0  0.325 0.35 0  0.35 0.35 0  0.375 0.35 0  0.4 0.35 0  0.425 0.35 0  0.45 0.35 0  0.475 0.35 0  0.5 0.35 0  0.525 0.35 0  0.55 0.35 0  0.575 0.35 0  0.6 0.35 0  0.625 0.35 0  0.65 0.35 0  0.675 0.35 0  0.7 0.35 0  0.725 0.35 0  0.75 0.35 0  0.775 0.35 0  0.8 0.35 0  0.825 0.35 0  0.85 0.35 0  0.875 0.35 0  0.9 0.35 0  0.925 0.35 0  0.95 0.35 0  0.975 0.35 0  1 0.35 0  0 0.375 0  0.025 0.375 0  0.05 0.375 0  0.075 0.375 0  0.1 0.375 0  0.125 0.375 0  0.15 0.375 0  0.175 0.375 0  0.2 0.375 0  0.225 0.375 0  0.25 0.375 0  0.275 0.375 0  0.3 0.375 0  0.325 0.375 0  0.35 0.375 0  0.375 0.375 0  0.4 0.375 0  0.425 0.375 0  0.45 0.375 0  0.475 0.375 0  0.5 0.375 0  0.525 0.375 0  0.55 0.375 0  0.575 0.375 0  0.6 0.375 0  0.625 0.375 0  0.65 0.375 0  0.675 0.375 0  0.7 0.375 0  0.725 0.375 0  0.75 0.375 0  0.775 0.375 0  0.8 0.375 0  0.825 0.375 0  0.85 0.375 0  0.875 0.375 0  0.9 0.375 0  0.925 0.375 0  0.95 0.375 0  0.975 0.375 0  1 0.375 0  0 0.4 0  0.025 0.4 0  0.05 0.4 0  0.075 0.4 0  0.1 0.4 0  0.125 0.4 0  0.15 0.4 0  0.175 0.4 0  0.2 0.4 0  0.225 0.4 0  0.25 0.4 0  0.275 0.4 0  0.3 0.4 0  0.325 0.4 0  0.35 0.4 0  0.375 0.4 0  0.4 0.4 0  0.425 0.4 0  0.45 0.4 0  0.475 0.4 0  0.5 0.4 0  0.525 0.4 0  0.55 0.4 0  0.575 0.4 0  0.6 0.4 0  0.625 0.4 0  0.65 0.4 0  0.675 0.4 0  0.7 0.4 0  0.725 0.4 0  0.75 0.4 0  0.775 0.4 0  0.8 0.4 0  0.825 0.4 0  0.85 0.4 0  0.875 0.4 0  0.9 0.4 0  0.925 0.4 0  0.95 0.4 0  0.975 0.4 0  1 0.4 0  0 0.425 0  0.025 0.425 0  0.05 0.425 0  0.075 0.425 0  0.1 0.425 0  0.125 0.425 0  0.15 0.425 0  0.175 0.425 0  0.2 0.425 0  0.225 0.425 0  0.25 0.425 0  0.275 0.425 0  0.3 0.425 0  0.325 0.425 0  0.35 0.425 0  0.375 0.425 0  0.4 0.425 0  0.425 0.425 0  0.45 0.425 0  0.475 0.425 0  0.5 0.425 0  0.525 0.425 0  0.55 0.425 0  0.575 0.425 0  0.6 0.425 0  0.625 0.425 0  0.65 0.425 0  0.675 0.425 0  0.7 0.425 0  0.725 0.425 0  0.75 0.425 0  0.775 0.425 0  0.8 0.425 0  0.825 0.425 0  0.85 0.425 0  0.875 0.425 0  0.9 0.425 0  0.925 0.425 0  0.95 0.425 0  0.975 0.425 0  1 0.425 0  0 0.45 0  0.02
[...]
<PointData  Scalars="ControlVisualisation"> 
<DataArray  type="Float64"  Name="ControlVisualisation"  format="ascii">2.7273729040548189e-01  2.1931638008185114e-01  2.1949693732128636e-01  2.1997755486125983e-01  2.2073059345145093e-01  2.2165490366591351e-01  2.2263230279703874e-01  2.2356496548045884e-01  2.2439003895911958e-01  2.2507638598368285e-01  2.2561509923672196e-01  2.2601050249032495e-01  2.2627374996000721e-01  2.2641884514563534e-01  2.2646036314084100e-01  2.2641224784145086e-01  2.2628725433243257e-01  2.2609676661488162e-01  2.2585082516720631e-01  2.2555826361856629e-01  2.2522689421649714e-01  2.2486370716049248e-01  2.2447506460050129e-01  2.2406687935941219e-01  2.2364477336589580e-01  2.2321421289622484e-01  2.2278061813660455e-01  2.2234944411323893e-01  2.2192622934570183e-01  2.2151660815453189e-01  2.2112628296282469e-01  2.2076095402805287e-01  2.2042620783262395e-01  2.2012736656181911e-01  2.1986931678814370e-01  2.1965633323783662e-01  2.1949203378347029e-01  2.1937946925668680e-01  2.1932059053936567e-01  2.1930923890785453e-01  3.3353258469842451e-01  2.1931158909728887e-01  1.1330803947247527e-01  1.1436813622010675e-01  1.1658872966558467e-01  1.2004253534540482e-01  1.2447090659222275e-01  1.2945149109261300e-01  1.3454311239943229e-01  1.3937500608815950e-01  1.4368434225566515e-01  1.4731480985317782e-01  1.5019647171499573e-01  1.5232129822530238e-01  1.5372136960353694e-01  1.5445204801617857e-01  1.5458011491733933e-01  1.5417601795179880e-01  1.5330919977251906e-01  1.5204558092614068e-01  1.5044645706182802e-01  1.4856826643138626e-01  1.4646285256256769e-01  1.4417797730248033e-01  1.4175793145219767e-01  1.3924415023192677e-01  1.3667577704687661e-01  1.3409013928854732e-01  1.3152311059122410e-01  1.2900933993528610e-01  1.2658233265670848e-01  1.2427437440455830e-01  1.2211629699499649e-01  1.2013709917544231e-01  1.1836344186913919e-01  1.1681908519930270e-01  1.1552430409868950e-01  1.1449548833199698e-01  1.1374439629126651e-01  1.1327280256795347e-01  1.1304335135981816e-01  2.1930923458848980e-01  2.1944230110097612e-01  1.1430563447286349e-01  1.1714941645261838e-01  1.2196331873206687e-01  1.2929445563728303e-01  1.3881161777296341e-01  1.4968235521884610e-01  1.6091242765982000e-01  1.7160173545141466e-01  1.8108693674273307e-01  1.8896988860160363e-01  1.9507765780768432e-01  1.9939962676105616e-01  2.0202835301151792e-01  2.0311398866540553e-01  2.0283296967514197e-01  2.0136829929932565e-01  1.9889815939925548e-01  1.9559004648200967e-01  1.9159833771136231e-01  1.8706384111028962e-01  1.8211438957421539e-01  1.7686589906225711e-01  1.7142355319063640e-01  1.6588293024832598e-01  1.6033098201532880e-01  1.5484682834674515e-01  1.4950236265616410e-01  1.4436268122946455e-01  1.3948635960060043e-01  1.3492560572771151e-01  1.3072632277994273e-01  1.2692812019954355e-01  1.2356430306100206e-01  1.2066191121935380e-01  1.1824170537727464e-01  1.1631798391246986e-01  1.1489423334165193e-01  1.1393585239932952e-01  1.1327321791827784e-01  2.1932055017213431e-01  2.1976472675507694e-01  1.1644607948168019e-01  1.2248582388668564e-01  1.3064915148217376e-01  1.4182969885695146e-01  1.5542698361833890e-01  1.7010472874864474e-01  1.8451671509589784e-01  1.9762634388043621e-01  2.0877948328826743e-01  2.1765116993378120e-01  2.2415817618474332e-01  2.2837688013436869e-01  2.3047906631551812e-01  2.3068643225717322e-01  2.2924055952715944e-01  2.2638431314946922e-01  2.2235109657926033e-01  2.1735922133053767e-01  2.1160945065175962e-01  2.0528441265862346e-01  1.9854903892182821e-01  1.9155150154671996e-01  1.8442433344610940e-01  1.7728555502250945e-01  1.7023971975933677e-01  1.6337884780369569e-01  1.5678325115740277e-01  1.5052227315958905e-01  1.4465497248954806e-01  1.3923078136449063e-01  1.3429016029862711e-01  1.2986526624413391e-01  1.2598062845494934e-01  1.2265383596855213e-01  1.1989592653708082e-01  1.1771033201197463e-01  1.1608086277457703e-01  1.1490360483491403e-01  1.1374870803811922e-01  2.1937954093267456e-01  2.2022607819958864e-01  1.2020169442591996e-01  1.3465024370479634e-01  1.5067730415359093e-01  1.6831555882809768e-01  1.8623750600265948e-01  2.0301030646376672e-01  2.1770237766665335e-01  2.2987926112698143e-01  2.3941097265125222e-01  2.4633650923552564e-01  2.5079324120805474e-01  2.5297721376552312e-01  2.5311728809425382e-01  2.5145711249659924e-01  2.4824275654377179e-01  2.4371454633286654e-01  2.3810187018599693e-01  2.3162001764027015e-01  2.2446840858381362e-01  2.1682978418533383e-01  2.0887006234665731e-01  2.0073863817938345e-01  1.9256896275352370e-01  1.8447927670070213e-01  1.7657341443233324e-01  1.6894162952840028e-01  1.6166142007881304e-01  1.5479835237338421e-01  1.4840689126605269e-01  1.4253124692800406e-01  1.3720624116050986e-01  1.3245819028526756e-01  1.2830577099150584e-01  1.2476080757794202e-01  1.2182837838845335e-01  1.1950365488176729e-01  1.1774816708059560e-01  1.1636007403808445e-01  1.1451447940328655e-01  2.1949331164144398e-01  2.2102440979104063e-01  1.3220091693998476e-01  1.7208827337044047e-01  2.0706974155047492e-01  2.3203872828551514e-01  2.4958239570493479e-01  2.6190856071397745e-01  2.7052102292903696e-01  2.7634032514724877e-01  2.7987604889016315e-01  2.8142160835813851e-01  2.8118206731686890e-01  2.7933452278144372e-01  2.7604945825914579e-01  2.7149599106973382e-01  2.6584224756090657e-01  2.5925453162428735e-01  2.5189604513825709e-01  2.4392530260376388e-01  2.3549442494601863e-01  2.2674754833734545e-01  2.1781953148972794e-01  2.0883504415245946e-01  1.9990802938467050e-01  1.9114147814224247e-01  1.8262743701726128e-01  1.7444717755562994e-01  1.6667147556987813e-01  1.5936097078068762e-01  1.5256659406541839e-01  1.4633005897415277e-01  1.4068441390798669e-01  1.3565464710199693e-01  1.3125829301995096e-01  1.2750589218811126e-01  1.2440026951065168e-01  1.2192996553629167e-01  1.2002895899094991e-01  1.1836428994742069e-01  1.1558076368874654e-01  2.1966171348985458e-01  2.4357137898180575e-01  2.0883200195675386e-01  3.2608463713015784e-01  3.7219909515411531e-01  3.7935242268943326e-01  3.7263171337807433e-01  3.6219348529157969e-01  3.5183886391490587e-01  3.4252303525754874e-01  3.3410150143826639e-01  3.2616629322714230e-01  3.1836073552299005e-01  3.1044825333233028e-01  3.0229411179168425e-01  2.9383312947798784e-01  2.8504588366707284e-01  2.7594465140223334e-01  2.6656511267160765e-01  2.5696057160111968e-01  2.4719715201339448e-01  2.3734953172771794e-01  2.2749722374190051e-01  2.1772148095973443e-01  2.0810283550888314e-01  1.9871920858683009e-01  1.8964448498284775e-01  1.8094744048274627e-01  1.7269092866964289e-01  1.6493126278902015e-01  1.5771775749756584e-01  1.5109241798390455e-01  1.4508977407105478e-01  1.3973685469972175e-01  1.3505322956914811e-01  1.3105082628291634e-01  1.2773180039726595e-01  1.2507682202313791e-01  1.2298265053105348e-01  1.2094745295372440e-01  1.1695229002746320e-01  2.1988430194634531e-01  5.8481706966449165e-01  6.8556529978938396e-01  7.4418501283113947e-01  6.9999111655157398e-01  6.3311311625491451e-01  5.6650562857838616e-01  5.0946018165878060e-01  4.6439769033551648e-01  4.2981083950395921e-01  4.0295741568161025e-01  3.8135948528528057e-01  3.6322542667990260e-01  3.4737634588084698e-01  3.3305774491621937e-01  3.1978086507823855e-01  3.0722066086742372e-01  2.9515781453528445e-01  2.8344666925579987e-01  2.7199622484020536e-01  2.6075729200534453e-01  2.4971273690369866e-01  2.3886963389718263e-01  2.2825288101671151e-01  2.1790004424809148e-01  2.0785722592254713e-01  1.9817574786224676e-01  1.8890945051375058e-01  1.8011244177830504e-01  1.7183717597040576e-01  1.6413279355631283e-01  1.5704369688216738e-01  1.5060836489425919e-01  1.4485841135401284e-01  1.3981777951508922e-01  1.3550154421485003e-01  1.3191154200264799e-01  1.2901713197782430e-01  1.2666426020793273e-01  1.2414051303579147e-01  1.1863318041397775e-01  2.2016074179170766e-01  9.8156929130340331e-01  9.9555956386847611e-01  9.9819644302596833e-01  9.5850484092737487e-01  8.8026686401312326e-01  7.7920702561377297e-01  6.7990422742661039e-01  5.9669718920269366e-01  5.3215382658625432e-01  4.8303711312239922e-01  4.4504535448994892e-01  4.1470915841767531e-01  3.8963601650056690e-01  3.6825189898798344e-01  3.4951408639192832e-01  3.3270978278224050e-01  3.1733585246234958e-01  3.0303084264861530e-01  2.8953553555587253e-01  2.7666795962366258e-01  2.6430584940512192e-01  2.5237338898599038e-01  2.4083082265940628e-01  2.2966620526967893e-01  2.1888880699634305e-01  2.0852377726468380e-01  1.9860772897609480e-01  1.8918496628776826e-01  1.8030415325334229e-01  1.7201530099972248e-01  1.6436702798125646e-01  1.5740410385462322e-01  1.5116529658521219e-01  1.4568136364076362e-01  1.4097228830405953e-01  1.3703943544004762e-01  1.3383558128303999e-01  1.3113823788803314e-01  1.2797884314089286e-01  1.2062704121988427e-01  2.2049055539240131e-01  9.9324905453019974e-01  9.9231588801690607e-01  9.8907384389026742e-01  9.8614992903585730e-01  9.7406998349929763e-01  9.1871114536198939e-01  8.2363649985514553e-01  7.2244213363756526e-01  6.3529768652338303e-01  5.6620757707097413e-01  5.1235420994737280e-01  4.6979920023291394e-01  4.3533902484470560e-01  4.0670318790034043e-01  3.8232822937615474e-01  3.6112089000467196e-01  3.4229504014324635e-01  3.2527276881685574e-01  3.0962536581096539e-01  2.9503619051334462e-01  2.8127532088294832e-01  2.6818098222827097e-01  2.5564534920922821e-01  2.4360345779380227e-01  2.3202442749431920e-01  2.2090438666386558e-01  2.1026059853423962e-01  2.0012637581588383e-01  1.9054647134948463e-01  1.8157274445188817e-01  1.7326001911335281e-01  1.6566214599322363e-01  1.5882830259529923e-01  1.5279928882179716e-01  1.4760236696021817e-01  1.4323814742080046e-01  1.3963564816202095e-01  1.3648177556609767e-01  1.3250267197467913e-01  1.2293655334633159e-01  2.2087297684702345e-01  9.9212990355587571e-01  9.9643834400093789e-01  9.9073672239867339e-01  9.8443457806445223e-01  9.8222020264771159e-01  9.6694587996062487e-01  9.0712971177263646e-01  8.1551015104363189e-01  7.2208758482700697e-01  6.4159238312722944e-01  5.7631124323520067e-01  5.2391450165224462e-01  4.8140732779998957e-01  4.4630887823569948e-01  4.1677380798344277e-01  3.9145377067053538e-01  3.6935089518869813e-01  3.4971407821869877e-01  3.3197235429985794e-01  3.1569157370908807e-01  3.0054455327980817e-01  2.8628925769106939e-01  2.7275221922061060e-01  2.5981568193992005e-01  2.4740750208388368e-01  2.3549306214008775e-01  2.2406856741416761e-01  2.1315518137451378e-01  2.0279355798276461e-01  1.9303845843714848e-01  1.8395329257664905e-01  1.7560456817588252e-01  1.6805627254036423e-01  1.6136379646277493e-01  1.5556514632600790e-01  1.5065999714256326e-01  1.4654428413293971e-01  1.4278704070017906e-01  1.3775726714732739e-01  1.2556314399735027e-01  2.2130692875100236e-01  9.9078470357655779e-01  9.9392738427735960e-01  9.8971764338694079e-01  9.8373734535061907e-01  9.8044841410475858e-01  9.7372576962995261e-01  9.3813292756910971e-01  8.6653945287426404e-01  7.8080694931730288e-01  6.9951822932783714e-01  6.2973100446886321e-01  5.7185410839523787e-01  5.2407455790115587e-01  4.8431909772668952e-01  4.5082613753332784e-01  4.2220932006817657e-01  3.9739216157378437e-01  3.7553509396630352e-01  3.5598030036457506e-01  3.3821274002832585e-01  3.2183195932017572e-01  3.0653086622401088e-01  2.9207932519283625e-01  2.7831135407255830e-01  2.6511509386354787e-01  2.5242485308005314e-01  2.4021456617171799e-01  2.2849203134626131e-01  2.1729334846964221e-01  2.0667708489677736e-01  1.9671786125335056e-01  1.8749923100128713e-01  1.7910578385982953e-01  1.7161380220469816e-01  1.6507705971526598e-01  1.5949444840720228e-01  1.5471713065486936e-01  1.5016364784747405e-01  1.4379310828322509e-01  1.2850662027242049e-01  2.2179100491389792e-01  9.5068440195489057e-01  9.9306723103228389e-01  9.9276316388795838e-01  9.8085628711779416e-01  9.7459171515999665e-01  9.6521119840287484e-01  9.3682469499699983e-01  8.8089113890724136e-01  8.0858181522443384e-01  7.3459098895325436e-01  6.6723356889898833e-01  6.0902201127094613e-01  5.5962093160853366e-01  5.1778098175543208e-01  4.8215613060411683e-01  4.5155455902340874e-01  4.2497933914495539e-01  4.0161029723644887e-01  3.8077700930839609e-01  3.6193486953287390e-01  3.4464540130059995e-01  3.2856011886417652e-01  3.1340736643246048e-01  2.9898176997915421e-01  2.8513596296070765e-01  2.7177416110338187e-01  2.5884704224463650e-01  2.4634728170247111e-01  2.3430503444508344e-01  2.2278267265271157e-01  2.1186820110589502e-01  2.0166694738127222e-01  1.9229116052815454e-01  1.8384629027731841e-01  1.7640886537957196e-01  1.6997776175508389e-01  1.6434530303575728e-01  1.5874195823497933e-01  1.5066636431390085e-01  1.3176482006338885e-01  2.2232345724964792e-01  4.6209479461159830e-01  9.0349052166474020e-01  9.7222897263051500e-01  9.6116274462963358e-01  9.5097611160683404e-01  9.3745715469483515e-01  9.1077753957266316e-01  8.6607012046102450e-01  8.0813625507906606e-01  7.4591163816948103e-01  6.8623841665344187e-01  6.3236666173681599e-01  5.8508872677900658e-01  5.4404518673217794e-01  5.0847727765448714e-01  4.7755473171015816e-01  4.5049529763186835e-01  4.2660114343872951e-01  4.0526593857371673e-01  3.8597194132478435e-01  3.6828354910736866e-01  3.5183978079993000e-01  3.3634697152868215e-01  3.2157244978507071e-01  3.0733958691975855e-01  2.9352426500039164e-01  2.8005249255237419e-01  2.6689861096686351e-01  2.5408329164944421e-01  2.4167035758036290e-01  2.2976141272794892e-01  2.1848731298081248e-01  2.0799541373132946e-01  1.9843026628629262e-01  1.8990023302838138e-01  1.8240583824686357e-01  1.7566454240051241e-01  1.6867776274155011e-01  1.5844002701265356e-01  1.3533334661738705e-01  2.2290218027577013e-01  2.4700763963452826e-01  4.2444514412618878e-01  7.6425298171510203e-01  8.6072316724314935e-01  8.8038010918791121e-01  8.7729552386642451e-01  8.5899109326055989e-01  8.2676869745790416e-01  7.8381838513096525e-01  7.3549656456133239e-01  6.8675796464149852e-01  6.4070405858040813e-01  5.9872931707066179e-01  5.6118205145279443e-01  5.2788574483649275e-01  4.9843371923284269e-01  4.7233579207215370e-01  4.4908922392950995e-01  4.2821366992026355e-01  4.0926833706461097e-01  3.9185960247378737e-01  3.7564339169059358e-01  3.6032497787606521e-01  3.4565797829592276e-01  3.3144369150421954e-01  3.1753139225310922e-01  3.0381972356170106e-01  2.9025885993347428e-01  2.7685264764497414e-01  2.6365947590391225e-01  2.5079025071310962e-01  2.3840153411966561e-01  2.2668139320124103e-01  2.1582355819326859e-01  2.0597870358064924e-01  1.9715162267535341e-01  1.8896804557053956e-01  1.8015944372266002e-01  1.6718648139696146e-01  1.3920558462501348e-01  2.2352469987639687e-01  2.3392840891880784e-01  2.5919815655541556e-01  5.4580753555911132e-01  6.9851128567231724e-01  7.6377228603741043e-01  7.8560286360638121e-01  7.8427938861715973e-01  7.6773475067395558e-01  7.4052366187408392e-01  7.0690547433096329e-01  6.7066667396454238e-01  6.3452863656064906e-01  6.0010739191816898e-01  5.6820485302847412e-01  5.3910875783944767e-01  5.1280387291851437e-01  4.8910363370332155e-01  4.6773053094093664e-01  4.4836577655307630e-01  4.3068007599238345e-01  4.1435229963240283e-01  3.9908043087629491e-01  3.8458793191870172e-01  3.7062786824884486e-01  3.5698650764812928e-01  3.4348756613964276e-01  3.2999774988672842e-01  3.1643367380285542e-01  3.0276956476749850e-01  2.8904435521468391e-01  2.7536585837849320e-01  2.6190866048949402e-01  2.4890090597522976e-01  2.3659194368641678e-01  2.2518407244717387e-01  2.1468910039674297e-01  2.0462529796738804e-01  1.9341974044658222e-01  1.7699301335941359e-01  1.4337337845905404e-01  2.2418817545865080e-01  2.3228821512712705e-01  2.1683372191528039e-01  4.1937394269665096e-01  5.5900659244278228e-01  6.4062834485171305e-01  6.8142912613502793e-01  6.9698784550577242e-01  6.9608856553085618e-01  6.8398982325305457e-01  6.6459879466229066e-01  6.4102373375505539e-01  6.1560319942874053e-01  5.8995014640752408e-01  5.6509106138531329e-01  5.4161840555262186e-01  5.1981825193336917e-01  4.9976692900681730e-01  4.8140182839476114e-01  4.6457231408523852e-01  4.4907550641900668e-01  4.3468070372732059e-01  4.2114562220461382e-01  4.0822721476830776e-01  3.9568943968240750e-01  3.8330996997273675e-01  3.7088746149386753e-01  3.5825059260789377e-01  3.4526956658689184e-01  3.3187000978369857e-01  3.1804808325632011e-01  3.0388400873575749e-01  2.8954896143288722e-01  2.7529706440142371e-01  2.6142855005774612e-01  2.4819905054755015e-01  2.3562697642666824e-01  2.2311113906391902e-01  2.0875628604331009e-01  1.8797314297196177e-01  1.4782911705292362e-01  2.2488943352954552e-01  2.3079357697912173e-01  1.9541433462086194e-01  3.4611665375152129e-01  4.5933104741410841e-01  5.3607796906498839e-01  5.8306371607757723e-01  6.0895686307978347e-01  6.1997755605332150e-01  6.2043388410308453e-01  6.1347487879281493e-01  6.0153465869015199e-01  5.8651516886230914e-01  5.6986703162580965e-01  5.5265449005423162e-01  5.3561633369978134e-01  5.1922712887325562e-01  5.0375508179917172e-01  4.8931315632261385e-01  4.7590137018773215e-01  4.6343983141664646e-01  4.5179325047577945e-01  4.4078840736244729e-01  4.3022641478644152e-01  4.1989173527823159e-01  4.0955990215433258e-01  3.9900583164243275e-01  3.8801449046349556e-01  3.7639540457837578e-01  3.6400188093563901e-01  3.5075456985488801e-01  3.3666670262206760e-01  3.2186458102779714e-01  3.0659071571563984e-01  2.9116741938976920e-01  2.7588488061696798e-01  2.6075604943574499e-01  2.4505291036955698e-01  2.2656919201351106e-01  2.0028923150227812e-01  1.5257063640525237e-01  2.2562506744997959e-01  2.2976943241427544e-01  1.8389765242390835e-01  3.0249559269875637e-01  3.9035105961435701e-01  4.5433525146103543e-01  4.9874908612899593e-01  5.2813550641821483e-01  5.4614862746084125e-01  5.5550906785302989e-01  5.5826154191860866e-01  5.5604830174283215e-01  5.5024743273743504e-01  5.4202319334182314e-01  5.3233201572787781e-01  5.2192249236082722e-01  5.1134717672943786e-01  5.0098540129370783e-01  4.9107159698512265e-01  4.8172364254783712e-01  4.7296781799187437e-01  4.6475883642511023e-01  4.5699481318702595e-01  4.4952790436649437e-01  4.4217188200927698e-01  4.3470827407971585e-01  4.2689299665101949e-01  4.1846567308208094e-01  4.0916399018002819e-01  3.9874525600925065e-01  3.8701629631241019e-01  3.7387022941158871e-01  3.5932324969358781e-01  3.4353453393735423e-01  3.2677825117509685e-01  3.0931810775501223e-01  2.9111724490478896e-01  2.7130986376363786e-01  2.4743076802063751e-01  2.1419666877948301e-01  1.5761196049717763e-01  2.2639171427747018e-01  2.2886572695266280e-01  1.7559860348625844e-01  2.7194831492650384e-01  3.4026437624151135e-01  3.9133947018702669e-01  4.2951629415925419e-01  4.5795480134732652e-01  4.7880060808658015e-01  4.9345107957051826e-01  5.0292299181890554e-01  5.0808810839244734e-01  5.0978075698749392e-01  5.0881212358097194e-01  5.0593522163512816e-01  5.0180699281383201e-01  4.9696620926772866e-01  4.9182858076417663e-01  4.8669392218171104e-01  4.8175923352097538e-01  4.7713307020832774e-01  4.7284835062677882e-01  4.6887222333376943e-01  4.6511267993235783e-01  4.6142236785507362e-01  4.5760068092734668e-01  4.5339581762560877e-01  4.4850916658781026e-01  4.4260507464919274e-01  4.3532952432938571e-01  4.2634087606602433e-01  4.1535347706276521e-01  4.0218809554989504e-01  3.8681004963034576e-01  3.6931616842167686e-01  3.4980735022774878e-01  3.2808309289398235e-01  3.0309989079676197e-01  2.7221733391621378e-01  2.3013282976602167e-01  1.6300587485818441e-01  2.2718657275411441e-01  2.2800884490449960e-01  1.6888854156850386e-01  2.4888709718365298e-01  3.0236914228454231e-01  3.4223398341057465e-01  3.7346283820588261e-01  3.9885120233071769e-01  4.1977743350329888e-01  4.368346745