<?xml version="1.0"?>
<VTKFile type="UnstructuredGrid"  version="0.1"  >
<UnstructuredGrid>
<Piece  NumberOfPoints="1681" NumberOfCells="3200">
<Points>
<DataArray  type="Float64"  NumberOfComponents="3"  format="ascii">0 0 0  0.025 0 0  0.05 0 0  0.075 0 0  0.1 0 0  0.125 0 0  0.15 0 0  0.175 0 0  0.2 0 0  0.225 0 0  0.25 0 0  0.275 0 0  0.3 0 0  0.325 0 0  0.35 0 0  0.375 0 0  0.4 0 0  0.425 0 0  0.45 0 0  0.475 0 0  0.5 0 0  0.525 0 0  0.55 0 0  0.575 0 0  0.6 0 0  0.625 0 0  0.65 0 0  0.675 0 0  0.7 0 0  0.725 0 0  0.75 0 0  0.775 0 0  0.8 0 0  0.825 0 0  0.85 0 0  0.875 0 0  0.9 0 0  0.925 0 0  0.95 0 0  0.975 0 0  1 0 0  0 0.025 0  0.025 0.025 0  0.05 0.025 0  0.075 0.025 0  0.1 0.025 0  0.125 0.025 0  0.15 0.025 0  0.175 0.025 0  0.2 0.025 0  0.225 0.025 0  0.25 0.025 0  0.275 0.025 0  0.3 0.025 0  0.325 0.025 0  0.35 0.025 0  0.375 0.025 0  0.4 0.025 0  0.425 0.025 0  0.45 0.025 0  0.475 0.025 0  0.5 0.025 0  0.525 0.025 0  0.55 0.025 0  0.575 0.025 0  0.6 0.025 0  0.625 0.025 0  0.65 0.025 0  0.675 0.025 0  0.7 0.025 0  0.725 0.025 0  0.75 0.025 0  0.775 0.025 0  0.8 0.025 0  0.825 0.025 0  0.85 0.025 0  0.875 0.025 0  0.9 0.025 0  0.925 0.025 0  0.95 0.025 0  0.975 0.025 0  1 0.025 0  0 0.05 0  0.025 0.05 0  0.05 0.05 0  0.075 0.05 0  0.1 0.05 0  0.125 0.05 0  0.15 0.05 0  0.175 0.05 0  0.2 0.05 0  0.225 0.05 0  0.25 0.05 0  0.275 0.05 0  0.3 0.05 0  0.325 0.05 0  0.35 0.05 0  0.375 0.05 0  0.4 0.05 0  0.425 0.05 0  0.45 0.05 0  0.475 0.05 0  0.5 0.05 0  0.525 0.05 0  0.55 0.05 0  0.575 0.05 0  0.6 0.05 0  0.625 0.05 0  0.65 0.05 0  0.675 0.05 0  0.7 0.05 0  0.725 0.05 0  0.75 0.05 0  0.775 0.05 0  0.8 0.05 0  0.825 0.05 0  0.85 0.05 0  0.875 0.05 0  0.9 0.05 0  0.925 0.05 0  0.95 0.05 0  0.975 0.05 0  1 0.05 0  0 0.075 0  0.025 0.075 0  0.05 0.075 0  0.075 0.075 0  0.1 0.075 0  0.125 0.075 0  0.15 0.075 0  0.175 0.075 0  0.2 0.075 0  0.225 0.075 0  0.25 0.075 0  0.275 0.075 0  0.3 0.075 0  0.325 0.075 0  0.35 0.075 0  0.375 0.075 0  0.4 0.075 0  0.425 0.075 0  0.45 0.075 0  0.475 0.075 0  0.5 0.075 0  0.525 0.075 0  0.55 0.075 0  0.575 0.075 0  0.6 0.075 0  0.625 0.075 0  0.65 0.075 0  0.675 0.075 0  0.7 0.075 0  0.725 0.075 0  0.75 0.075 0  0.775 0.075 0  0.8 0.075 0  0.825 0.075 0  0.85 0.075 0  0.875 0.075 0  0.9 0.075 0  0.925 0.075 0  0.95 0.075 0  0.975 0.075 0  1 0.075 0  0 0.1 0  0.025 0.1 0  0.05 0.1 0  0.075 0.1 0  0.1 0.1 0  0.125 0.1 0  0.15 0.1 0  0.175 0.1 0  0.2 0.1 0  0.225 0.1 0  0.25 0.1 0  0.275 0.1 0  0.3 0.1 0  0.325 0.1 0  0.35 0.1 0  0.375 0.1 0  0.4 0.1 0  0.425 0.1 0  0.45 0.1 0  0.475 0.1 0  0.5 0.1 0  0.525 0.1 0  0.55 0.1 0  0.575 0.1 0  0.6 0.1 0  0.625 0.1 0  0.65 0.1 0  0.675 0.1 0  0.7 0.1 0  0.725 0.1 0  0.75 0.1 0  0.775 0.1 0  0.8 0.1 0  0.825 0.1 0  0.85 0.1 0  0.875 0.1 0  0.9 0.1 0  0.925 0.1 0  0.95 0.1 0  0.975 0.1 0  1 0.1 0  0 0.125 0  0.025 0.125 0  0.05 0.125 0  0.075 0.125 0  0.1 0.125 0  0.125 0.125 0  0.15 0.125 0  0.175 0.125 0  0.2 0.125 0  0.225 0.125 0  0.25 0.125 0  0.275 0.125 0  0.3 0.125 0  0.325 0.125 0  0.35 0.125 0  0.375 0.125 0  0.4 0.125 0  0.425 0.125 0  0.45 0.125 0  0.475 0.125 0  0.5 0.125 0  0.525 0.125 0  0.55 0.125 0  0.575 0.125 0  0.6 0.125 0  0.625 0.125 0  0.65 0.125 0  0.675 0.125 0  0.7 0.125 0  0.725 0.125 0  0.75 0.125 0  0.775 0.125 0  0.8 0.125 0  0.825 0.125 0  0.85 0.125 0  0.875 0.125 0  0.9 0.125 0  0.925 0.125 0  0.95 0.125 0  0.975 0.125 0  1 0.125 0  0 0.15 0  0.025 0.15 0  0.05 0.15 0  0.075 0.15 0  0.1 0.15 0  0.125 0.15 0  0.15 0.15 0  0.175 0.15 0  0.2 0.15 0  0.225 0.15 0  0.25 0.15 0  0.275 0.15 0  0.3 0.15 0  0.325 0.15 0  0.35 0.15 0  0.375 0.15 0  0.4 0.15 0  0.425 0.15 0  0.45 0.15 0  0.475 0.15 0  0.5 0.15 0  0.525 0.15 0  0.55 0.15 0  0.575 0.15 0  0.6 0.15 0  0.625 0.15 0  0.65 0.15 0  0.675 0.15 0  0.7 0.15 0  0.725 0.15 0  0.75 0.15 0  0.775 0.15 0  0.8 0.15 0  0.825 0.15 0  0.85 0.15 0  0.875 0.15 0  0.9 0.15 0  0.925 0.15 0  0.95 0.15 0  0.975 0.15 0  1 0.15 0  0 0.175 0  0.025 0.175 0  0.05 0.175 0  0.075 0.175 0  0.1 0.175 0  0.125 0.175 0  0.15 0.175 0  0.175 0.175 0  0.2 0.175 0  0.225 0.175 0  0.25 0.175 0  0.275 0.175 0  0.3 0.175 0  0.325 0.175 0  0.35 0.175 0  0.375 0.175 0  0.4 0.175 0  0.425 0.175 0  0.45 0.175 0  0.475 0.175 0  0.5 0.175 0  0.525 0.175 0  0.55 0.175 0  0.575 0.175 0  0.6 0.175 0  0.625 0.175 0  0.65 0.175 0  0.675 0.175 0  0.7 0.175 0  0.725 0.175 0  0.75 0.175 0  0.775 0.175 0  0.8 0.175 0  0.825 0.175 0  0.85 0.175 0  0.875 0.175 0  0.9 0.175 0  0.925 0.175 0  0.95 0.175 0  0.975 0.175 0  1 0.175 0  0 0.2 0  0.025 0.2 0  0.05 0.2 0  0.075 0.2 0  0.1 0.2 0  0.125 0.2 0  0.15 0.2 0  0.175 0.2 0  0.2 0.2 0  0.225 0.2 0  0.25 0.2 0  0.275 0.2 0  0.3 0.2 0  0.325 0.2 0  0.35 0.2 0  0.375 0.2 0  0.4 0.2 0  0.425 0.2 0  0.45 0.2 0  0.475 0.2 0  0.5 0.2 0  0.525 0.2 0  0.55 0.2 0  0.575 0.2 0  0.6 0.2 0  0.625 0.2 0  0.65 0.2 0  0.675 0.2 0  0.7 0.2 0  0.725 0.2 0  0.75 0.2 0  0.775 0.2 0  0.8 0.2 0  0.825 0.2 0  0.85 0.2 0  0.875 0.2 0  0.9 0.2 0  0.925 0.2 0  0.95 0.2 0  0.975 0.2 0  1 0.2 0  0 0.225 0  0.025 0.225 0  0.05 0.225 0  0.075 0.225 0  0.1 0.225 0  0.125 0.225 0  0.15 0.225 0  0.175 0.225 0  0.2 0.225 0  0.225 0.225 0  0.25 0.225 0  0.275 0.225 0  0.3 0.225 0  0.325 0.225 0  0.35 0.225 0  0.375 0.225 0  0.4 0.225 0  0.425 0.225 0  0.45 0.225 0  0.475 0.225 0  0.5 0.225 0  0.525 0.225 0  0.55 0.225 0  0.575 0.225 0  0.6 0.225 0  0.625 0.225 0  0.65 0.225 0  0.675 0.225 0  0.7 0.225 0  0.725 0.225 0  0.75 0.225 0  0.775 0.225 0  0.8 0.225 0  0.825 0.225 0  0.85 0.225 0  0.875 0.225 0  0.9 0.225 0  0.925 0.225 0  0.95 0.225 0  0.975 0.225 0  1 0.225 0  0 0.25 0  0.025 0.25 0  0.05 0.25 0  0.075 0.25 0  0.1 0.25 0  0.125 0.25 0  0.15 0.25 0  0.175 0.25 0  0.2 0.25 0  0.225 0.25 0  0.25 0.25 0  0.275 0.25 0  0.3 0.25 0  0.325 0.25 0  0.35 0.25 0  0.375 0.25 0  0.4 0.25 0  0.425 0.25 0  0.45 0.25 0  0.475 0.25 0  0.5 0.25 0  0.525 0.25 0  0.55 0.25 0  0.575 0.25 0  0.6 0.25 0  0.625 0.25 0  0.65 0.25 0  0.675 0.25 0  0.7 0.25 0  0.725 0.25 0  0.75 0.25 0  0.775 0.25 0  0.8 0.25 0  0.825 0.25 0  0.85 0.25 0  0.875 0.25 0  0.9 0.25 0  0.925 0.25 0  0.95 0.25 0  0.975 0.25 0  1 0.25 0  0 0.275 0  0.025 0.275 0  0.05 0.275 0  0.075 0.275 0  0.1 0.275 0  0.125 0.275 0  0.15 0.275 0  0.175 0.275 0  0.2 0.275 0  0.225 0.275 0  0.25 0.275 0  0.275 0.275 0  0.3 0.275 0  0.325 0.275 0  0.35 0.275 0  0.375 0.275 0  0.4 0.275 0  0.425 0.275 0  0.45 0.275 0  0.475 0.275 0  0.5 0.275 0  0.525 0.275 0  0.55 0.275 0  0.575 0.275 0  0.6 0.275 0  0.625 0.275 0  0.65 0.275 0  0.675 0.275 0  0.7 0.275 0  0.725 0.275 0  0.75 0.275 0  0.775 0.275 0  0.8 0.275 0  0.825 0.275 0  0.85 0.275 0  0.875 0.275 0  0.9 0.275 0  0.925 0.275 0  0.95 0.275 0  0.975 0.275 0  1 0.275 0  0 0.3 0  0.025 0.3 0  0.05 0.3 0  0.075 0.3 0  0.1 0.3 0  0.125 0.3 0  0.15 0.3 0  0.175 0.3 0  0.2 0.3 0  0.225 0.3 0  0.25 0.3 0  0.275 0.3 0  0.3 0.3 0  0.325 0.3 0  0.35 0.3 0  0.375 0.3 0  0.4 0.3 0  0.425 0.3 0  0.45 0.3 0  0.475 0.3 0  0.5 0.3 0  0.525 0.3 0  0.55 0.3 0  0.575 0.3 0  0.6 0.3 0  0.625 0.3 0  0.65 0.3 0  0.675 0.3 0  0.7 0.3 0  0.725 0.3 0  0.75 0.3 0  0.775 0.3 0  0.8 0.3 0  0.825 0.3 0  0.85 0.3 0  0.875 0.3 0  0.9 0.3 0  0.925 0.3 0  0.95 0.3 0  0.975 0.3 0  1 0.3 0  0 0.325 0  0.025 0.325 0  0.05 0.325 0  0.075 0.325 0  0.1 0.325 0  0.125 0.325 0  0.15 0.325 0  0.175 0.325 0  0.2 0.325 0  0.225 0.325 0  0.25 0.325 0  0.275 0.325 0  0.3 0.325 0  0.325 0.325 0  0.35 0.325 0  0.375 0.325 0  0.4 0.325 0  0.425 0.325 0  0.45 0.325 0  0.475 0.325 0  0.5 0.325 0  0.525 0.325 0  0.55 0.325 0  0.575 0.325 0  0.6 0.325 0  0.625 0.325 0  0.65 0.325 0  0.675 0.325 0  0.7 0.325 0  0.725 0.325 0  0.75 0.325 0  0.775 0.325 0  0.8 0.325 0  0.825 0.325 0  0.85 0.325 0  0.875 0.325 0  0.9 0.325 0  0.925 0.325 0  0.95 0.325 0  0.975 0.325 0  1 0.325 0  0 0.35 0  0.025 0.35 0  0.05 0.35 0  0.075 0.35 0  0.1 0.35 0  0.125 0.35 0  0.15 0.35 0  0.175 0.35 0  0.2 0.35 0  0.225 0.35 0  0.25 0.35 0  0.275 0.35 0  0.3 0.35 0  0.325 0.35 0  0.35 0.35 0  0.375 0.35 0  0.4 0.35 0  0.425 0.35 0  0.45 0.35 0  0.475 0.35 0  0.5 0.35 0  0.525 0.35 0  0.55 0.35 0  0.575 0.35 0  0.6 0.35 0  0.625 0.35 0  0.65 0.35 0  0.675 0.35 0  0.7 0.35 0  0.725 0.35 0  0.75 0.35 0  0.775 0.35 0  0.8 0.35 0  0.825 0.35 0  0.85 0.35 0  0.875 0.35 0  0.9 0.35 0  0.925 0.35 0  0.95 0.35 0  0.975 0.35 0  1 0.35 0  0 0.375 0  0.025 0.375 0  0.05 0.375 0  0.075 0.375 0  0.1 0.375 0  0.125 0.375 0  0.15 0.375 0  0.175 0.375 0  0.2 0.375 0  0.225 0.375 0  0.25 0.375 0  0.275 0.375 0  0.3 0.375 0  0.325 0.375 0  0.35 0.375 0  0.375 0.375 0  0.4 0.375 0  0.425 0.375 0  0.45 0.375 0  0.475 0.375 0  0.5 0.375 0  0.525 0.375 0  0.55 0.375 0  0.575 0.375 0  0.6 0.375 0  0.625 0.375 0  0.65 0.375 0  0.675 0.375 0  0.7 0.375 0  0.725 0.375 0  0.75 0.375 0  0.775 0.375 0  0.8 0.375 0  0.825 0.375 0  0.85 0.375 0  0.875 0.375 0  0.9 0.375 0  0.925 0.375 0  0.95 0.375 0  0.975 0.375 0  1 0.375 0  0 0.4 0  0.025 0.4 0  0.05 0.4 0  0.075 0.4 0  0.1 0.4 0  0.125 0.4 0  0.15 0.4 0  0.175 0.4 0  0.2 0.4 0  0.225 0.4 0  0.25 0.4 0  0.275 0.4 0  0.3 0.4 0  0.325 0.4 0  0.35 0.4 0  0.375 0.4 0  0.4 0.4 0  0.425 0.4 0  0.45 0.4 0  0.475 0.4 0  0.5 0.4 0  0.525 0.4 0  0.55 0.4 0  0.575 0.4 0  0.6 0.4 0  0.625 0.4 0  0.65 0.4 0  0.675 0.4 0  0.7 0.4 0  0.725 0.4 0  0.75 0.4 0  0.775 0.4 0  0.8 0.4 0  0.825 0.4 0  0.85 0.4 0  0.875 0.4 0  0.9 0.4 0  0.925 0.4 0  0.95 0.4 0  0.975 0.4 0  1 0.4 0  0 0.425 0  0.025 0.425 0  0.05 0.425 0  0.075 0.425 0  0.1 0.425 0  0.125 0.425 0  0.15 0.425 0  0.175 0.425 0  0.2 0.425 0  0.225 0.425 0  0.25 0.425 0  0.275 0.425 0  0.3 0.425 0  0.325 0.425 0  0.35 0.425 0  0.375 0.425 0  0.4 0.425 0  0.425 0.425 0  0.45 0.425 0  0.475 0.425 0  0.5 0.425 0  0.525 0.425 0  0.55 0.425 0  0.575 0.425 0  0.6 0.425 0  0.625 0.425 0  0.65 0.425 0  0.675 0.425 0  0.7 0.425 0  0.725 0.425 0  0.75 0.425 0  0.775 0.425 0  0.8 0.425 0  0.825 0.425 0  0.85 0.425 0  0.875 0.425 0  0.9 0.425 0  0.925 0.425 0  0.95 0.425 0  0.975 0.425 0  1 0.425 0  0 0.45 0  0.02
[...]
<PointData  Scalars="ControlVisualisation"> 
<DataArray  type="Float64"  Name="ControlVisualisation"  format="ascii">3.7517382885900280e-01  3.5956983023043804e-01  3.5987891948467365e-01  3.6029056109916946e-01  3.6077494116854530e-01  3.6133331902120730e-01  3.6196559904470249e-01  3.6242839397667709e-01  3.6279394190922665e-01  3.6299988022031804e-01  3.6307271691964915e-01  3.6319003531243671e-01  3.6296396700185501e-01  3.6317510553572058e-01  3.6331580999469487e-01  3.6315515522528696e-01  3.6307902617689103e-01  3.6288649662186651e-01  3.6274012953486995e-01  3.6245457711622314e-01  3.6230645456613814e-01  3.6223930567624935e-01  3.6218742955008565e-01  3.6198505045428137e-01  3.6187199770355227e-01  3.6173122995267215e-01  3.6153573560377344e-01  3.6134227594370372e-01  3.6109655385559236e-01  3.6091671435870765e-01  3.6082023482696890e-01  3.6065212705105343e-01  3.6044492042522458e-01  3.6026007547727212e-01  3.6008475163068299e-01  3.5997629467923642e-01  3.5984519802546283e-01  3.5972614495019078e-01  3.5962119045030805e-01  3.5952068570069406e-01  3.9103663688709572e-01  3.5939633596158088e-01  3.1381391662071628e-01  3.1469975248145926e-01  3.1660613115296210e-01  3.1984987433215084e-01  3.2336941578822048e-01  3.2759220644189413e-01  3.3088725922745171e-01  3.3360223709610115e-01  3.3521419217879028e-01  3.3579543242698007e-01  3.3686059386655082e-01  3.3571886559895558e-01  3.3640703306066333e-01  3.3607575631317876e-01  3.3539658847200438e-01  3.3428992540329111e-01  3.3305580859373918e-01  3.3196572791595313e-01  3.3073221816461090e-01  3.2950383417370832e-01  3.2871471346312137e-01  3.2749752905662638e-01  3.2647849075671265e-01  3.2485861594207427e-01  3.2388669489715527e-01  3.2320615926641755e-01  3.2188048726994500e-01  3.2052979364461376e-01  3.1929782725543909e-01  3.1849909494503748e-01  3.1789376222864546e-01  3.1684197219473303e-01  3.1583764288982746e-01  3.1504558953707290e-01  3.1461087922599690e-01  3.1430788738688759e-01  3.1399704215661389e-01  3.1378266217063655e-01  3.1366576087048736e-01  3.5951919568275975e-01  3.5917987314615113e-01  3.1491942392817046e-01  3.1806209835299687e-01  3.2265444772557433e-01  3.2916483627210247e-01  3.3665730733328791e-01  3.4467067077227609e-01  3.5053761129082672e-01  3.5477472511870944e-01  3.5901549248133507e-01  3.6000911764965693e-01  3.6093674728333469e-01  3.6037627292841440e-01  3.6045375067530544e-01  3.5870924030467294e-01  3.5653346907092726e-01  3.5464099280366368e-01  3.5266950154091709e-01  3.5063403225302892e-01  3.4782818639690510e-01  3.4544290831820129e-01  3.4354587892437266e-01  3.4089315508141266e-01  3.3772223691978087e-01  3.3507700995213630e-01  3.3268768681320049e-01  3.3091832458253023e-01  3.2877375606923026e-01  3.2655466919217829e-01  3.2432533867023483e-01  3.2237933250370254e-01  3.2106332327740444e-01  3.1921667406435728e-01  3.1739976091899369e-01  3.1614562313199390e-01  3.1521586380088695e-01  3.1461486784408227e-01  3.1417123335431463e-01  3.1387269376069116e-01  3.1374047058031757e-01  3.5961372815928022e-01  3.5908185328353054e-01  3.1758651254734371e-01  3.2517223312630211e-01  3.3304107268523053e-01  3.4228335787918940e-01  3.5153053844961279e-01  3.6053991440081756e-01  3.6741346527614682e-01  3.7104537710898733e-01  3.7477831235123127e-01  3.7609578298631413e-01  3.7597707699062938e-01  3.7553360751667458e-01  3.7354777479284368e-01  3.7131870765885666e-01  3.6887637928606570e-01  3.6651165980895711e-01  3.6361155813517904e-01  3.6072205224238735e-01  3.5761625262605806e-01  3.5341935817025233e-01  3.5124654048902237e-01  3.4790464071881522e-01  3.4379962123535451e-01  3.4035765344603197e-01  3.3783140972568565e-01  3.3557822256797953e-01  3.3261687366072623e-01  3.2999876395679684e-01  3.2787147193618338e-01  3.2539196625522304e-01  3.2330776862763522e-01  3.2125369609402549e-01  3.1907173275634754e-01  3.1733892023593008e-01  3.1620399779346275e-01  3.1532569477847849e-01  3.1483968626981013e-01  3.1421283773323833e-01  3.1389816081962979e-01  3.5970585091114549e-01  3.5914327353995873e-01  3.2263147946891901e-01  3.3920419527112905e-01  3.5159199170053274e-01  3.6183739183735825e-01  3.7100112493459864e-01  3.7748773517263068e-01  3.8301067539158373e-01  3.8489878788637144e-01  3.8704245391936765e-01  3.8650123098551042e-01  3.8442412994537029e-01  3.8284281482772409e-01  3.8010189021811114e-01  3.7681680217106295e-01  3.7441812222171100e-01  3.7149184331534080e-01  3.6785320014532280e-01  3.6489165050359068e-01  3.6093718668025232e-01  3.5640251828858671e-01  3.5337071711720963e-01  3.5045642185587511e-01  3.4635380189590714e-01  3.4307705639667507e-01  3.4014975707130118e-01  3.3781727202571388e-01  3.3441720573832801e-01  3.3170512999078927e-01  3.2947405240384675e-01  3.2702467394775692e-01  3.2466411966908632e-01  3.2235972251209044e-01  3.2036998453830245e-01  3.1850280835799238e-01  3.1695285876960066e-01  3.1605127694604485e-01  3.1535811070589076e-01  3.1473862461398566e-01  3.1425150398135138e-01  3.5982789343525490e-01  3.5951162295214917e-01  3.3511622989263601e-01  3.6818820494367688e-01  3.8652566908764513e-01  3.9495894369499379e-01  3.9918368887740607e-01  4.0005607502792423e-01  4.0038047060950577e-01  3.9913262995173687e-01  3.9840961169961103e-01  3.9627237525202424e-01  3.9139387010512749e-01  3.8757009764036510e-01  3.8367047386585179e-01  3.7998725696825908e-01  3.7631917894807049e-01  3.7307857985522680e-01  3.6917200842859893e-01  3.6636125341765613e-01  3.6162825899826556e-01  3.5732586192481752e-01  3.5446266016419226e-01  3.5102581472749916e-01  3.4747332706659168e-01  3.4371528950761537e-01  3.4129151138072811e-01  3.3893350211572992e-01  3.3559999428354359e-01  3.3264918935834431e-01  3.3017317048095662e-01  3.2771978124003964e-01  3.2549689020238631e-01  3.2325306295249900e-01  3.2126194866579255e-01  3.1967942926799164e-01  3.1801019325322988e-01  3.1691358205943582e-01  3.1607138681421809e-01  3.1536518022493693e-01  3.1484680605118937e-01  3.5999798753209272e-01  3.6752701422321776e-01  3.7663895730137692e-01  4.3349228881282847e-01  4.4979421073940312e-01  4.4706664835178295e-01  4.4003167595892101e-01  4.3128801225783375e-01  4.2340667251482422e-01  4.1649701238303116e-01  4.1107058129874918e-01  4.0621789737187797e-01  3.9939194669433215e-01  3.9353044982240243e-01  3.8871120010595811e-01  3.8355144678302033e-01  3.7934101198208658e-01  3.7489953618944499e-01  3.7101998229211403e-01  3.6785780589732425e-01  3.6303955198122834e-01  3.5888359643924445e-01  3.5512264479665179e-01  3.5152379691784463e-01  3.4867159516313256e-01  3.4504111913894209e-01  3.4233679086552776e-01  3.4044105567331523e-01  3.3711651318808517e-01  3.3409936103713767e-01  3.3138334122889751e-01  3.2894051386470741e-01  3.2663427849711563e-01  3.2422453467552603e-01  3.2234555440284379e-01  3.2077526450507721e-01  3.1945944687780331e-01  3.1842877825759131e-01  3.1722560082794438e-01  3.1646277476174905e-01  3.1538347320308918e-01  3.6015510041326360e-01  4.7265052611592023e-01  5.2253357321824812e-01  5.6135616488407303e-01  5.5005506001537341e-01  5.2224273636082341e-01  4.9381521089089536e-01  4.6973186803153577e-01  4.5029930279905089e-01  4.3543014129271462e-01  4.2507688256650650e-01  4.1552476095292101e-01  4.0708008925280414e-01  4.0036054067965016e-01  3.9371259863059432e-01  3.8738144691220638e-01  3.8274242104990552e-01  3.7748920710484146e-01  3.7314736175821483e-01  3.6899580645166086e-01  3.6457370775252806e-01  3.6042326215709908e-01  3.5625213013957957e-01  3.5315218604652610e-01  3.4996163023334803e-01  3.4627051509129936e-01  3.4327538726633222e-01  3.4156027669032135e-01  3.3861681757255568e-01  3.3561462290301647e-01  3.3265329009070110e-01  3.3030870629071574e-01  3.2820445789152913e-01  3.2552175644759973e-01  3.2389424220952229e-01  3.2229960672335500e-01  3.2081317559220401e-01  3.1949586211001196e-01  3.1842136538330656e-01  3.1770188809170119e-01  3.1609886886452232e-01  3.6031586903427087e-01  6.8305971717837954e-01  7.6195938375589345e-01  7.1760128665404188e-01  6.6732285101885003e-01  6.0855692699855268e-01  5.5521180813533033e-01  5.1251163371740949e-01  4.7970184148629835e-01  4.5483530749182066e-01  4.3851685347554581e-01  4.2510221787204738e-01  4.1331859070742322e-01  4.0459222597354483e-01  3.9766492263569736e-01  3.8999136094276154e-01  3.8646633863330093e-01  3.7959341849946132e-01  3.7435440270593884e-01  3.7040197476076203e-01  3.6651893255463036e-01  3.6252832110368655e-01  3.5789362786462037e-01  3.5509347826621723e-01  3.5234022028216477e-01  3.4797179625396674e-01  3.4494007940499222e-01  3.4234071754056350e-01  3.3993257613770439e-01  3.3738011731559731e-01  3.3430959183955888e-01  3.3196102016376244e-01  3.2973351418681052e-01  3.2767665838049803e-01  3.2605322080123594e-01  3.2421394524470143e-01  3.2259199415565182e-01  3.2101059906837359e-01  3.2017407542368220e-01  3.1930205217620367e-01  3.1685617479824807e-01  3.6047812296239462e-01  7.7561580122771789e-01  8.6651640073041014e-01  8.1520305265983561e-01  7.6161093573244154e-01  6.8679464196866313e-01  6.1338333101725584e-01  5.5339150468914156e-01  5.0816596997963770e-01  4.7360218949878718e-01  4.5029304294763073e-01  4.3371780143143024e-01  4.2026595228083230e-01  4.0864619394115265e-01  4.0138288634615221e-01  3.9324798607913802e-01  3.8772788069725178e-01  3.8198426789501322e-01  3.7551658257778825e-01  3.7303351118332412e-01  3.6858137736250524e-01  3.6498551965545384e-01  3.6015211293575822e-01  3.5725645176667781e-01  3.5426112991153863e-01  3.4999440867005233e-01  3.4740868315253948e-01  3.4427841561181316e-01  3.4199806117422077e-01  3.3974339624689831e-01  3.3706671474690814e-01  3.3430611418632955e-01  3.3202261773274749e-01  3.3058226748387032e-01  3.2839548802327617e-01  3.2630422851120189e-01  3.2519833844729795e-01  3.2386245694238186e-01  3.2289176533181263e-01  3.2111138780671517e-01  3.1780823380037188e-01  3.6067446288278809e-01  7.9555284619863542e-01  8.9206349053677547e-01  8.5118582118995290e-01  8.0830970792733714e-01  7.3582925895503204e-01  6.5526584898470841e-01  5.8327247573933816e-01  5.2843884029250932e-01  4.8842459594879917e-01  4.6044615438511621e-01  4.4006445193728400e-01  4.2552565691935751e-01  4.1279344513284377e-01  4.0384739921621349e-01  3.9699979642590322e-01  3.8966606340999305e-01  3.8421586985085204e-01  3.7878790500341319e-01  3.7530918964676790e-01  3.7057440560274052e-01  3.6679887161281127e-01  3.6186250109000928e-01  3.5914056387296794e-01  3.5616172720699363e-01  3.5150948492902567e-01  3.4970237269914456e-01  3.4735604004983217e-01  3.4481116066416001e-01  3.4194471301990520e-01  3.3945715024779760e-01  3.3735810525400739e-01  3.3502856868950137e-01  3.3358614403731091e-01  3.3169472396701477e-01  3.2920945112886402e-01  3.2767891844815589e-01  3.2630910091382620e-01  3.2528258758827178e-01  3.2297209234944141e-01  3.1866348704525316e-01  3.6086930711725662e-01  7.6786796238295363e-01  8.7372199428346642e-01  8.4145279998269873e-01  8.1058601568084987e-01  7.4846307586265504e-01  6.6974415890798633e-01  5.9621438891918910e-01  5.3884966296060033e-01  4.9785543051024661e-01  4.6733297522274631e-01  4.4505009387504579e-01  4.2907204697668921e-01  4.1689023027760341e-01  4.0698070679840781e-01  4.0019514731274830e-01  3.9229997037752212e-01  3.8623916744141262e-01  3.8184081917360702e-01  3.7746902662567056e-01  3.7253118903890153e-01  3.6860784714051797e-01  3.6443521534928869e-01  3.6111081201588430e-01  3.5896312137870029e-01  3.5477309553511993e-01  3.5226706039820349e-01  3.5107657214690480e-01  3.4845120877353020e-01  3.4542986744894183e-01  3.4284186287339835e-01  3.4045492765737229e-01  3.3858147854493881e-01  3.3705729653560085e-01  3.3539365659875081e-01  3.3235161854864376e-01  3.3017209289463867e-01  3.2874004745119767e-01  3.2770918439590985e-01  3.2497281584399057e-01  3.1968446475700468e-01  3.6099163163601256e-01  6.5424546251074656e-01  8.0158464548908059e-01  7.8082476045788096e-01  7.7230617986621730e-01  7.2658488036076385e-01  6.5980636812795712e-01  5.9241690662342539e-01  5.3882219380513963e-01  4.9950021524416360e-01  4.6995307678674608e-01  4.4812710584586823e-01  4.3135894152645093e-01  4.1932253698547522e-01  4.0809208089960769e-01  3.9985733880898783e-01  3.9202908673739117e-01  3.8710541004226429e-01  3.8315063541553201e-01  3.7944645306888641e-01  3.7457621811191788e-01  3.7025652698202949e-01  3.6672867051837793e-01  3.6313878346314299e-01  3.6133264961682182e-01  3.5842193574025843e-01  3.5551040560339076e-01  3.5375921332364424e-01  3.5090950624007716e-01  3.4864220427429660e-01  3.4659401605356105e-01  3.4387407495413513e-01  3.4176986095675621e-01  3.3986071749538921e-01  3.3831041639633275e-01  3.3572396370226143e-01  3.3361847307409326e-01  3.3234563248981031e-01  3.3099925568135580e-01  3.2753033243827562e-01  3.2096912779545006e-01  3.6120757835834211e-01  4.3729552097327307e-01  6.2197659021409801e-01  6.8486529607233493e-01  7.0489895253658708e-01  6.7913681839895257e-01  6.3023428524563996e-01  5.7594693158788057e-01  5.2871729298239412e-01  4.9293988038196679e-01  4.6690729293404742e-01  4.4704094396591543e-01  4.3100080670557323e-01  4.1894241916315217e-01  4.0732395634343710e-01  3.9929099048865840e-01  3.9252234424650362e-01  3.8811534316079965e-01  3.8471726681272422e-01  3.8117907025358599e-01  3.7660155460846484e-01  3.7229856179336435e-01  3.6925246732275657e-01  3.6573257171537871e-01  3.6393706683137622e-01  3.6050611248155534e-01  3.5808541384054482e-01  3.5665088466496753e-01  3.5420168374323296e-01  3.5252389209380824e-01  3.5052904710398258e-01  3.4792710657014553e-01  3.4640857656593271e-01  3.4438584323880073e-01  3.4269686795032100e-01  3.4040556825508966e-01  3.3839505166893147e-01  3.3676256283160416e-01  3.3520445889802586e-01  3.3101190448727336e-01  3.2270630700224540e-01  3.6147184540495553e-01  3.7219999448174795e-01  4.5031623429272033e-01  5.8224540410152403e-01  6.2620003685200565e-01  6.2029936907092498e-01  5.8733805398189554e-01  5.4731875910181393e-01  5.1028664557928793e-01  4.8034865846395375e-01  4.5847659707293198e-01  4.4180552921495930e-01  4.2826447748216284e-01  4.1602426156037475e-01  4.0482507166347054e-01  3.9766793109444054e-01  3.9236916285894496e-01  3.8817824992093525e-01  3.8572345526381446e-01  3.8236765051575033e-01  3.7795061868599800e-01  3.7345393567072782e-01  3.7107546061412661e-01  3.6822661407501500e-01  3.6595213957173456e-01  3.6213144680969356e-01  3.5966972818508669e-01  3.5880510881437588e-01  3.5740713621223130e-01  3.5596420270907703e-01  3.5349906644435780e-01  3.5157349950955918e-01  3.5052734097800187e-01  3.4898975179059888e-01  3.4719818968991706e-01  3.4521619838624301e-01  3.4330323347155822e-01  3.4208944659389223e-01  3.3989527232366923e-01  3.3522311980118341e-01  3.2460586996426011e-01  3.6171933236077752e-01  3.6784671565145155e-01  3.9592456201148213e-01  5.0352110307681708e-01  5.5295628132326002e-01  5.5892583386854100e-01  5.4130409068754948e-01  5.1591740550703447e-01  4.8969946794124930e-01  4.6541698619743804e-01  4.4757535937428072e-01  4.3431099505347132e-01  4.2354237560715746e-01  4.1304454085205172e-01  4.0262369220794342e-01  3.9626881117449725e-01  3.9081994170182310e-01  3.8680957459861587e-01  3.8482278062808883e-01  3.8167008745724346e-01  3.7857288759721497e-01  3.7520127865378167e-01  3.7256051399306567e-01  3.6992536752686361e-01  3.6808207377637281e-01  3.6449519900614791e-01  3.6200961763774431e-01  3.6147589357685472e-01  3.5999584610245006e-01  3.5983342354954934e-01  3.5763881314803564e-01  3.5633232312598551e-01  3.5474083526715428e-01  3.5401440008332252e-01  3.5298413145563629e-01  3.5145146669710531e-01  3.4947148157740759e-01  3.4769421315109728e-01  3.4594056655704336e-01  3.3955689106706144e-01  3.2681727184621778e-01  3.6202910728394960e-01  3.6694614967758510e-01  3.7808274630436267e-01  4.5836116771588503e-01  4.9998164107573101e-01  5.1022632245854105e-01  5.0102059979755020e-01  4.8650827822437803e-01  4.6913745365990750e-01  4.5157585604724665e-01  4.3733123779313954e-01  4.2760861974030462e-01  4.1858219892414661e-01  4.0991459059703006e-01  4.0242123352260595e-01  3.9646358586323205e-01  3.9182293050626449e-01  3.8723561083631375e-01  3.8480149639014533e-01  3.8182697771579238e-01  3.7984573089371887e-01  3.7828031686686825e-01  3.7598784130534618e-01  3.7295432804625522e-01  3.7146437765423374e-01  3.6837202797172752e-01  3.6682649198379264e-01  3.6516955318312627e-01  3.6412439955405657e-01  3.6398437503190212e-01  3.6325278899786922e-01  3.6267069720610706e-01  3.6110427163647468e-01  3.6038146698853685e-01  3.6034546186825284e-01  3.5876546522342156e-01  3.5715230977797552e-01  3.5559819410927013e-01  3.5197650726149138e-01  3.4430840187956785e-01  3.2857463479245896e-01  3.6230670419643396e-01  3.6580336606198888e-01  3.6461026342147584e-01  4.2693520594589851e-01  4.6125609033454373e-01  4.7155092353481343e-01  4.6640770650927416e-01  4.5918800382138153e-01  4.4775100459514333e-01  4.3613545413746968e-01  4.2593402974170264e-01  4.1842180998225026e-01  4.1131110390943892e-01  4.0535121591623147e-01  3.9947153108507194e-01  3.9410635910989833e-01  3.8947164179906729e-01  3.8680461476428341e-01  3.8445168103262295e-01  3.8272242249431160e-01  3.8109970518357489e-01  3.7968454792542666e-01  3.7766213835309292e-01  3.7574552264381139e-01  3.7394058109328088e-01  3.7210858586643775e-01  3.7092734277067141e-01  3.7048531481220132e-01  3.7018931364797958e-01  3.6886930924172395e-01  3.6869433683382885e-01  3.6809897936436475e-01  3.6724533205871529e-01  3.6724612344921059e-01  3.6742467372667470e-01  3.6654420113283276e-01  3.6499020199300947e-01  3.6379221624046082e-01  3.6027553486301578e-01  3.4988802350622145e-01  3.3136352404105374e-01  3.6263768374473249e-01  3.6493940869671659e-01  3.5575448948621607e-01  4.0672046225887593e-01  4.3365447094687271e-01  4.4226478542745901e-01  4.4109241860699377e-01  4.3708473259679892e-01  4.2994701353727321e-01  4.2197917746012359e-01  4.1542594656209791e-01  4.0943079043695441e-01  4.0412667335536107e-01  3.9984060223818985e-01  3.9598943124476227e-01  3.9088278621219791e-01  3.8786706803949267e-01  3.8630170795802388e-01  3.8459489813568098e-01  3.8365697011903011e-01  3.8224296818850906e-01  3.8017960148514290e-01  3.7866918072104033e-01  3.7756649700316686e-01  3.7651427473697641e-01  3.7549295050499948e-01  3.7408656226874276e-01  3.7431201562599414e-01  3.7540639317466001e-01  3.7453578204512733e-01  3.7425454626709054e-01  3.7392269561516533e-01  3.7447470432702851e-01  3.7495235822069040e-01  3.7548879803727669e-01  3.7505908383976905e-01  3.7376810369238145e-01  3.7203911354712133e-01  3.6901731775673779e-01  3.5848055632970882e-01  3.3548051879462676e-01  3.6307911138904475e-01  3.6437810565214890e-01  3.4891594226756367e-01  3.9016184169989004e-01  4.1237753451503112e-01  4.2011111206439528e-01  4.2050654336230514e-01  4.1846329467064269e-01  4.1420663268282809e-01  4.0895433503183742e-01  4.0382338205774804e-01  4.0000875741475378e-01  3.9674488093301874e-01  3.9413251421124584e-01  3.9145487606992319e-01  3.8735689542596086e-01  3.8520108679958315e-01  3.8515839900233750e-01  3.8368360209627739e-01  3.8244877966943275e-01  3.8145102470911640e-01  3.8025180676879411e-01  3.7853865001081755e-01  3.7820170797677821e-01  3.7809208837678765e-01  3.7703684091489653e-01  3.7655302963545312e-01  3.7706957641793210e-01  3.7829549004488494e-01  3.7820280757850538e-01  3.7870266672195496e-01  3.7974927280322174e-01  3.8137167346345124e-01  3.8389460625188415e-01  3.8455826018925271e-01  3.8466246010242489e-01  3.8512328791096245e-01  3.8388741557618344e-01  3.7961425083330119e-01  3.6688358973947793e-01  3.3949900433669594e-01  3.6366926723091819e-01  3.6388023505282430e-01  3.4300238752284301e-01  3.7687466105618767e-01  3.9478422251358453e-01  4.0163743990858319e-01  4.0304710912402264e-01  4.0202482917805682e-01  3.9871958817622866e-01  3.956493958