<?xml version="1.0"?>
<VTKFile type="UnstructuredGrid"  version="0.1"  >
<UnstructuredGrid>
<Piece  NumberOfPoints="1681" NumberOfCells="3200">
<Points>
<DataArray  type="Float64"  NumberOfComponents="3"  format="ascii">0 0 0  0.025 0 0  0.05 0 0  0.075 0 0  0.1 0 0  0.125 0 0  0.15 0 0  0.175 0 0  0.2 0 0  0.225 0 0  0.25 0 0  0.275 0 0  0.3 0 0  0.325 0 0  0.35 0 0  0.375 0 0  0.4 0 0  0.425 0 0  0.45 0 0  0.475 0 0  0.5 0 0  0.525 0 0  0.55 0 0  0.575 0 0  0.6 0 0  0.625 0 0  0.65 0 0  0.675 0 0  0.7 0 0  0.725 0 0  0.75 0 0  0.775 0 0  0.8 0 0  0.825 0 0  0.85 0 0  0.875 0 0  0.9 0 0  0.925 0 0  0.95 0 0  0.975 0 0  1 0 0  0 0.025 0  0.025 0.025 0  0.05 0.025 0  0.075 0.025 0  0.1 0.025 0  0.125 0.025 0  0.15 0.025 0  0.175 0.025 0  0.2 0.025 0  0.225 0.025 0  0.25 0.025 0  0.275 0.025 0  0.3 0.025 0  0.325 0.025 0  0.35 0.025 0  0.375 0.025 0  0.4 0.025 0  0.425 0.025 0  0.45 0.025 0  0.475 0.025 0  0.5 0.025 0  0.525 0.025 0  0.55 0.025 0  0.575 0.025 0  0.6 0.025 0  0.625 0.025 0  0.65 0.025 0  0.675 0.025 0  0.7 0.025 0  0.725 0.025 0  0.75 0.025 0  0.775 0.025 0  0.8 0.025 0  0.825 0.025 0  0.85 0.025 0  0.875 0.025 0  0.9 0.025 0  0.925 0.025 0  0.95 0.025 0  0.975 0.025 0  1 0.025 0  0 0.05 0  0.025 0.05 0  0.05 0.05 0  0.075 0.05 0  0.1 0.05 0  0.125 0.05 0  0.15 0.05 0  0.175 0.05 0  0.2 0.05 0  0.225 0.05 0  0.25 0.05 0  0.275 0.05 0  0.3 0.05 0  0.325 0.05 0  0.35 0.05 0  0.375 0.05 0  0.4 0.05 0  0.425 0.05 0  0.45 0.05 0  0.475 0.05 0  0.5 0.05 0  0.525 0.05 0  0.55 0.05 0  0.575 0.05 0  0.6 0.05 0  0.625 0.05 0  0.65 0.05 0  0.675 0.05 0  0.7 0.05 0  0.725 0.05 0  0.75 0.05 0  0.775 0.05 0  0.8 0.05 0  0.825 0.05 0  0.85 0.05 0  0.875 0.05 0  0.9 0.05 0  0.925 0.05 0  0.95 0.05 0  0.975 0.05 0  1 0.05 0  0 0.075 0  0.025 0.075 0  0.05 0.075 0  0.075 0.075 0  0.1 0.075 0  0.125 0.075 0  0.15 0.075 0  0.175 0.075 0  0.2 0.075 0  0.225 0.075 0  0.25 0.075 0  0.275 0.075 0  0.3 0.075 0  0.325 0.075 0  0.35 0.075 0  0.375 0.075 0  0.4 0.075 0  0.425 0.075 0  0.45 0.075 0  0.475 0.075 0  0.5 0.075 0  0.525 0.075 0  0.55 0.075 0  0.575 0.075 0  0.6 0.075 0  0.625 0.075 0  0.65 0.075 0  0.675 0.075 0  0.7 0.075 0  0.725 0.075 0  0.75 0.075 0  0.775 0.075 0  0.8 0.075 0  0.825 0.075 0  0.85 0.075 0  0.875 0.075 0  0.9 0.075 0  0.925 0.075 0  0.95 0.075 0  0.975 0.075 0  1 0.075 0  0 0.1 0  0.025 0.1 0  0.05 0.1 0  0.075 0.1 0  0.1 0.1 0  0.125 0.1 0  0.15 0.1 0  0.175 0.1 0  0.2 0.1 0  0.225 0.1 0  0.25 0.1 0  0.275 0.1 0  0.3 0.1 0  0.325 0.1 0  0.35 0.1 0  0.375 0.1 0  0.4 0.1 0  0.425 0.1 0  0.45 0.1 0  0.475 0.1 0  0.5 0.1 0  0.525 0.1 0  0.55 0.1 0  0.575 0.1 0  0.6 0.1 0  0.625 0.1 0  0.65 0.1 0  0.675 0.1 0  0.7 0.1 0  0.725 0.1 0  0.75 0.1 0  0.775 0.1 0  0.8 0.1 0  0.825 0.1 0  0.85 0.1 0  0.875 0.1 0  0.9 0.1 0  0.925 0.1 0  0.95 0.1 0  0.975 0.1 0  1 0.1 0  0 0.125 0  0.025 0.125 0  0.05 0.125 0  0.075 0.125 0  0.1 0.125 0  0.125 0.125 0  0.15 0.125 0  0.175 0.125 0  0.2 0.125 0  0.225 0.125 0  0.25 0.125 0  0.275 0.125 0  0.3 0.125 0  0.325 0.125 0  0.35 0.125 0  0.375 0.125 0  0.4 0.125 0  0.425 0.125 0  0.45 0.125 0  0.475 0.125 0  0.5 0.125 0  0.525 0.125 0  0.55 0.125 0  0.575 0.125 0  0.6 0.125 0  0.625 0.125 0  0.65 0.125 0  0.675 0.125 0  0.7 0.125 0  0.725 0.125 0  0.75 0.125 0  0.775 0.125 0  0.8 0.125 0  0.825 0.125 0  0.85 0.125 0  0.875 0.125 0  0.9 0.125 0  0.925 0.125 0  0.95 0.125 0  0.975 0.125 0  1 0.125 0  0 0.15 0  0.025 0.15 0  0.05 0.15 0  0.075 0.15 0  0.1 0.15 0  0.125 0.15 0  0.15 0.15 0  0.175 0.15 0  0.2 0.15 0  0.225 0.15 0  0.25 0.15 0  0.275 0.15 0  0.3 0.15 0  0.325 0.15 0  0.35 0.15 0  0.375 0.15 0  0.4 0.15 0  0.425 0.15 0  0.45 0.15 0  0.475 0.15 0  0.5 0.15 0  0.525 0.15 0  0.55 0.15 0  0.575 0.15 0  0.6 0.15 0  0.625 0.15 0  0.65 0.15 0  0.675 0.15 0  0.7 0.15 0  0.725 0.15 0  0.75 0.15 0  0.775 0.15 0  0.8 0.15 0  0.825 0.15 0  0.85 0.15 0  0.875 0.15 0  0.9 0.15 0  0.925 0.15 0  0.95 0.15 0  0.975 0.15 0  1 0.15 0  0 0.175 0  0.025 0.175 0  0.05 0.175 0  0.075 0.175 0  0.1 0.175 0  0.125 0.175 0  0.15 0.175 0  0.175 0.175 0  0.2 0.175 0  0.225 0.175 0  0.25 0.175 0  0.275 0.175 0  0.3 0.175 0  0.325 0.175 0  0.35 0.175 0  0.375 0.175 0  0.4 0.175 0  0.425 0.175 0  0.45 0.175 0  0.475 0.175 0  0.5 0.175 0  0.525 0.175 0  0.55 0.175 0  0.575 0.175 0  0.6 0.175 0  0.625 0.175 0  0.65 0.175 0  0.675 0.175 0  0.7 0.175 0  0.725 0.175 0  0.75 0.175 0  0.775 0.175 0  0.8 0.175 0  0.825 0.175 0  0.85 0.175 0  0.875 0.175 0  0.9 0.175 0  0.925 0.175 0  0.95 0.175 0  0.975 0.175 0  1 0.175 0  0 0.2 0  0.025 0.2 0  0.05 0.2 0  0.075 0.2 0  0.1 0.2 0  0.125 0.2 0  0.15 0.2 0  0.175 0.2 0  0.2 0.2 0  0.225 0.2 0  0.25 0.2 0  0.275 0.2 0  0.3 0.2 0  0.325 0.2 0  0.35 0.2 0  0.375 0.2 0  0.4 0.2 0  0.425 0.2 0  0.45 0.2 0  0.475 0.2 0  0.5 0.2 0  0.525 0.2 0  0.55 0.2 0  0.575 0.2 0  0.6 0.2 0  0.625 0.2 0  0.65 0.2 0  0.675 0.2 0  0.7 0.2 0  0.725 0.2 0  0.75 0.2 0  0.775 0.2 0  0.8 0.2 0  0.825 0.2 0  0.85 0.2 0  0.875 0.2 0  0.9 0.2 0  0.925 0.2 0  0.95 0.2 0  0.975 0.2 0  1 0.2 0  0 0.225 0  0.025 0.225 0  0.05 0.225 0  0.075 0.225 0  0.1 0.225 0  0.125 0.225 0  0.15 0.225 0  0.175 0.225 0  0.2 0.225 0  0.225 0.225 0  0.25 0.225 0  0.275 0.225 0  0.3 0.225 0  0.325 0.225 0  0.35 0.225 0  0.375 0.225 0  0.4 0.225 0  0.425 0.225 0  0.45 0.225 0  0.475 0.225 0  0.5 0.225 0  0.525 0.225 0  0.55 0.225 0  0.575 0.225 0  0.6 0.225 0  0.625 0.225 0  0.65 0.225 0  0.675 0.225 0  0.7 0.225 0  0.725 0.225 0  0.75 0.225 0  0.775 0.225 0  0.8 0.225 0  0.825 0.225 0  0.85 0.225 0  0.875 0.225 0  0.9 0.225 0  0.925 0.225 0  0.95 0.225 0  0.975 0.225 0  1 0.225 0  0 0.25 0  0.025 0.25 0  0.05 0.25 0  0.075 0.25 0  0.1 0.25 0  0.125 0.25 0  0.15 0.25 0  0.175 0.25 0  0.2 0.25 0  0.225 0.25 0  0.25 0.25 0  0.275 0.25 0  0.3 0.25 0  0.325 0.25 0  0.35 0.25 0  0.375 0.25 0  0.4 0.25 0  0.425 0.25 0  0.45 0.25 0  0.475 0.25 0  0.5 0.25 0  0.525 0.25 0  0.55 0.25 0  0.575 0.25 0  0.6 0.25 0  0.625 0.25 0  0.65 0.25 0  0.675 0.25 0  0.7 0.25 0  0.725 0.25 0  0.75 0.25 0  0.775 0.25 0  0.8 0.25 0  0.825 0.25 0  0.85 0.25 0  0.875 0.25 0  0.9 0.25 0  0.925 0.25 0  0.95 0.25 0  0.975 0.25 0  1 0.25 0  0 0.275 0  0.025 0.275 0  0.05 0.275 0  0.075 0.275 0  0.1 0.275 0  0.125 0.275 0  0.15 0.275 0  0.175 0.275 0  0.2 0.275 0  0.225 0.275 0  0.25 0.275 0  0.275 0.275 0  0.3 0.275 0  0.325 0.275 0  0.35 0.275 0  0.375 0.275 0  0.4 0.275 0  0.425 0.275 0  0.45 0.275 0  0.475 0.275 0  0.5 0.275 0  0.525 0.275 0  0.55 0.275 0  0.575 0.275 0  0.6 0.275 0  0.625 0.275 0  0.65 0.275 0  0.675 0.275 0  0.7 0.275 0  0.725 0.275 0  0.75 0.275 0  0.775 0.275 0  0.8 0.275 0  0.825 0.275 0  0.85 0.275 0  0.875 0.275 0  0.9 0.275 0  0.925 0.275 0  0.95 0.275 0  0.975 0.275 0  1 0.275 0  0 0.3 0  0.025 0.3 0  0.05 0.3 0  0.075 0.3 0  0.1 0.3 0  0.125 0.3 0  0.15 0.3 0  0.175 0.3 0  0.2 0.3 0  0.225 0.3 0  0.25 0.3 0  0.275 0.3 0  0.3 0.3 0  0.325 0.3 0  0.35 0.3 0  0.375 0.3 0  0.4 0.3 0  0.425 0.3 0  0.45 0.3 0  0.475 0.3 0  0.5 0.3 0  0.525 0.3 0  0.55 0.3 0  0.575 0.3 0  0.6 0.3 0  0.625 0.3 0  0.65 0.3 0  0.675 0.3 0  0.7 0.3 0  0.725 0.3 0  0.75 0.3 0  0.775 0.3 0  0.8 0.3 0  0.825 0.3 0  0.85 0.3 0  0.875 0.3 0  0.9 0.3 0  0.925 0.3 0  0.95 0.3 0  0.975 0.3 0  1 0.3 0  0 0.325 0  0.025 0.325 0  0.05 0.325 0  0.075 0.325 0  0.1 0.325 0  0.125 0.325 0  0.15 0.325 0  0.175 0.325 0  0.2 0.325 0  0.225 0.325 0  0.25 0.325 0  0.275 0.325 0  0.3 0.325 0  0.325 0.325 0  0.35 0.325 0  0.375 0.325 0  0.4 0.325 0  0.425 0.325 0  0.45 0.325 0  0.475 0.325 0  0.5 0.325 0  0.525 0.325 0  0.55 0.325 0  0.575 0.325 0  0.6 0.325 0  0.625 0.325 0  0.65 0.325 0  0.675 0.325 0  0.7 0.325 0  0.725 0.325 0  0.75 0.325 0  0.775 0.325 0  0.8 0.325 0  0.825 0.325 0  0.85 0.325 0  0.875 0.325 0  0.9 0.325 0  0.925 0.325 0  0.95 0.325 0  0.975 0.325 0  1 0.325 0  0 0.35 0  0.025 0.35 0  0.05 0.35 0  0.075 0.35 0  0.1 0.35 0  0.125 0.35 0  0.15 0.35 0  0.175 0.35 0  0.2 0.35 0  0.225 0.35 0  0.25 0.35 0  0.275 0.35 0  0.3 0.35 0  0.325 0.35 0  0.35 0.35 0  0.375 0.35 0  0.4 0.35 0  0.425 0.35 0  0.45 0.35 0  0.475 0.35 0  0.5 0.35 0  0.525 0.35 0  0.55 0.35 0  0.575 0.35 0  0.6 0.35 0  0.625 0.35 0  0.65 0.35 0  0.675 0.35 0  0.7 0.35 0  0.725 0.35 0  0.75 0.35 0  0.775 0.35 0  0.8 0.35 0  0.825 0.35 0  0.85 0.35 0  0.875 0.35 0  0.9 0.35 0  0.925 0.35 0  0.95 0.35 0  0.975 0.35 0  1 0.35 0  0 0.375 0  0.025 0.375 0  0.05 0.375 0  0.075 0.375 0  0.1 0.375 0  0.125 0.375 0  0.15 0.375 0  0.175 0.375 0  0.2 0.375 0  0.225 0.375 0  0.25 0.375 0  0.275 0.375 0  0.3 0.375 0  0.325 0.375 0  0.35 0.375 0  0.375 0.375 0  0.4 0.375 0  0.425 0.375 0  0.45 0.375 0  0.475 0.375 0  0.5 0.375 0  0.525 0.375 0  0.55 0.375 0  0.575 0.375 0  0.6 0.375 0  0.625 0.375 0  0.65 0.375 0  0.675 0.375 0  0.7 0.375 0  0.725 0.375 0  0.75 0.375 0  0.775 0.375 0  0.8 0.375 0  0.825 0.375 0  0.85 0.375 0  0.875 0.375 0  0.9 0.375 0  0.925 0.375 0  0.95 0.375 0  0.975 0.375 0  1 0.375 0  0 0.4 0  0.025 0.4 0  0.05 0.4 0  0.075 0.4 0  0.1 0.4 0  0.125 0.4 0  0.15 0.4 0  0.175 0.4 0  0.2 0.4 0  0.225 0.4 0  0.25 0.4 0  0.275 0.4 0  0.3 0.4 0  0.325 0.4 0  0.35 0.4 0  0.375 0.4 0  0.4 0.4 0  0.425 0.4 0  0.45 0.4 0  0.475 0.4 0  0.5 0.4 0  0.525 0.4 0  0.55 0.4 0  0.575 0.4 0  0.6 0.4 0  0.625 0.4 0  0.65 0.4 0  0.675 0.4 0  0.7 0.4 0  0.725 0.4 0  0.75 0.4 0  0.775 0.4 0  0.8 0.4 0  0.825 0.4 0  0.85 0.4 0  0.875 0.4 0  0.9 0.4 0  0.925 0.4 0  0.95 0.4 0  0.975 0.4 0  1 0.4 0  0 0.425 0  0.025 0.425 0  0.05 0.425 0  0.075 0.425 0  0.1 0.425 0  0.125 0.425 0  0.15 0.425 0  0.175 0.425 0  0.2 0.425 0  0.225 0.425 0  0.25 0.425 0  0.275 0.425 0  0.3 0.425 0  0.325 0.425 0  0.35 0.425 0  0.375 0.425 0  0.4 0.425 0  0.425 0.425 0  0.45 0.425 0  0.475 0.425 0  0.5 0.425 0  0.525 0.425 0  0.55 0.425 0  0.575 0.425 0  0.6 0.425 0  0.625 0.425 0  0.65 0.425 0  0.675 0.425 0  0.7 0.425 0  0.725 0.425 0  0.75 0.425 0  0.775 0.425 0  0.8 0.425 0  0.825 0.425 0  0.85 0.425 0  0.875 0.425 0  0.9 0.425 0  0.925 0.425 0  0.95 0.425 0  0.975 0.425 0  1 0.425 0  0 0.45 0  0.02
[...]
<PointData  Scalars="ControlVisualisation"> 
<DataArray  type="Float64"  Name="ControlVisualisation"  format="ascii">2.0634954114888750e-06  1.3725152856462536e-06  1.3731329553418634e-06  1.3743399878069285e-06  1.3761462510222289e-06  1.3784072139739759e-06  1.3808552272487180e-06  1.3832181023397853e-06  1.3853099303287139e-06  1.3869572665183056e-06  1.3881828902446656e-06  1.3889979107556195e-06  1.3894063043068411e-06  1.3895122154693559e-06  1.3893613203662186e-06  1.3889711930901622e-06  1.3884258768507412e-06  1.3877650327003189e-06  1.3869927086077521e-06  1.3861573869734289e-06  1.3852331500183343e-06  1.3842836270486396e-06  1.3833368186470844e-06  1.3823417975535557e-06  1.3813864594359030e-06  1.3804015880211697e-06  1.3794522484810045e-06  1.3785337536961215e-06  1.3776507311256250e-06  1.3768262693143382e-06  1.3760468296940082e-06  1.3753387011797356e-06  1.3746919192846973e-06  1.3741134115570306e-06  1.3736071789063022e-06  1.3731771507343784e-06  1.3728333509619576e-06  1.3725760899974649e-06  1.3724061045568573e-06  1.3723219457189405e-06  4.1369065710584872e-06  1.3724925409487904e-06  6.8143912961797079e-07  6.8205781441368387e-07  6.8332019601713514e-07  6.8528150467409630e-07  6.8778853427043085e-07  6.9055544222204730e-07  6.9327831245737226e-07  6.9573153413454600e-07  6.9771966936148983e-07  6.9920205390393836e-07  7.0021801235034722e-07  7.0075986860989848e-07  7.0092864160136169e-07  7.0080664153106031e-07  7.0040323409713846e-07  6.9979815449392263e-07  6.9905448916861576e-07  6.9816737491225836e-07  6.9720303478578872e-07  6.9617603609943775e-07  6.9509147293158749e-07  6.9398514218654285e-07  6.9285840206724049e-07  6.9173551956030369e-07  6.9061931017777396e-07  6.8952552333278153e-07  6.8848103499897284e-07  6.8746723518090149e-07  6.8651396136280639e-07  6.8561763153994121e-07  6.8479253179097652e-07  6.8403982998268759e-07  6.8336531605736198e-07  6.8277867302680709e-07  6.8227435556644836e-07  6.8186465902582498e-07  6.8155090763456508e-07  6.8133553519075382e-07  6.8121293305349632e-07  1.3723218919772290e-06  1.3728470672544554e-06  6.8188688332672956e-07  6.8278725324428756e-07  6.8446784475337260e-07  6.8697333475926042e-07  6.9000039694304489e-07  6.9319667136331581e-07  6.9625658468313934e-07  6.9897415590830758e-07  7.0114830212700977e-07  7.0272963267649153e-07  7.0376911822047731e-07  7.0427347563137444e-07  7.0437799499397155e-07  7.0416120656779579e-07  7.0364520476563858e-07  7.0291034864985758e-07  7.0203767132748123e-07  7.0099466124325076e-07  6.9984715889349432e-07  6.9866120127961558e-07  6.9740264581947690e-07  6.9611181257002402e-07  6.9481301505243609e-07  6.9351246544630115e-07  6.9221771735947805e-07  6.9095750608476835e-07  6.8976098633996195e-07  6.8859091842942733e-07  6.8748649825369211e-07  6.8645222946154534e-07  6.8549924570494312e-07  6.8462982548039671e-07  6.8384822223086172e-07  6.8316937180387984e-07  6.8258852292134411e-07  6.8211503401418675e-07  6.8175208506105405e-07  6.8149911215953158e-07  6.8133530295757603e-07  1.3724055428321004e-06  1.3731396747563506e-06  6.8248212138865215e-07  6.8401124170558241e-07  6.8660404058227116e-07  6.8980214172258494e-07  6.9299071250028895e-07  6.9599084106713954e-07  6.9880911101649883e-07  7.0129255131895750e-07  7.0318515660457542e-07  7.0445427025714016e-07  7.0519735185322641e-07  7.0542439523683320e-07  7.0533490154147907e-07  7.0497550995619021e-07  7.0435476181480693e-07  7.0354311540715384e-07  7.0259242364670446e-07  7.0150341488875988e-07  7.0032676216479363e-07  6.9911588951595471e-07  6.9782773220743988e-07  6.9650518303885814e-07  6.9520690546589246e-07  6.9388298578800613e-07  6.9257387500416998e-07  6.9130018252769970e-07  6.9009126770857032e-07  6.8891301725917755e-07  6.8779523163702814e-07  6.8675415749660829e-07  6.8579243982170291e-07  6.8491518984569076e-07  6.8412440761982045e-07  6.8343699589231177e-07  6.8285274775618016e-07  6.8237669078453839e-07  6.8201100023524866e-07  6.8175309821128368e-07  6.8155247578033867e-07  1.3725766751474885e-06  1.3726590343413270e-06  6.8300625556945919e-07  6.8771261773496257e-07  6.9346474280161431e-07  6.9737254278772731e-07  6.9902262221352685e-07  7.0036683550853388e-07  7.0276348907100315e-07  7.0491932196871824e-07  7.0615766080813799e-07  7.0675345334043586e-07  7.0699323343219791e-07  7.0688454829880413e-07  7.0649209308149224e-07  7.0590262315381375e-07  7.0512887615878243e-07  7.0421157287194219e-07  7.0318724799650176e-07  7.0204556387998572e-07  7.0083339882165028e-07  6.9958853510616495e-07  6.9829484062107290e-07  6.9694554152263000e-07  6.9560843227693514e-07  6.9428476199045538e-07  6.9297706147354317e-07  6.9171552969425699e-07  6.9048256635505087e-07  6.8930098642466917e-07  6.8818455400704309e-07  6.8714554118583477e-07  6.8617697955153568e-07  6.8529334713770716e-07  6.8450130129906227e-07  6.8381219359111559e-07  6.8322677471717137e-07  6.8275126721379798e-07  6.8238474183336972e-07  6.8212353891073252e-07  6.8187199539406888e-07  1.3728391945885749e-06  1.4858892516968213e-06  7.1790703909905019e-07  7.6657993128746036e-07  7.8546098586333099e-07  7.9082298163121017e-07  7.5241889593257007e-07  7.2089258005444593e-07  7.1470824220717362e-07  7.1200988527735733e-07  7.1057155704539385e-07  7.0984328480282117e-07  7.0929943002813015e-07  7.0869958787179370e-07  7.0793157445862007e-07  7.0706595907443413e-07  7.0610914276838543e-07  7.0505986201205986e-07  7.0394140419038093e-07  7.0275508765658161e-07  7.0149444534400522e-07  7.0019590689249528e-07  6.9887952665727898e-07  6.9752378259871970e-07  6.9614645271921593e-07  6.9481556462914476e-07  6.9350829268395827e-07  6.9224331009651199e-07  6.9100203516421566e-07  6.8982189367736892e-07  6.8870299386697499e-07  6.8765590927445079e-07  6.8667889298503591e-07  6.8579268250519913e-07  6.8500369037272261e-07  6.8431171290423910e-07  6.8372577831310608e-07  6.8325078962420704e-07  6.8288272385690783e-07  6.8261628238206355e-07  6.8229556087165895e-07  1.3731927774330877e-06  1.5537814552780163e-06  1.1340928871223221e-06  7.1279001069446237e-03  8.1250965888028534e-02  4.4242018155346945e-02  6.5564461500303978e-06  1.5224739292817594e-06  9.8411213932517417e-07  7.8579068521786084e-07  7.2567608854645681e-07  7.1545764756243344e-07  7.1241713224270845e-07  7.1086930667619644e-07  7.0962811602843540e-07  7.0840633652162774e-07  7.0724278264333746e-07  7.0607755731890008e-07  7.0488363074447624e-07  7.0361990372497022e-07  7.0230431349339003e-07  7.0097624296406436e-07  6.9961572524151473e-07  6.9822118576431946e-07  6.9684549188774728e-07  6.9549613313781279e-07  6.9417659610566575e-07  6.9289709198762379e-07  6.9166197891843403e-07  6.9047735329132365e-07  6.8934854802141134e-07  6.8828779053005533e-07  6.8731127700666203e-07  6.8642528748374913e-07  6.8563599482841354e-07  6.8494098560244204e-07  6.8435483631970489e-07  6.8387687062526732e-07  6.8350463533135736e-07  6.8323471497315712e-07  6.8283179966249517e-07  1.3736432565147979e-06  9.9999605727270635e-01  9.9999354225352433e-01  9.9999768679174172e-01  9.9999745994022182e-01  9.9999213089218741e-01  8.3988920859554050e-01  5.2103005291254900e-01  2.2749986367662878e-01  2.8415547094356205e-05  1.2401130271532519e-06  8.0301569294954727e-07  7.2619344271251709e-07  7.1507999159954801e-07  7.1178627901616647e-07  7.0988769956761237e-07  7.0847874296857407e-07  7.0723268681475280e-07  7.0599362856136237e-07  7.0467943294633796e-07  7.0328937638794935e-07  7.0190665324764702e-07  7.0049144482394631e-07  6.9906942995311892e-07  6.9768395187332879e-07  6.9632477847084560e-07  6.9498248369409395e-07  6.9369220135429737e-07  6.9245817791505779e-07  6.9126374717995167e-07  6.9012805806249748e-07  6.8906100444583991e-07  6.8808765578229955e-07  6.8720151011108386e-07  6.8640341287803488e-07  6.8570355123582257e-07  6.8511267225058022e-07  6.8463067399013383e-07  6.8425895338054154e-07  6.8398327925691700e-07  6.8348068357802314e-07  1.3741967232480474e-06  9.9999972591977382e-01  9.9999981131118654e-01  9.9999975738364277e-01  9.9999967841447079e-01  9.9999955287318254e-01  9.9999932172931671e-01  9.9999877126215897e-01  9.9999577993634026e-01  7.3914912908678754e-01  3.3264322980230782e-01  1.3736372343767813e-02  1.1989078493131069e-06  7.8287087421118793e-07  7.2106781635243241e-07  7.1241630895308732e-07  7.0997979153907108e-07  7.0858407958325634e-07  7.0728297734181037e-07  7.0592008128308560e-07  7.0444859213641567e-07  7.0297130707209328e-07  7.0150808245801598e-07  7.0006774637983496e-07  6.9866793851379783e-07  6.9728888177331925e-07  6.9593652470010398e-07  6.9464320937105890e-07  6.9339939753530199e-07  6.9219968022233812e-07  6.9105291641691250e-07  6.8998713041285981e-07  6.8901185392103303e-07  6.8812021230113120e-07  6.8731018753964148e-07  6.8660564802359026e-07  6.8601488580225431e-07  6.8553122151352612e-07  6.8515876462590339e-07  6.8487344901122587e-07  6.8424741595557450e-07  1.3748488652238207e-06  9.9999986358995874e-01  9.9999992128271131e-01  9.9999989519507193e-01  9.9999985844308725e-01  9.9999981161094531e-01  9.9999974813450832e-01  9.9999964885728598e-01  9.9999945496896703e-01  9.9999895562964258e-01  9.9999629488318709e-01  7.2393270347642691e-01  2.9793702873841077e-01  9.2077665604830434e-06  1.0156790727948231e-06  7.5012922381890113e-07  7.1605581005430330e-07  7.1076536025983102e-07  7.0896327630828017e-07  7.0743960774252887e-07  7.0578268201574894e-07  7.0417122037679346e-07  7.0267019184606070e-07  7.0121774564719929e-07  6.9979911461976206e-07  6.9841255208001630e-07  6.9705455328905789e-07  6.9575219981955308e-07  6.9448782126694471e-07  6.9328286382053710e-07  6.9213267755046507e-07  6.9106710577284582e-07  6.9008438930768936e-07  6.8918428154363088e-07  6.8837079833311656e-07  6.8766254583912926e-07  6.8706537999117121e-07  6.8657942585686417e-07  6.8620330206403929e-07  6.8590758523751562e-07  6.8514230255058364e-07  1.3756111371085675e-06  9.9999988260990069e-01  9.9999993984508806e-01  9.9999992249233405e-01  9.9999989851932547e-01  9.9999987037113836e-01  9.9999983776800527e-01  9.9999979684343721e-01  9.9999973813107002e-01  9.9999963877417497e-01  9.9999942758653504e-01  9.9999881065335849e-01  9.9999330084174065e-01  6.1529918578623366e-01  2.0147864383695807e-01  2.3878437672434748e-06  8.7813741198750032e-07  7.3042957191722460e-07  7.1375360754123489e-07  7.0970712770766032e-07  7.0726415105248308e-07  7.0547238508509161e-07  7.0394132053781988e-07  7.0251524228221409e-07  7.0109929828507142e-07  6.9970767477389117e-07  6.9833312865767931e-07  6.9701361240092779e-07  6.9574120842528195e-07  6.9452851784414190e-07  6.9338173004730436e-07  6.9230857255458444e-07  6.9130995490045252e-07  6.9039670727178345e-07  6.8958169553608219e-07  6.8887190222958872e-07  6.8827209469494472e-07  6.8778130298369498e-07  6.8740001390926310e-07  6.8709229848769496e-07  6.8616546559311425e-07  1.3764871833382635e-06  9.9999984377251383e-01  9.9999992810387262e-01  9.9999991479494610e-01  9.9999989749552054e-01  9.9999987912254962e-01  9.9999986010323583e-01  9.9999983886874355e-01  9.9999981207711364e-01  9.9999977375645288e-01  9.9999971201298488e-01  9.9999959725220022e-01  9.9999932585988649e-01  9.9999838202624591e-01  9.7034463798947390e-01  4.7996103324506090e-01  9.5550687527037145e-02  1.4122401599660268e-06  8.0131529075572761e-07  7.2008593829776037e-07  7.0965659311842065e-07  7.0694067762812006e-07  7.0538121449139133e-07  7.0398783987890700e-07  7.0259912237198960e-07  7.0117731388152977e-07  6.9978395796727689e-07  6.9843949836813183e-07  6.9716377936294067e-07  6.9594704607220507e-07  6.9480138046092434e-07  6.9372089654185578e-07  6.9271550303851339e-07  6.9179903576454854e-07  6.9098003799115268e-07  6.9025697895058769e-07  6.8965066063243058e-07  6.8915782261626951e-07  6.8876897161164373e-07  6.8844515689581501e-07  6.8733356060173363e-07  1.3774798341540466e-06  9.9999960601693150e-01  9.9999985515786882e-01  9.9999985822124671e-01  9.9999985696436422e-01  9.9999985356517274e-01  9.9999984876357106e-01  9.9999984198385838e-01  9.9999983185388586e-01  9.9999981616725775e-01  9.9999979132732808e-01  9.9999975058153290e-01  9.9999967895366748e-01  9.9999953456700541e-01  9.9999914865386963e-01  9.9999744470145868e-01  8.0438853279513556e-01  3.4463685076853351e-01  3.1702770911279936e-03  1.0345008379881588e-06  7.4704322415046576e-07  7.1286102859868243e-07  7.0757014554722196e-07  7.0579666478343809e-07  7.0438215548092153e-07  7.0287429682110168e-07  7.0141931847471576e-07  7.0005269212264105e-07  6.9877148891127966e-07  6.9755769238184483e-07  6.9641396619898833e-07  6.9533262209657372e-07  6.9431874592735961e-07  6.9339453352576264e-07  6.9256786295022384e-07  6.9183753067604386e-07  6.9121505315477930e-07  6.9070462742951470e-07  6.9030080662968582e-07  6.8995677926929992e-07  6.8864481322619877e-07  1.3786077103902836e-06  6.9239197415239684e-01  9.9999912577824979e-01  9.9999955870357249e-01  9.9999970580531616e-01  9.9999976677731350e-01  9.9999979735607492e-01  9.9999981376502645e-01  9.9999982142732358e-01  9.9999982211604410e-01  9.9999981582513320e-01  9.9999980105261244e-01  9.9999977411778762e-01  9.9999972682629201e-01  9.9999963901820732e-01  9.9999944743102720e-01  9.9999887995415071e-01  9.9999436982262635e-01  6.3582979447317434e-01  2.0815035890941341e-01  2.3432394542975094e-06  8.6876427253650256e-07  7.2588901621960968e-07  7.1041173727342628e-07  7.0699530736718951e-07  7.0483427444816454e-07  7.0319569116312101e-07  7.0183673288018491e-07  7.0059389160120237e-07  6.9940075241163282e-07  6.9826012916826304e-07  6.9716781560841138e-07  6.9614194159116429e-07  6.9520358685867871e-07  6.9435402675548453e-07  6.9360064878818188e-07  6.9295808782126978e-07  6.9243227211995161e-07  6.9202267862174653e-07  6.9166172811247524e-07  6.9010621591565856e-07  1.3798530176844238e-06  1.5451001232530383e-06  4.7930334890024358e-02  8.8429036150931695e-01  9.9999865601436277e-01  9.9999942995264923e-01  9.9999964485201687e-01  9.9999973179493595e-01  9.9999977576903554e-01  9.9999979938863792e-01  9.9999981075375399e-01  9.9999981288569961e-01  9.9999980629220897e-01  9.9999978945292600e-01  9.9999975789044626e-01  9.9999970090111701e-01  9.9999958985353143e-01  9.9999932161247840e-01  9.9999836907436024e-01  9.6150379122625595e-01  4.7276250719423502e-01  8.8750142908681773e-02  1.3546800657062947e-06  7.9145636806535926e-07  7.1755443532885653e-07  7.0771124336488277e-07  7.0519864950387916e-07  7.0383176076812934e-07  7.0263723197917412e-07  7.0148266474644258e-07  7.0034145927609117e-07  6.9923557847777815e-07  6.9819256882332553e-07  6.9724099658735703e-07  6.9637667489264673e-07  6.9559881250573731e-07  6.9492376137235094e-07  6.9436957685431112e-07  6.9393063187496574e-07  6.9354236228290026e-07  6.9172710261372337e-07  1.3812349466327668e-06  1.3825074377600097e-06  8.0975220215653466e-07  3.2115603343405158e-02  4.8870845177576128e-01  9.9999200702108870e-01  9.9999888751119426e-01  9.9999946430384812e-01  9.9999964917957362e-01  9.9999973116883878e-01  9.9999977399400675e-01  9.9999979692857510e-01  9.9999980733718263e-01  9.9999980802580479e-01  9.9999979920240878e-01  9.9999977871642942e-01  9.9999974058362351e-01  9.9999966993498068e-01  9.9999952355923927e-01  9.9999912495670651e-01  9.9999729455077013e-01  7.8720375948363197e-01  3.3032646897116091e-01  2.8720224647305681e-05  1.0088148707072585e-06  7.4262523491930354e-07  7.1145245443339933e-07  7.0656901890331531e-07  7.0501769401662858e-07  7.0389971685101450e-07  7.0272306822557609e-07  7.0156488546610950e-07  7.0049389533685959e-07  6.9952217738027440e-07  6.9863290886046288e-07  6.9783430431831513e-07  6.9713364974373924e-07  6.9653355445461495e-07  6.9604607686078521e-07  6.9559130990613836e-07  6.9347892752008682e-07  1.3827313386158161e-06  1.3832756154918616e-06  7.0079064001571941e-07  8.0362766842737462e-07  2.3494076339644346e-06  2.5086424291609538e-01  7.3949604671572389e-01  9.9999714043131460e-01  9.9999912251157286e-01  9.9999952546024617e-01  9.9999967176497451e-01  9.9999974151660143e-01  9.9999977876007762e-01  9.9999979840556652e-01  9.9999980629205076e-01  9.9999980443602776e-01  9.9999979237273229e-01  9.9999976691712944e-01  9.9999971992729286e-01  9.9999963060739994e-01  9.9999943229587462e-01  9.9999883339064999e-01  9.9999342442673222e-01  6.1802178932214569e-01  1.9490422402961866e-01  2.1510256600476530e-06  8.5789757848310215e-07  7.2427443967559975e-07  7.0989614537336076e-07  7.0723046650750737e-07  7.0552384875180142e-07  7.0418430050840302e-07  7.0309730071330967e-07  7.0211574581950190e-07  7.0120626224825224e-07  7.0036552153095294e-07  6.9960126106246536e-07  6.9892850569072948e-07  6.9836627188159358e-07  6.9784750154109826e-07  6.9539743190334766e-07  1.3843592315322459e-06  1.3892352522727367e-06  7.0112061618164651e-07  7.1446379509030987e-07  7.5760532138518854e-07  1.1280008975893759e-06  5.1624233108933271e-02  4.3120923078704243e-01  9.2746238665715208e-01  9.9999825754798166e-01  9.9999929751867334e-01  9.9999958133005062e-01  9.9999969582929038e-01  9.9999975358952009e-01  9.9999978487157870e-01  9.9999980074780881e-01  9.9999980559926960e-01  9.9999980062338145e-01  9.9999978460748484e-01  9.9999975314101852e-01  9.9999969522915544e-01  9.9999958105286058e-01  9.9999930100429091e-01  9.9999828787704226e-01  9.4295690810635568e-01  4.5813791911575669e-01  7.8650419331930038e-02  1.3076985526763372e-06  7.8614344509055462e-07  7.1865039610475092e-07  7.0937661319207532e-07  7.0716853868930937e-07  7.0603043667499470e-07  7.0506553187235843e-07  7.0416245491377812e-07  7.0326656673379031e-07  7.0238931749997659e-07  7.0159604313188613e-07  7.0091558165860392e-07  7.0026848966928905e-07  6.9743495275670084e-07  1.3860969060975951e-06  1.3917427509002279e-06  7.0404917259571607e-07  7.1157625820837207e-07  7.1830943394401069e-07  7.3538566120426131e-07  8.4732836371740599e-07  1.9017715176749100e-06  1.7414412277083124e-01  5.9593144156179967e-01  9.9999230787056004e-01  9.9999879663265068e-01  9.9999942239320405e-01  9.9999962644421780e-01  9.9999971742136029e-01  9.9999976505207855e-01  9.9999979074476919e-01  9.9999980279024436e-01  9.9999980441442948e-01  9.9999979604976641e-01  9.9999977558148490e-01  9.9999973694094535e-01  9.9999966478707059e-01  9.9999951408307108e-01  9.9999910082285715e-01  9.9999713256066491e-01  7.7140207876511091e-01  3.1790319025097757e-01  1.3214644497098857e-05  9.9621314700334264e-07  7.4372032750499174e-07  7.1436666465410159e-07  7.0985964217141120e-07  7.0849842058479023e-07  7.0761978731434589e-07  7.0665611438131156e-07  7.0558574495436348e-07  7.0456297007047381e-07  7.0366735808907970e-07  7.0280373941813451e-07  6.9952077043611619e-07  1.3878703966394525e-06  1.3920612843777264e-06  7.0439188429082768e-07  7.0991548323815784e-07  7.1332453728835625e-07  7.1703657760848570e-07  7.2220384568488672e-07  7.4935888786486778e-07  9.8841930309535512e-07  9.5119639710639192e-06  3.0965966754784552e-01  7.6373510263093114e-01  9.9999706864763083e-01  9.9999909268330456e-01  9.9999951108199148e-01  9.9999966339960711e-01  9.9999973614440962e-01  9.9999977504702264e-01  9.9999979563816177e-01  9.9999980407486422e-01  9.9999980248001830e-01  9.9999979042978726e-01  9.9999976470300478e-01  9.9999971699080226e-01  9.9999962588653235e-01  9.9999942208308368e-01  9.9999879961342308e-01  9.9999258622996889e-01  6.0502003725592313e-01  1.8573831273116345e-01  2.0588459157510272e-06  8.5615571067869342e-07  7.2818116851214995e-07  7.1428637341710454e-07  7.1228011362491731e-07  7.1076363891208641e-07  7.0926524548410872e-07  7.0789493745476710e-07  7.0660903087753066e-07  7.0538257247503518e-07  7.0157354160829759e-07  1.3896109721748877e-06  1.3911071738027274e-06  7.0330650929422611e-07  7.0782881401675404e-07  7.0975402627793179e-07  7.1175169073515016e-07  7.1368389374599108e-07  7.1628762883853947e-07  7.2557553252235384e-07  7.882673384