<?xml version="1.0"?>
<VTKFile type="UnstructuredGrid"  version="0.1"  >
<UnstructuredGrid>
<Piece  NumberOfPoints="1681" NumberOfCells="3200">
<Points>
<DataArray  type="Float64"  NumberOfComponents="3"  format="ascii">0 0 0  0.025 0 0  0.05 0 0  0.075 0 0  0.1 0 0  0.125 0 0  0.15 0 0  0.175 0 0  0.2 0 0  0.225 0 0  0.25 0 0  0.275 0 0  0.3 0 0  0.325 0 0  0.35 0 0  0.375 0 0  0.4 0 0  0.425 0 0  0.45 0 0  0.475 0 0  0.5 0 0  0.525 0 0  0.55 0 0  0.575 0 0  0.6 0 0  0.625 0 0  0.65 0 0  0.675 0 0  0.7 0 0  0.725 0 0  0.75 0 0  0.775 0 0  0.8 0 0  0.825 0 0  0.85 0 0  0.875 0 0  0.9 0 0  0.925 0 0  0.95 0 0  0.975 0 0  1 0 0  0 0.025 0  0.025 0.025 0  0.05 0.025 0  0.075 0.025 0  0.1 0.025 0  0.125 0.025 0  0.15 0.025 0  0.175 0.025 0  0.2 0.025 0  0.225 0.025 0  0.25 0.025 0  0.275 0.025 0  0.3 0.025 0  0.325 0.025 0  0.35 0.025 0  0.375 0.025 0  0.4 0.025 0  0.425 0.025 0  0.45 0.025 0  0.475 0.025 0  0.5 0.025 0  0.525 0.025 0  0.55 0.025 0  0.575 0.025 0  0.6 0.025 0  0.625 0.025 0  0.65 0.025 0  0.675 0.025 0  0.7 0.025 0  0.725 0.025 0  0.75 0.025 0  0.775 0.025 0  0.8 0.025 0  0.825 0.025 0  0.85 0.025 0  0.875 0.025 0  0.9 0.025 0  0.925 0.025 0  0.95 0.025 0  0.975 0.025 0  1 0.025 0  0 0.05 0  0.025 0.05 0  0.05 0.05 0  0.075 0.05 0  0.1 0.05 0  0.125 0.05 0  0.15 0.05 0  0.175 0.05 0  0.2 0.05 0  0.225 0.05 0  0.25 0.05 0  0.275 0.05 0  0.3 0.05 0  0.325 0.05 0  0.35 0.05 0  0.375 0.05 0  0.4 0.05 0  0.425 0.05 0  0.45 0.05 0  0.475 0.05 0  0.5 0.05 0  0.525 0.05 0  0.55 0.05 0  0.575 0.05 0  0.6 0.05 0  0.625 0.05 0  0.65 0.05 0  0.675 0.05 0  0.7 0.05 0  0.725 0.05 0  0.75 0.05 0  0.775 0.05 0  0.8 0.05 0  0.825 0.05 0  0.85 0.05 0  0.875 0.05 0  0.9 0.05 0  0.925 0.05 0  0.95 0.05 0  0.975 0.05 0  1 0.05 0  0 0.075 0  0.025 0.075 0  0.05 0.075 0  0.075 0.075 0  0.1 0.075 0  0.125 0.075 0  0.15 0.075 0  0.175 0.075 0  0.2 0.075 0  0.225 0.075 0  0.25 0.075 0  0.275 0.075 0  0.3 0.075 0  0.325 0.075 0  0.35 0.075 0  0.375 0.075 0  0.4 0.075 0  0.425 0.075 0  0.45 0.075 0  0.475 0.075 0  0.5 0.075 0  0.525 0.075 0  0.55 0.075 0  0.575 0.075 0  0.6 0.075 0  0.625 0.075 0  0.65 0.075 0  0.675 0.075 0  0.7 0.075 0  0.725 0.075 0  0.75 0.075 0  0.775 0.075 0  0.8 0.075 0  0.825 0.075 0  0.85 0.075 0  0.875 0.075 0  0.9 0.075 0  0.925 0.075 0  0.95 0.075 0  0.975 0.075 0  1 0.075 0  0 0.1 0  0.025 0.1 0  0.05 0.1 0  0.075 0.1 0  0.1 0.1 0  0.125 0.1 0  0.15 0.1 0  0.175 0.1 0  0.2 0.1 0  0.225 0.1 0  0.25 0.1 0  0.275 0.1 0  0.3 0.1 0  0.325 0.1 0  0.35 0.1 0  0.375 0.1 0  0.4 0.1 0  0.425 0.1 0  0.45 0.1 0  0.475 0.1 0  0.5 0.1 0  0.525 0.1 0  0.55 0.1 0  0.575 0.1 0  0.6 0.1 0  0.625 0.1 0  0.65 0.1 0  0.675 0.1 0  0.7 0.1 0  0.725 0.1 0  0.75 0.1 0  0.775 0.1 0  0.8 0.1 0  0.825 0.1 0  0.85 0.1 0  0.875 0.1 0  0.9 0.1 0  0.925 0.1 0  0.95 0.1 0  0.975 0.1 0  1 0.1 0  0 0.125 0  0.025 0.125 0  0.05 0.125 0  0.075 0.125 0  0.1 0.125 0  0.125 0.125 0  0.15 0.125 0  0.175 0.125 0  0.2 0.125 0  0.225 0.125 0  0.25 0.125 0  0.275 0.125 0  0.3 0.125 0  0.325 0.125 0  0.35 0.125 0  0.375 0.125 0  0.4 0.125 0  0.425 0.125 0  0.45 0.125 0  0.475 0.125 0  0.5 0.125 0  0.525 0.125 0  0.55 0.125 0  0.575 0.125 0  0.6 0.125 0  0.625 0.125 0  0.65 0.125 0  0.675 0.125 0  0.7 0.125 0  0.725 0.125 0  0.75 0.125 0  0.775 0.125 0  0.8 0.125 0  0.825 0.125 0  0.85 0.125 0  0.875 0.125 0  0.9 0.125 0  0.925 0.125 0  0.95 0.125 0  0.975 0.125 0  1 0.125 0  0 0.15 0  0.025 0.15 0  0.05 0.15 0  0.075 0.15 0  0.1 0.15 0  0.125 0.15 0  0.15 0.15 0  0.175 0.15 0  0.2 0.15 0  0.225 0.15 0  0.25 0.15 0  0.275 0.15 0  0.3 0.15 0  0.325 0.15 0  0.35 0.15 0  0.375 0.15 0  0.4 0.15 0  0.425 0.15 0  0.45 0.15 0  0.475 0.15 0  0.5 0.15 0  0.525 0.15 0  0.55 0.15 0  0.575 0.15 0  0.6 0.15 0  0.625 0.15 0  0.65 0.15 0  0.675 0.15 0  0.7 0.15 0  0.725 0.15 0  0.75 0.15 0  0.775 0.15 0  0.8 0.15 0  0.825 0.15 0  0.85 0.15 0  0.875 0.15 0  0.9 0.15 0  0.925 0.15 0  0.95 0.15 0  0.975 0.15 0  1 0.15 0  0 0.175 0  0.025 0.175 0  0.05 0.175 0  0.075 0.175 0  0.1 0.175 0  0.125 0.175 0  0.15 0.175 0  0.175 0.175 0  0.2 0.175 0  0.225 0.175 0  0.25 0.175 0  0.275 0.175 0  0.3 0.175 0  0.325 0.175 0  0.35 0.175 0  0.375 0.175 0  0.4 0.175 0  0.425 0.175 0  0.45 0.175 0  0.475 0.175 0  0.5 0.175 0  0.525 0.175 0  0.55 0.175 0  0.575 0.175 0  0.6 0.175 0  0.625 0.175 0  0.65 0.175 0  0.675 0.175 0  0.7 0.175 0  0.725 0.175 0  0.75 0.175 0  0.775 0.175 0  0.8 0.175 0  0.825 0.175 0  0.85 0.175 0  0.875 0.175 0  0.9 0.175 0  0.925 0.175 0  0.95 0.175 0  0.975 0.175 0  1 0.175 0  0 0.2 0  0.025 0.2 0  0.05 0.2 0  0.075 0.2 0  0.1 0.2 0  0.125 0.2 0  0.15 0.2 0  0.175 0.2 0  0.2 0.2 0  0.225 0.2 0  0.25 0.2 0  0.275 0.2 0  0.3 0.2 0  0.325 0.2 0  0.35 0.2 0  0.375 0.2 0  0.4 0.2 0  0.425 0.2 0  0.45 0.2 0  0.475 0.2 0  0.5 0.2 0  0.525 0.2 0  0.55 0.2 0  0.575 0.2 0  0.6 0.2 0  0.625 0.2 0  0.65 0.2 0  0.675 0.2 0  0.7 0.2 0  0.725 0.2 0  0.75 0.2 0  0.775 0.2 0  0.8 0.2 0  0.825 0.2 0  0.85 0.2 0  0.875 0.2 0  0.9 0.2 0  0.925 0.2 0  0.95 0.2 0  0.975 0.2 0  1 0.2 0  0 0.225 0  0.025 0.225 0  0.05 0.225 0  0.075 0.225 0  0.1 0.225 0  0.125 0.225 0  0.15 0.225 0  0.175 0.225 0  0.2 0.225 0  0.225 0.225 0  0.25 0.225 0  0.275 0.225 0  0.3 0.225 0  0.325 0.225 0  0.35 0.225 0  0.375 0.225 0  0.4 0.225 0  0.425 0.225 0  0.45 0.225 0  0.475 0.225 0  0.5 0.225 0  0.525 0.225 0  0.55 0.225 0  0.575 0.225 0  0.6 0.225 0  0.625 0.225 0  0.65 0.225 0  0.675 0.225 0  0.7 0.225 0  0.725 0.225 0  0.75 0.225 0  0.775 0.225 0  0.8 0.225 0  0.825 0.225 0  0.85 0.225 0  0.875 0.225 0  0.9 0.225 0  0.925 0.225 0  0.95 0.225 0  0.975 0.225 0  1 0.225 0  0 0.25 0  0.025 0.25 0  0.05 0.25 0  0.075 0.25 0  0.1 0.25 0  0.125 0.25 0  0.15 0.25 0  0.175 0.25 0  0.2 0.25 0  0.225 0.25 0  0.25 0.25 0  0.275 0.25 0  0.3 0.25 0  0.325 0.25 0  0.35 0.25 0  0.375 0.25 0  0.4 0.25 0  0.425 0.25 0  0.45 0.25 0  0.475 0.25 0  0.5 0.25 0  0.525 0.25 0  0.55 0.25 0  0.575 0.25 0  0.6 0.25 0  0.625 0.25 0  0.65 0.25 0  0.675 0.25 0  0.7 0.25 0  0.725 0.25 0  0.75 0.25 0  0.775 0.25 0  0.8 0.25 0  0.825 0.25 0  0.85 0.25 0  0.875 0.25 0  0.9 0.25 0  0.925 0.25 0  0.95 0.25 0  0.975 0.25 0  1 0.25 0  0 0.275 0  0.025 0.275 0  0.05 0.275 0  0.075 0.275 0  0.1 0.275 0  0.125 0.275 0  0.15 0.275 0  0.175 0.275 0  0.2 0.275 0  0.225 0.275 0  0.25 0.275 0  0.275 0.275 0  0.3 0.275 0  0.325 0.275 0  0.35 0.275 0  0.375 0.275 0  0.4 0.275 0  0.425 0.275 0  0.45 0.275 0  0.475 0.275 0  0.5 0.275 0  0.525 0.275 0  0.55 0.275 0  0.575 0.275 0  0.6 0.275 0  0.625 0.275 0  0.65 0.275 0  0.675 0.275 0  0.7 0.275 0  0.725 0.275 0  0.75 0.275 0  0.775 0.275 0  0.8 0.275 0  0.825 0.275 0  0.85 0.275 0  0.875 0.275 0  0.9 0.275 0  0.925 0.275 0  0.95 0.275 0  0.975 0.275 0  1 0.275 0  0 0.3 0  0.025 0.3 0  0.05 0.3 0  0.075 0.3 0  0.1 0.3 0  0.125 0.3 0  0.15 0.3 0  0.175 0.3 0  0.2 0.3 0  0.225 0.3 0  0.25 0.3 0  0.275 0.3 0  0.3 0.3 0  0.325 0.3 0  0.35 0.3 0  0.375 0.3 0  0.4 0.3 0  0.425 0.3 0  0.45 0.3 0  0.475 0.3 0  0.5 0.3 0  0.525 0.3 0  0.55 0.3 0  0.575 0.3 0  0.6 0.3 0  0.625 0.3 0  0.65 0.3 0  0.675 0.3 0  0.7 0.3 0  0.725 0.3 0  0.75 0.3 0  0.775 0.3 0  0.8 0.3 0  0.825 0.3 0  0.85 0.3 0  0.875 0.3 0  0.9 0.3 0  0.925 0.3 0  0.95 0.3 0  0.975 0.3 0  1 0.3 0  0 0.325 0  0.025 0.325 0  0.05 0.325 0  0.075 0.325 0  0.1 0.325 0  0.125 0.325 0  0.15 0.325 0  0.175 0.325 0  0.2 0.325 0  0.225 0.325 0  0.25 0.325 0  0.275 0.325 0  0.3 0.325 0  0.325 0.325 0  0.35 0.325 0  0.375 0.325 0  0.4 0.325 0  0.425 0.325 0  0.45 0.325 0  0.475 0.325 0  0.5 0.325 0  0.525 0.325 0  0.55 0.325 0  0.575 0.325 0  0.6 0.325 0  0.625 0.325 0  0.65 0.325 0  0.675 0.325 0  0.7 0.325 0  0.725 0.325 0  0.75 0.325 0  0.775 0.325 0  0.8 0.325 0  0.825 0.325 0  0.85 0.325 0  0.875 0.325 0  0.9 0.325 0  0.925 0.325 0  0.95 0.325 0  0.975 0.325 0  1 0.325 0  0 0.35 0  0.025 0.35 0  0.05 0.35 0  0.075 0.35 0  0.1 0.35 0  0.125 0.35 0  0.15 0.35 0  0.175 0.35 0  0.2 0.35 0  0.225 0.35 0  0.25 0.35 0  0.275 0.35 0  0.3 0.35 0  0.325 0.35 0  0.35 0.35 0  0.375 0.35 0  0.4 0.35 0  0.425 0.35 0  0.45 0.35 0  0.475 0.35 0  0.5 0.35 0  0.525 0.35 0  0.55 0.35 0  0.575 0.35 0  0.6 0.35 0  0.625 0.35 0  0.65 0.35 0  0.675 0.35 0  0.7 0.35 0  0.725 0.35 0  0.75 0.35 0  0.775 0.35 0  0.8 0.35 0  0.825 0.35 0  0.85 0.35 0  0.875 0.35 0  0.9 0.35 0  0.925 0.35 0  0.95 0.35 0  0.975 0.35 0  1 0.35 0  0 0.375 0  0.025 0.375 0  0.05 0.375 0  0.075 0.375 0  0.1 0.375 0  0.125 0.375 0  0.15 0.375 0  0.175 0.375 0  0.2 0.375 0  0.225 0.375 0  0.25 0.375 0  0.275 0.375 0  0.3 0.375 0  0.325 0.375 0  0.35 0.375 0  0.375 0.375 0  0.4 0.375 0  0.425 0.375 0  0.45 0.375 0  0.475 0.375 0  0.5 0.375 0  0.525 0.375 0  0.55 0.375 0  0.575 0.375 0  0.6 0.375 0  0.625 0.375 0  0.65 0.375 0  0.675 0.375 0  0.7 0.375 0  0.725 0.375 0  0.75 0.375 0  0.775 0.375 0  0.8 0.375 0  0.825 0.375 0  0.85 0.375 0  0.875 0.375 0  0.9 0.375 0  0.925 0.375 0  0.95 0.375 0  0.975 0.375 0  1 0.375 0  0 0.4 0  0.025 0.4 0  0.05 0.4 0  0.075 0.4 0  0.1 0.4 0  0.125 0.4 0  0.15 0.4 0  0.175 0.4 0  0.2 0.4 0  0.225 0.4 0  0.25 0.4 0  0.275 0.4 0  0.3 0.4 0  0.325 0.4 0  0.35 0.4 0  0.375 0.4 0  0.4 0.4 0  0.425 0.4 0  0.45 0.4 0  0.475 0.4 0  0.5 0.4 0  0.525 0.4 0  0.55 0.4 0  0.575 0.4 0  0.6 0.4 0  0.625 0.4 0  0.65 0.4 0  0.675 0.4 0  0.7 0.4 0  0.725 0.4 0  0.75 0.4 0  0.775 0.4 0  0.8 0.4 0  0.825 0.4 0  0.85 0.4 0  0.875 0.4 0  0.9 0.4 0  0.925 0.4 0  0.95 0.4 0  0.975 0.4 0  1 0.4 0  0 0.425 0  0.025 0.425 0  0.05 0.425 0  0.075 0.425 0  0.1 0.425 0  0.125 0.425 0  0.15 0.425 0  0.175 0.425 0  0.2 0.425 0  0.225 0.425 0  0.25 0.425 0  0.275 0.425 0  0.3 0.425 0  0.325 0.425 0  0.35 0.425 0  0.375 0.425 0  0.4 0.425 0  0.425 0.425 0  0.45 0.425 0  0.475 0.425 0  0.5 0.425 0  0.525 0.425 0  0.55 0.425 0  0.575 0.425 0  0.6 0.425 0  0.625 0.425 0  0.65 0.425 0  0.675 0.425 0  0.7 0.425 0  0.725 0.425 0  0.75 0.425 0  0.775 0.425 0  0.8 0.425 0  0.825 0.425 0  0.85 0.425 0  0.875 0.425 0  0.9 0.425 0  0.925 0.425 0  0.95 0.425 0  0.975 0.425 0  1 0.425 0  0 0.45 0  0.02
[...]
<PointData  Scalars="ControlVisualisation"> 
<DataArray  type="Float64"  Name="ControlVisualisation"  format="ascii">2.0637751686035361e-06  1.3727358856783606e-06  1.3733553149385563e-06  1.3745621693975513e-06  1.3763771005525584e-06  1.3786418687346404e-06  1.3810856108711523e-06  1.3834422877050716e-06  1.3855144222759700e-06  1.3871863966191913e-06  1.3884167136998774e-06  1.3892195739331306e-06  1.3896417605061033e-06  1.3897424459103977e-06  1.3895802974984952e-06  1.3892074277999552e-06  1.3886676469146138e-06  1.3879968785826867e-06  1.3872244633761652e-06  1.3863746246714774e-06  1.3854677289368489e-06  1.3845212296678627e-06  1.3835503332766044e-06  1.3825684712959791e-06  1.3815876486927007e-06  1.3806187077689542e-06  1.3796715258618226e-06  1.3787551568904250e-06  1.3778779258781979e-06  1.3770474863959697e-06  1.3762708506470897e-06  1.3755544008125602e-06  1.3749038888286943e-06  1.3743244299433833e-06  1.3738204957999968e-06  1.3733959062835769e-06  1.3730538281074790e-06  1.3727967218688253e-06  1.3726270759365995e-06  1.3725433284754079e-06  4.1369410319025496e-06  1.3727133348285825e-06  6.8155895353831213e-07  6.8217802364151079e-07  6.8344316977672306e-07  6.8541219382627917e-07  6.8792553828743217e-07  6.9069040445470596e-07  6.9340787796131674e-07  6.9584169068370022e-07  6.9784075130095476e-07  6.9933936284218662e-07  7.0034175455446972e-07  7.0089590057853588e-07  7.0106806886433661e-07  7.0092616302581859e-07  7.0053163537360039e-07  6.9993672608691616e-07  6.9918451354567710e-07  6.9831024943988672e-07  6.9734302844892492e-07  6.9630726982933378e-07  6.9522383446374322e-07  6.9411081153477435e-07  6.9298407827635003e-07  6.9185771913314557e-07  6.9074435081810895e-07  6.8965537236285943e-07  6.8860114970645470e-07  6.8759114443708123e-07  6.8663399801157502e-07  6.8573758290530703e-07  6.8490903075735771e-07  6.8415474577921780e-07  6.8348040994158425e-07  6.8289098598876694e-07  6.8239071645949612e-07  6.8198313660451420e-07  6.8167108016675600e-07  6.8145644926607533e-07  6.8133429688948374e-07  1.3725433408760168e-06  1.3730671399280736e-06  6.8200612556948214e-07  6.8290375796205073e-07  6.8458860838066492e-07  6.8710273448641589e-07  6.9013535910178129e-07  6.9333003381959585e-07  6.9639319871123092e-07  6.9909499454973312e-07  7.0127414904238521e-07  7.0286425523715664e-07  7.0388769144754900e-07  7.0441316190056773e-07  7.0452100094411080e-07  7.0428782944379283e-07  7.0378098201018153e-07  7.0305684836319052e-07  7.0216152087722638e-07  7.0113269337732126e-07  7.0000174517655031e-07  6.9879538683717441e-07  6.9753675047014839e-07  6.9624608752425421e-07  6.9494126784185471e-07  6.9363818764967803e-07  6.9235111373639831e-07  6.9109295871824689e-07  6.8987548425067417e-07  6.8870944001743481e-07  6.8760465256222927e-07  6.8657007817840431e-07  6.8561383146510646e-07  6.8474319856951667e-07  6.8396464220272770e-07  6.8328380458653262e-07  6.8270550913787962e-07  6.8223378449908489e-07  6.8187171707758047e-07  6.8162038021860479e-07  6.8145704478286256e-07  1.3726273854238241e-06  1.3733575878207947e-06  6.8259979335837204e-07  6.8412599081367317e-07  6.8672180860928630e-07  6.8993282431720792e-07  6.9312149240562461e-07  6.9612144715129710e-07  6.9894779306651012e-07  7.0142657790098887e-07  7.0331721999964382e-07  7.0457859501267369e-07  7.0529910043167294e-07  7.0557533522026474e-07  7.0548774861701245e-07  7.0510544964438021e-07  7.0448723186089670e-07  7.0368083177514416e-07  7.0272433784815065e-07  7.0164891341147893e-07  7.0048126847020898e-07  6.9924510246490752e-07  6.9796167213192529e-07  6.9664999540408333e-07  6.9532704869571539e-07  6.9400804598157122e-07  6.9270674077836181e-07  6.9143567993298286e-07  6.9020638136894366e-07  6.8902944410984532e-07  6.8791461086575075e-07  6.8687080032930206e-07  6.8590612029704899e-07  6.8502786905745614e-07  6.8424253100830639e-07  6.8355577241538589e-07  6.8297243759425283e-07  6.8249655624234198e-07  6.8213110172341088e-07  6.8187522934257508e-07  6.8167461744189974e-07  1.3727988831738735e-06  1.3728776278840848e-06  6.8312675758907070e-07  6.8783004184763225e-07  6.9358431855198214e-07  6.9753056763320352e-07  6.9918057952494218e-07  7.0050417575850171e-07  7.0290863344963680e-07  7.0506278264593655e-07  7.0629367136552461e-07  7.0690317876438111e-07  7.0711437868139410e-07  7.0700792303975783e-07  7.0663201292242969e-07  7.0603691480405912e-07  7.0526616389820932e-07  7.0435278079570042e-07  7.0332123405342190e-07  7.0219192786651149e-07  7.0098445660029615e-07  6.9971834884073728e-07  6.9841239169341305e-07  6.9708388851918499e-07  6.9574842642792483e-07  6.9442006371383618e-07  6.9311164501929168e-07  6.9183504994691917e-07  6.9060133011650563e-07  6.8942076713586744e-07  6.8830289143113664e-07  6.8725648368629752e-07  6.8628956635394992e-07  6.8540938835974315e-07  6.8462240684208611e-07  6.8393427149845469e-07  6.8334981114157302e-07  6.8287302945787579e-07  6.8250673667741027e-07  6.8224738292211272e-07  6.8199520505160386e-07  1.3730619652926308e-06  1.4861624288875960e-06  7.1799672684698682e-07  7.6663533519151548e-07  7.8544882661851723e-07  7.9103037912867501e-07  7.5277257942397225e-07  7.2109003855236071e-07  7.1484777407017710e-07  7.1216553357799649e-07  7.1070748370094345e-07  7.0996400109204320e-07  7.0943380281763841e-07  7.0881507791416216e-07  7.0806574195034881e-07  7.0720067689203422e-07  7.0624261965294723e-07  7.0520323626809220e-07  7.0408518916571609e-07  7.0289291491132571e-07  7.0163733411854215e-07  7.0033409121247122e-07  6.9899999355401712e-07  6.9765067459351833e-07  6.9630000188228276e-07  6.9496045726461440e-07  6.9364364968511536e-07  6.9236059084188564e-07  6.9112175085413951e-07  6.8993702162602679e-07  6.8881567036957018e-07  6.8776630399352450e-07  6.8679683758136847e-07  6.8591446016566917e-07  6.8512559881977618e-07  6.8443588763255374e-07  6.8385014256032988e-07  6.8337234388782143e-07  6.8300510248373823e-07  6.8274136322448105e-07  6.8242171492212730e-07  1.3734180761227238e-06  1.5540761521947555e-06  1.1344734114974001e-06  6.9162470521852027e-03  8.1162316897558651e-02  4.4340102237538440e-02  6.5943027707428939e-06  1.5248907909275892e-06  9.8467925639416700e-07  7.8611602655994933e-07  7.2580267059177602e-07  7.1552742043360931e-07  7.1252552239681736e-07  7.1100441766425762e-07  7.0975502030346275e-07  7.0855378297123575e-07  7.0738610905670314e-07  7.0622050597394576e-07  7.0501758389059274e-07  7.0375896922015484e-07  7.0244820752045685e-07  7.0110030637116814e-07  6.9973220588703364e-07  6.9835824201597418e-07  6.9698995123113764e-07  6.9563755129637070e-07  6.9431102075997725e-07  6.9302035542610968e-07  6.9177539939045953e-07  6.9058562710494205e-07  6.8946001066454501e-07  6.8840695507710559e-07  6.8743425260289076e-07  6.8654903081526338e-07  6.8575769489270393e-07  6.8506587597943701e-07  6.8447839029564481e-07  6.8399920369607601e-07  6.8363069174751500e-07  6.8336145763799384e-07  6.8295765417461402e-07  1.3738700209305610e-06  9.9999606015829479e-01  9.9999356188495980e-01  9.9999768894382246e-01  9.9999746080215257e-01  9.9999213902084416e-01  8.3984630449039333e-01  5.2101850674263928e-01  2.2751368314788564e-01  2.9490533699383499e-05  1.2406646434996993e-06  8.0305624608133155e-07  7.2633258822103270e-07  7.1525271351808098e-07  7.1191973126955247e-07  7.1004163752632587e-07  7.0864610887021470e-07  7.0738883233076598e-07  7.0612067363090225e-07  7.0479685897917628e-07  7.0342194506901963e-07  7.0201925546967181e-07  7.0061082983128747e-07  6.9920954462227838e-07  6.9782261214593815e-07  6.9645662436618527e-07  6.9511951751152615e-07  6.9382032176887770e-07  6.9256836669775786e-07  6.9137274321001004e-07  6.9024210122832611e-07  6.8918460718826722e-07  6.8820791369545338e-07  6.8731909330834539e-07  6.8652455067941436e-07  6.8582994115779561e-07  6.8524010769368952e-07  6.8475902150425131e-07  6.8438879307237724e-07  6.8411281576204658e-07  6.8360737188906194e-07  1.3744212333860733e-06  9.9999972593372233e-01  9.9999981132159643e-01  9.9999975739397928e-01  9.9999967841661541e-01  9.9999955288461639e-01  9.9999932193938867e-01  9.9999877225140255e-01  9.9999579217587597e-01  7.3909298552509628e-01  3.3267923832472462e-01  1.3610927804012400e-02  1.1996509601106582e-06  7.8327816344563564e-07  7.2124337900535324e-07  7.1255731984952961e-07  7.1016079622641347e-07  7.0874335810397164e-07  7.0741882219859998e-07  7.0602858957371166e-07  7.0456657732239894e-07  7.0308953643518418e-07  7.0163440589995076e-07  7.0020665570954540e-07  6.9880297955355699e-07  6.9742410756535445e-07  6.9607605331862134e-07  6.9476755024584975e-07  6.9350783501219129e-07  6.9230569760486574e-07  6.9116938553967387e-07  6.9010674354726923e-07  6.8912525652804386e-07  6.8823196119591262e-07  6.8743330441151336e-07  6.8673501515386162e-07  6.8614201071618882e-07  6.8565830716055288e-07  6.8528573652678774e-07  6.8500158579540019e-07  6.8437603135881781e-07  1.3750757939894498e-06  9.9999986359297199e-01  9.9999992128397330e-01  9.9999989519207566e-01  9.9999985843462535e-01  9.9999981160067297e-01  9.9999974814573866e-01  9.9999964891234605e-01  9.9999945511069799e-01  9.9999895616036538e-01  9.9999630108489213e-01  7.2389439337827433e-01  2.9794796674186091e-01  9.3500164472760196e-06  1.0164952614292975e-06  7.5032374689277145e-07  7.1623815215254061e-07  7.1091147821819385e-07  7.0909129599644764e-07  7.0753738266509787e-07  7.0588637648478376e-07  7.0429408441762812e-07  7.0279439937743627e-07  7.0135151527841778e-07  6.9993829252409619e-07  6.9854868414891407e-07  6.9718917170371187e-07  6.9587032220760545e-07  6.9460217293161970e-07  6.9339315917948953e-07  6.9225080551891555e-07  6.9118242992895516e-07  6.9019530993247105e-07  6.8929649891736041e-07  6.8849256712409857e-07  6.8778940016864531e-07  6.8719206870339541e-07  6.8670470526663660e-07  6.8632888037218452e-07  6.8603485274466053e-07  6.8526954284421262e-07  1.3758383697190293e-06  9.9999988261128836e-01  9.9999993984543389e-01  9.9999992249003933e-01  9.9999989851282611e-01  9.9999987035779125e-01  9.9999983775788226e-01  9.9999979684361173e-01  9.9999973813403087e-01  9.9999963878846465e-01  9.9999942767180416e-01  9.9999881131560076e-01  9.9999332726610468e-01  6.1512756742569574e-01  2.0140636031793141e-01  2.3936278211411744e-06  8.7872218578138044e-07  7.3062298110604691e-07  7.1384155104453996e-07  7.0978651963553939e-07  7.0735228655314536e-07  7.0558048945988110e-07  7.0407762256643104e-07  7.0265120124815193e-07  7.0124185540534598e-07  6.9984315838449104e-07  6.9846918865820114e-07  6.9713769529344674e-07  6.9586068828029389e-07  6.9464522275662491e-07  6.9349707582228083e-07  6.9242264195615663e-07  6.9142901024232644e-07  6.9052340144191410e-07  6.8971265846035564e-07  6.8900294953403171e-07  6.8839961755866199e-07  6.8790703188140025e-07  6.8752657192413710e-07  6.8722053935488704e-07  6.8629444663399132e-07  1.3767141046367996e-06  9.9999984377595019e-01  9.9999992810421356e-01  9.9999991479209460e-01  9.9999989748766738e-01  9.9999987910705312e-01  9.9999986008708397e-01  9.9999983885740673e-01  9.9999981206562738e-01  9.9999977374851978e-01  9.9999971200580162e-01  9.9999959730656329e-01  9.9999932610597830e-01  9.9999838398672281e-01  9.7029043540806637e-01  4.7993321576414771e-01  9.5699577920217493e-02  1.4138189267988562e-06  8.0147345187751365e-07  7.2016416377436443e-07  7.0974858373342826e-07  7.0705836534246636e-07  7.0551942976109026e-07  7.0413086964664287e-07  7.0274314080523808e-07  7.0132779431123684e-07  6.9992655538118901e-07  6.9857757338311018e-07  6.9729301137399039e-07  6.9607368937571719e-07  6.9492124607498857e-07  6.9384081581364160e-07  6.9283966893177273e-07  6.9192559137537459e-07  6.9110594528463961e-07  6.9038733331667501e-07  6.8977552280689627e-07  6.8927531118742258e-07  6.8888805456014591e-07  6.8856720720303561e-07  6.8745768383818400e-07  1.3777084181352676e-06  9.9999960602255600e-01  9.9999985516194589e-01  9.9999985821862680e-01  9.9999985695459948e-01  9.9999985355052845e-01  9.9999984874755510e-01  9.9999984197393366e-01  9.9999983184334906e-01  9.9999981615749667e-01  9.9999979132034533e-01  9.9999975059331037e-01  9.9999967899994235e-01  9.9999953474707393e-01  9.9999914932890843e-01  9.9999744950846292e-01  8.0435071138802128e-01  3.4452607984377659e-01  3.0123255623885061e-03  1.0348028216924020e-06  7.4724393174285746e-07  7.1301588946514595e-07  7.0770965864997900e-07  7.0594368013139412e-07  7.0453757930448922e-07  7.0303232360454830e-07  7.0156164469724329e-07  7.0019172794671246e-07  6.9890886210665495e-07  6.9769324520864631e-07  6.9653992795191703e-07  6.9545375813215463e-07  6.9444361291571037e-07  6.9351874754828987e-07  6.9268733146592217e-07  6.9195645561347707e-07  6.9133244631748586e-07  6.9082082890417323e-07  6.9042329066710026e-07  6.9008368697682198e-07  6.8876617651990712e-07  1.3788266471306885e-06  6.9277345235160936e-01  9.9999912597809482e-01  9.9999955875940150e-01  9.9999970579229536e-01  9.9999976675423374e-01  9.9999979734253153e-01  9.9999981375935909e-01  9.9999982142430466e-01  9.9999982211368932e-01  9.9999981582582897e-01  9.9999980106052833e-01  9.9999977413771524e-01  9.9999972687599759e-01  9.9999963914830914e-01  9.9999944772722393e-01  9.9999888095345346e-01  9.9999439409553448e-01  6.3566653018118013e-01  2.0821846056523832e-01  2.3501332350168205e-06  8.6925014171966350e-07  7.2604806642139719e-07  7.1055787323112733e-07  7.0715251226260878e-07  7.0498098912192043e-07  7.0333586487227525e-07  7.0197442187190403e-07  7.0072162753331483e-07  6.9952484865717259e-07  6.9837582939031188e-07  6.9728294437033534e-07  6.9626081896157358e-07  6.9532189529832495e-07  6.9447498256869270e-07  6.9372716660390897e-07  6.9308533164412644e-07  6.9255624153962502e-07  6.9214264898112327e-07  6.9177840865152918e-07  6.9022606721288107e-07  1.3800734116986842e-06  1.5452745699882984e-06  4.7860976464315044e-02  8.8435149999699714e-01  9.9999865653511599e-01  9.9999942992980539e-01  9.9999964483628490e-01  9.9999973178983548e-01  9.9999977577349275e-01  9.9999979940083927e-01  9.9999981076458666e-01  9.9999981289078765e-01  9.9999980629913199e-01  9.9999978946230117e-01  9.9999975792090701e-01  9.9999970095736623e-01  9.9999958996360805e-01  9.9999932188537410e-01  9.9999837073895226e-01  9.6141319162257100e-01  4.7271978192141928e-01  8.8865870148964091e-02  1.3556459580879212e-06  7.9162767833810802e-07  7.1770969342555447e-07  7.0784626890236224e-07  7.0533637963565565e-07  7.0396301349074975e-07  7.0275823692121142e-07  7.0160460083994068e-07  7.0046301587706545e-07  6.9935548877285968e-07  6.9831463199480407e-07  6.9735789028504968e-07  6.9649155891821770e-07  6.9572061625120551e-07  6.9505236462039702e-07  6.9449583736324311e-07  6.9405637613985646e-07  6.9365820347340388e-07  6.9184134977935094e-07  1.3814514910303868e-06  1.3827343661225363e-06  8.0971770205869801e-07  3.2086031839199072e-02  4.8881500137204392e-01  9.9999202859886716e-01  9.9999888759992794e-01  9.9999946426227115e-01  9.9999964918499695e-01  9.9999973119152530e-01  9.9999977400968221e-01  9.9999979693018737e-01  9.9999980733689109e-01  9.9999980802041089e-01  9.9999979920585891e-01  9.9999977872949675e-01  9.9999974061612074e-01  9.9999966998369105e-01  9.9999952368400014e-01  9.9999912541939939e-01  9.9999729861194764e-01  7.8715520273949613e-01  3.3032305226290692e-01  2.8899542818250363e-05  1.0089621294546030e-06  7.4271193535116704e-07  7.1160261656264328e-07  7.0671700634791731e-07  7.0514282003889240e-07  7.0402763673295088e-07  7.0285903274717689e-07  7.0169885744515179e-07  7.0062810458877609e-07  6.9965426359517178e-07  6.9876681975844188e-07  6.9796502627225365e-07  6.9725693382614207e-07  6.9665614535775674e-07  6.9617372000862720e-07  6.9572617179127936e-07  6.9361140757697809e-07  1.3829598249827150e-06  1.3834913218583505e-06  7.0093345072240363e-07  8.0378148707996998e-07  2.3500630337662940e-06  2.5102363852443221e-01  7.3960395575121318e-01  9.9999714149558916e-01  9.9999912258455403e-01  9.9999952548737858e-01  9.9999967177129445e-01  9.9999974150915949e-01  9.9999977875340718e-01  9.9999979839079456e-01  9.9999980628600238e-01  9.9999980444318515e-01  9.9999979239496894e-01  9.9999976694323844e-01  9.9999971995839787e-01  9.9999963067959274e-01  9.9999943248982925e-01  9.9999883407862444e-01  9.9999343816163955e-01  6.1800599977422122e-01  1.9492574802551399e-01  2.1509283220969997e-06  8.5808418703375301e-07  7.2441724187213389e-07  7.1001553960052997e-07  7.0736301596803815e-07  7.0565914226378606e-07  7.0430907916718755e-07  7.0322147107748611e-07  7.0224741568301187e-07  7.0134344126263971e-07  7.0050146370552944e-07  6.9973157925203491e-07  6.9905724187456015e-07  6.9850148519807596e-07  6.9797791164775061e-07  6.9552658646152129e-07  1.3845899466860594e-06  1.3894398775774265e-06  7.0124175615912977e-07  7.1464439273165403e-07  7.5782460905872668e-07  1.1282846705674923e-06  5.1714119652652747e-02  4.3123345154299036e-01  9.2751148337979650e-01  9.9999825816729682e-01  9.9999929751163197e-01  9.9999958130699962e-01  9.9999969580639603e-01  9.9999975356930948e-01  9.9999978486728469e-01  9.9999980075476891e-01  9.9999980561702473e-01  9.9999980064388527e-01  9.9999978462339256e-01  9.9999975316483714e-01  9.9999969528380728e-01  9.9999958113514442e-01  9.9999930112152835e-01  9.9999828838861504e-01  9.4297659892192442e-01  4.5818543802065054e-01  7.8684526850215847e-02  1.3072620262514924e-06  7.8612474700347132e-07  7.1877218221601140e-07  7.0950670336343125e-07  7.0728932759918954e-07  7.0615694412435163e-07  7.0519320889216262e-07  7.0428993363686436e-07  7.0339615006678836e-07  7.0252571781380126e-07  7.0172510777545518e-07  7.0104176754399086e-07  7.0039499029764466e-07  6.9756023422420810e-07  1.3863195898274895e-06  1.3919656302141007e-06  7.0417148495232737e-07  7.1172045063096306e-07  7.1845685445048130e-07  7.3552557251303166e-07  8.4738257026540434e-07  1.9005202093360889e-06  1.7422834214727914e-01  5.9604289846697089e-01  9.9999230765048508e-01  9.9999879636524580e-01  9.9999942225410487e-01  9.9999962638824147e-01  9.9999971741191029e-01  9.9999976506110910e-01  9.9999979075525836e-01  9.9999980280014666e-01  9.9999980442574432e-01  9.9999979606326983e-01  9.9999977560607134e-01  9.9999973697124966e-01  9.9999966480394931e-01  9.9999951405383170e-01  9.9999910075668297e-01  9.9999713246337196e-01  7.7147210022533341e-01  3.1790829137568055e-01  1.3089565960171680e-05  9.9612663159491213e-07  7.4384608067120050e-07  7.1450277413536031e-07  7.1000148320230446e-07  7.0863708965656091e-07  7.0774421955305451e-07  7.0677424950407368e-07  7.0571601552632059e-07  7.0469487933313749e-07  7.0378980806968352e-07  7.0293427963081510e-07  6.9965434713443825e-07  1.3881010365391132e-06  1.3922966704931764e-06  7.0452818471463561e-07  7.1006116647524259e-07  7.1347422051279672e-07  7.1718491140286866e-07  7.2237052731680364e-07  7.4953287148848570e-07  9.8844272371883494e-07  9.4808950431357684e-06  3.0974599745020898e-01  7.6383486013940061e-01  9.9999706703767344e-01  9.9999909250951979e-01  9.9999951101573725e-01  9.9999966338889190e-01  9.9999973614802617e-01  9.9999977505902704e-01  9.9999979565743791e-01  9.9999980409286759e-01  9.9999980249925313e-01  9.9999979045249299e-01  9.9999976471748198e-01  9.9999971698271339e-01  9.9999962586898583e-01  9.9999942203757464e-01  9.9999879930453583e-01  9.9999257386161966e-01  6.0508748802211854e-01  1.8573070602616237e-01  2.0570713627038863e-06  8.5607308235781745e-07  7.2827729744349766e-07  7.1440524875437852e-07  7.1240285607457578e-07  7.1088858151445237e-07  7.0939498324590166e-07  7.0802603961250112e-07  7.0673877867146494e-07  7.0551159129900260e-07  7.0169267923347681e-07  1.3898389816864169e-06  1.3913516336925175e-06  7.0345085083831902e-07  7.0797347022219151e-07  7.0991140051950874e-07  7.1189491822614488e-07  7.1381633103476096e-07  7.1643526519803774e-07  7.2568151557093553e-07  7.882525149