<?xml version="1.0"?>
<VTKFile type="UnstructuredGrid"  version="0.1"  >
<UnstructuredGrid>
<Piece  NumberOfPoints="1681" NumberOfCells="3200">
<Points>
<DataArray  type="Float64"  NumberOfComponents="3"  format="ascii">0 0 0  0.025 0 0  0.05 0 0  0.075 0 0  0.1 0 0  0.125 0 0  0.15 0 0  0.175 0 0  0.2 0 0  0.225 0 0  0.25 0 0  0.275 0 0  0.3 0 0  0.325 0 0  0.35 0 0  0.375 0 0  0.4 0 0  0.425 0 0  0.45 0 0  0.475 0 0  0.5 0 0  0.525 0 0  0.55 0 0  0.575 0 0  0.6 0 0  0.625 0 0  0.65 0 0  0.675 0 0  0.7 0 0  0.725 0 0  0.75 0 0  0.775 0 0  0.8 0 0  0.825 0 0  0.85 0 0  0.875 0 0  0.9 0 0  0.925 0 0  0.95 0 0  0.975 0 0  1 0 0  0 0.025 0  0.025 0.025 0  0.05 0.025 0  0.075 0.025 0  0.1 0.025 0  0.125 0.025 0  0.15 0.025 0  0.175 0.025 0  0.2 0.025 0  0.225 0.025 0  0.25 0.025 0  0.275 0.025 0  0.3 0.025 0  0.325 0.025 0  0.35 0.025 0  0.375 0.025 0  0.4 0.025 0  0.425 0.025 0  0.45 0.025 0  0.475 0.025 0  0.5 0.025 0  0.525 0.025 0  0.55 0.025 0  0.575 0.025 0  0.6 0.025 0  0.625 0.025 0  0.65 0.025 0  0.675 0.025 0  0.7 0.025 0  0.725 0.025 0  0.75 0.025 0  0.775 0.025 0  0.8 0.025 0  0.825 0.025 0  0.85 0.025 0  0.875 0.025 0  0.9 0.025 0  0.925 0.025 0  0.95 0.025 0  0.975 0.025 0  1 0.025 0  0 0.05 0  0.025 0.05 0  0.05 0.05 0  0.075 0.05 0  0.1 0.05 0  0.125 0.05 0  0.15 0.05 0  0.175 0.05 0  0.2 0.05 0  0.225 0.05 0  0.25 0.05 0  0.275 0.05 0  0.3 0.05 0  0.325 0.05 0  0.35 0.05 0  0.375 0.05 0  0.4 0.05 0  0.425 0.05 0  0.45 0.05 0  0.475 0.05 0  0.5 0.05 0  0.525 0.05 0  0.55 0.05 0  0.575 0.05 0  0.6 0.05 0  0.625 0.05 0  0.65 0.05 0  0.675 0.05 0  0.7 0.05 0  0.725 0.05 0  0.75 0.05 0  0.775 0.05 0  0.8 0.05 0  0.825 0.05 0  0.85 0.05 0  0.875 0.05 0  0.9 0.05 0  0.925 0.05 0  0.95 0.05 0  0.975 0.05 0  1 0.05 0  0 0.075 0  0.025 0.075 0  0.05 0.075 0  0.075 0.075 0  0.1 0.075 0  0.125 0.075 0  0.15 0.075 0  0.175 0.075 0  0.2 0.075 0  0.225 0.075 0  0.25 0.075 0  0.275 0.075 0  0.3 0.075 0  0.325 0.075 0  0.35 0.075 0  0.375 0.075 0  0.4 0.075 0  0.425 0.075 0  0.45 0.075 0  0.475 0.075 0  0.5 0.075 0  0.525 0.075 0  0.55 0.075 0  0.575 0.075 0  0.6 0.075 0  0.625 0.075 0  0.65 0.075 0  0.675 0.075 0  0.7 0.075 0  0.725 0.075 0  0.75 0.075 0  0.775 0.075 0  0.8 0.075 0  0.825 0.075 0  0.85 0.075 0  0.875 0.075 0  0.9 0.075 0  0.925 0.075 0  0.95 0.075 0  0.975 0.075 0  1 0.075 0  0 0.1 0  0.025 0.1 0  0.05 0.1 0  0.075 0.1 0  0.1 0.1 0  0.125 0.1 0  0.15 0.1 0  0.175 0.1 0  0.2 0.1 0  0.225 0.1 0  0.25 0.1 0  0.275 0.1 0  0.3 0.1 0  0.325 0.1 0  0.35 0.1 0  0.375 0.1 0  0.4 0.1 0  0.425 0.1 0  0.45 0.1 0  0.475 0.1 0  0.5 0.1 0  0.525 0.1 0  0.55 0.1 0  0.575 0.1 0  0.6 0.1 0  0.625 0.1 0  0.65 0.1 0  0.675 0.1 0  0.7 0.1 0  0.725 0.1 0  0.75 0.1 0  0.775 0.1 0  0.8 0.1 0  0.825 0.1 0  0.85 0.1 0  0.875 0.1 0  0.9 0.1 0  0.925 0.1 0  0.95 0.1 0  0.975 0.1 0  1 0.1 0  0 0.125 0  0.025 0.125 0  0.05 0.125 0  0.075 0.125 0  0.1 0.125 0  0.125 0.125 0  0.15 0.125 0  0.175 0.125 0  0.2 0.125 0  0.225 0.125 0  0.25 0.125 0  0.275 0.125 0  0.3 0.125 0  0.325 0.125 0  0.35 0.125 0  0.375 0.125 0  0.4 0.125 0  0.425 0.125 0  0.45 0.125 0  0.475 0.125 0  0.5 0.125 0  0.525 0.125 0  0.55 0.125 0  0.575 0.125 0  0.6 0.125 0  0.625 0.125 0  0.65 0.125 0  0.675 0.125 0  0.7 0.125 0  0.725 0.125 0  0.75 0.125 0  0.775 0.125 0  0.8 0.125 0  0.825 0.125 0  0.85 0.125 0  0.875 0.125 0  0.9 0.125 0  0.925 0.125 0  0.95 0.125 0  0.975 0.125 0  1 0.125 0  0 0.15 0  0.025 0.15 0  0.05 0.15 0  0.075 0.15 0  0.1 0.15 0  0.125 0.15 0  0.15 0.15 0  0.175 0.15 0  0.2 0.15 0  0.225 0.15 0  0.25 0.15 0  0.275 0.15 0  0.3 0.15 0  0.325 0.15 0  0.35 0.15 0  0.375 0.15 0  0.4 0.15 0  0.425 0.15 0  0.45 0.15 0  0.475 0.15 0  0.5 0.15 0  0.525 0.15 0  0.55 0.15 0  0.575 0.15 0  0.6 0.15 0  0.625 0.15 0  0.65 0.15 0  0.675 0.15 0  0.7 0.15 0  0.725 0.15 0  0.75 0.15 0  0.775 0.15 0  0.8 0.15 0  0.825 0.15 0  0.85 0.15 0  0.875 0.15 0  0.9 0.15 0  0.925 0.15 0  0.95 0.15 0  0.975 0.15 0  1 0.15 0  0 0.175 0  0.025 0.175 0  0.05 0.175 0  0.075 0.175 0  0.1 0.175 0  0.125 0.175 0  0.15 0.175 0  0.175 0.175 0  0.2 0.175 0  0.225 0.175 0  0.25 0.175 0  0.275 0.175 0  0.3 0.175 0  0.325 0.175 0  0.35 0.175 0  0.375 0.175 0  0.4 0.175 0  0.425 0.175 0  0.45 0.175 0  0.475 0.175 0  0.5 0.175 0  0.525 0.175 0  0.55 0.175 0  0.575 0.175 0  0.6 0.175 0  0.625 0.175 0  0.65 0.175 0  0.675 0.175 0  0.7 0.175 0  0.725 0.175 0  0.75 0.175 0  0.775 0.175 0  0.8 0.175 0  0.825 0.175 0  0.85 0.175 0  0.875 0.175 0  0.9 0.175 0  0.925 0.175 0  0.95 0.175 0  0.975 0.175 0  1 0.175 0  0 0.2 0  0.025 0.2 0  0.05 0.2 0  0.075 0.2 0  0.1 0.2 0  0.125 0.2 0  0.15 0.2 0  0.175 0.2 0  0.2 0.2 0  0.225 0.2 0  0.25 0.2 0  0.275 0.2 0  0.3 0.2 0  0.325 0.2 0  0.35 0.2 0  0.375 0.2 0  0.4 0.2 0  0.425 0.2 0  0.45 0.2 0  0.475 0.2 0  0.5 0.2 0  0.525 0.2 0  0.55 0.2 0  0.575 0.2 0  0.6 0.2 0  0.625 0.2 0  0.65 0.2 0  0.675 0.2 0  0.7 0.2 0  0.725 0.2 0  0.75 0.2 0  0.775 0.2 0  0.8 0.2 0  0.825 0.2 0  0.85 0.2 0  0.875 0.2 0  0.9 0.2 0  0.925 0.2 0  0.95 0.2 0  0.975 0.2 0  1 0.2 0  0 0.225 0  0.025 0.225 0  0.05 0.225 0  0.075 0.225 0  0.1 0.225 0  0.125 0.225 0  0.15 0.225 0  0.175 0.225 0  0.2 0.225 0  0.225 0.225 0  0.25 0.225 0  0.275 0.225 0  0.3 0.225 0  0.325 0.225 0  0.35 0.225 0  0.375 0.225 0  0.4 0.225 0  0.425 0.225 0  0.45 0.225 0  0.475 0.225 0  0.5 0.225 0  0.525 0.225 0  0.55 0.225 0  0.575 0.225 0  0.6 0.225 0  0.625 0.225 0  0.65 0.225 0  0.675 0.225 0  0.7 0.225 0  0.725 0.225 0  0.75 0.225 0  0.775 0.225 0  0.8 0.225 0  0.825 0.225 0  0.85 0.225 0  0.875 0.225 0  0.9 0.225 0  0.925 0.225 0  0.95 0.225 0  0.975 0.225 0  1 0.225 0  0 0.25 0  0.025 0.25 0  0.05 0.25 0  0.075 0.25 0  0.1 0.25 0  0.125 0.25 0  0.15 0.25 0  0.175 0.25 0  0.2 0.25 0  0.225 0.25 0  0.25 0.25 0  0.275 0.25 0  0.3 0.25 0  0.325 0.25 0  0.35 0.25 0  0.375 0.25 0  0.4 0.25 0  0.425 0.25 0  0.45 0.25 0  0.475 0.25 0  0.5 0.25 0  0.525 0.25 0  0.55 0.25 0  0.575 0.25 0  0.6 0.25 0  0.625 0.25 0  0.65 0.25 0  0.675 0.25 0  0.7 0.25 0  0.725 0.25 0  0.75 0.25 0  0.775 0.25 0  0.8 0.25 0  0.825 0.25 0  0.85 0.25 0  0.875 0.25 0  0.9 0.25 0  0.925 0.25 0  0.95 0.25 0  0.975 0.25 0  1 0.25 0  0 0.275 0  0.025 0.275 0  0.05 0.275 0  0.075 0.275 0  0.1 0.275 0  0.125 0.275 0  0.15 0.275 0  0.175 0.275 0  0.2 0.275 0  0.225 0.275 0  0.25 0.275 0  0.275 0.275 0  0.3 0.275 0  0.325 0.275 0  0.35 0.275 0  0.375 0.275 0  0.4 0.275 0  0.425 0.275 0  0.45 0.275 0  0.475 0.275 0  0.5 0.275 0  0.525 0.275 0  0.55 0.275 0  0.575 0.275 0  0.6 0.275 0  0.625 0.275 0  0.65 0.275 0  0.675 0.275 0  0.7 0.275 0  0.725 0.275 0  0.75 0.275 0  0.775 0.275 0  0.8 0.275 0  0.825 0.275 0  0.85 0.275 0  0.875 0.275 0  0.9 0.275 0  0.925 0.275 0  0.95 0.275 0  0.975 0.275 0  1 0.275 0  0 0.3 0  0.025 0.3 0  0.05 0.3 0  0.075 0.3 0  0.1 0.3 0  0.125 0.3 0  0.15 0.3 0  0.175 0.3 0  0.2 0.3 0  0.225 0.3 0  0.25 0.3 0  0.275 0.3 0  0.3 0.3 0  0.325 0.3 0  0.35 0.3 0  0.375 0.3 0  0.4 0.3 0  0.425 0.3 0  0.45 0.3 0  0.475 0.3 0  0.5 0.3 0  0.525 0.3 0  0.55 0.3 0  0.575 0.3 0  0.6 0.3 0  0.625 0.3 0  0.65 0.3 0  0.675 0.3 0  0.7 0.3 0  0.725 0.3 0  0.75 0.3 0  0.775 0.3 0  0.8 0.3 0  0.825 0.3 0  0.85 0.3 0  0.875 0.3 0  0.9 0.3 0  0.925 0.3 0  0.95 0.3 0  0.975 0.3 0  1 0.3 0  0 0.325 0  0.025 0.325 0  0.05 0.325 0  0.075 0.325 0  0.1 0.325 0  0.125 0.325 0  0.15 0.325 0  0.175 0.325 0  0.2 0.325 0  0.225 0.325 0  0.25 0.325 0  0.275 0.325 0  0.3 0.325 0  0.325 0.325 0  0.35 0.325 0  0.375 0.325 0  0.4 0.325 0  0.425 0.325 0  0.45 0.325 0  0.475 0.325 0  0.5 0.325 0  0.525 0.325 0  0.55 0.325 0  0.575 0.325 0  0.6 0.325 0  0.625 0.325 0  0.65 0.325 0  0.675 0.325 0  0.7 0.325 0  0.725 0.325 0  0.75 0.325 0  0.775 0.325 0  0.8 0.325 0  0.825 0.325 0  0.85 0.325 0  0.875 0.325 0  0.9 0.325 0  0.925 0.325 0  0.95 0.325 0  0.975 0.325 0  1 0.325 0  0 0.35 0  0.025 0.35 0  0.05 0.35 0  0.075 0.35 0  0.1 0.35 0  0.125 0.35 0  0.15 0.35 0  0.175 0.35 0  0.2 0.35 0  0.225 0.35 0  0.25 0.35 0  0.275 0.35 0  0.3 0.35 0  0.325 0.35 0  0.35 0.35 0  0.375 0.35 0  0.4 0.35 0  0.425 0.35 0  0.45 0.35 0  0.475 0.35 0  0.5 0.35 0  0.525 0.35 0  0.55 0.35 0  0.575 0.35 0  0.6 0.35 0  0.625 0.35 0  0.65 0.35 0  0.675 0.35 0  0.7 0.35 0  0.725 0.35 0  0.75 0.35 0  0.775 0.35 0  0.8 0.35 0  0.825 0.35 0  0.85 0.35 0  0.875 0.35 0  0.9 0.35 0  0.925 0.35 0  0.95 0.35 0  0.975 0.35 0  1 0.35 0  0 0.375 0  0.025 0.375 0  0.05 0.375 0  0.075 0.375 0  0.1 0.375 0  0.125 0.375 0  0.15 0.375 0  0.175 0.375 0  0.2 0.375 0  0.225 0.375 0  0.25 0.375 0  0.275 0.375 0  0.3 0.375 0  0.325 0.375 0  0.35 0.375 0  0.375 0.375 0  0.4 0.375 0  0.425 0.375 0  0.45 0.375 0  0.475 0.375 0  0.5 0.375 0  0.525 0.375 0  0.55 0.375 0  0.575 0.375 0  0.6 0.375 0  0.625 0.375 0  0.65 0.375 0  0.675 0.375 0  0.7 0.375 0  0.725 0.375 0  0.75 0.375 0  0.775 0.375 0  0.8 0.375 0  0.825 0.375 0  0.85 0.375 0  0.875 0.375 0  0.9 0.375 0  0.925 0.375 0  0.95 0.375 0  0.975 0.375 0  1 0.375 0  0 0.4 0  0.025 0.4 0  0.05 0.4 0  0.075 0.4 0  0.1 0.4 0  0.125 0.4 0  0.15 0.4 0  0.175 0.4 0  0.2 0.4 0  0.225 0.4 0  0.25 0.4 0  0.275 0.4 0  0.3 0.4 0  0.325 0.4 0  0.35 0.4 0  0.375 0.4 0  0.4 0.4 0  0.425 0.4 0  0.45 0.4 0  0.475 0.4 0  0.5 0.4 0  0.525 0.4 0  0.55 0.4 0  0.575 0.4 0  0.6 0.4 0  0.625 0.4 0  0.65 0.4 0  0.675 0.4 0  0.7 0.4 0  0.725 0.4 0  0.75 0.4 0  0.775 0.4 0  0.8 0.4 0  0.825 0.4 0  0.85 0.4 0  0.875 0.4 0  0.9 0.4 0  0.925 0.4 0  0.95 0.4 0  0.975 0.4 0  1 0.4 0  0 0.425 0  0.025 0.425 0  0.05 0.425 0  0.075 0.425 0  0.1 0.425 0  0.125 0.425 0  0.15 0.425 0  0.175 0.425 0  0.2 0.425 0  0.225 0.425 0  0.25 0.425 0  0.275 0.425 0  0.3 0.425 0  0.325 0.425 0  0.35 0.425 0  0.375 0.425 0  0.4 0.425 0  0.425 0.425 0  0.45 0.425 0  0.475 0.425 0  0.5 0.425 0  0.525 0.425 0  0.55 0.425 0  0.575 0.425 0  0.6 0.425 0  0.625 0.425 0  0.65 0.425 0  0.675 0.425 0  0.7 0.425 0  0.725 0.425 0  0.75 0.425 0  0.775 0.425 0  0.8 0.425 0  0.825 0.425 0  0.85 0.425 0  0.875 0.425 0  0.9 0.425 0  0.925 0.425 0  0.95 0.425 0  0.975 0.425 0  1 0.425 0  0 0.45 0  0.02
[...]
<PointData  Scalars="ControlVisualisation"> 
<DataArray  type="Float64"  Name="ControlVisualisation"  format="ascii">2.0635332431624789e-06  1.3725399860481117e-06  1.3731599195014101e-06  1.3743661740429230e-06  1.3761811402829730e-06  1.3784437359506115e-06  1.3808862995774640e-06  1.3832401273292488e-06  1.3853140992116609e-06  1.3869858985636476e-06  1.3882122505962069e-06  1.3890216828049259e-06  1.3894433005663194e-06  1.3895387182994929e-06  1.3893795305101633e-06  1.3890068381463196e-06  1.3884690096366702e-06  1.3877952480730161e-06  1.3870254574600839e-06  1.3861749763451585e-06  1.3852651515250302e-06  1.3843210638155008e-06  1.3833514346337180e-06  1.3823679674373577e-06  1.3813886678211526e-06  1.3804200971390365e-06  1.3794738552672650e-06  1.3785568383713121e-06  1.3776798546489729e-06  1.3768510295097343e-06  1.3760727706211229e-06  1.3753566022652330e-06  1.3747064662768952e-06  1.3741276586439359e-06  1.3736236616292564e-06  1.3731995901899542e-06  1.3728577266547516e-06  1.3726003350705460e-06  1.3724308985453436e-06  1.3723471909055213e-06  4.1369821476529651e-06  1.3725175768730161e-06  6.8145092610978482e-07  6.8207066447523439e-07  6.8333524954246208e-07  6.8530313807888458e-07  6.8781602695566451e-07  6.9057707379624194e-07  6.9329294726120689e-07  6.9572597305939538e-07  6.9772685758086176e-07  6.9922311103261574e-07  7.0022903005549944e-07  7.0078340047313466e-07  7.0095224650739490e-07  7.0081044936891072e-07  7.0041796305986494e-07  6.9982306605605715e-07  6.9907260032362168e-07  6.9819580475007633e-07  6.9722915042616011e-07  6.9619350961035920e-07  6.9511109017799796e-07  6.9399819055680086e-07  6.9287093040201430e-07  6.9174513066833123e-07  6.9063211426819247e-07  6.8954481869479982e-07  6.8848975253058604e-07  6.8747842845320167e-07  6.8652251540397315e-07  6.8562749180371847e-07  6.8479847102327917e-07  6.8404485958842354e-07  6.8337095937672256e-07  6.8278131926560089e-07  6.8228162443404632e-07  6.8187453402717804e-07  6.8156239234969799e-07  6.8134776305694008e-07  6.8122571543586022e-07  1.3723471743867538e-06  1.3728719196397607e-06  6.8189861674509364e-07  6.8279714158081002e-07  6.8448198387914761e-07  6.8699278259424054e-07  6.9002370851237487e-07  6.9321502033216360e-07  6.9627593200570492e-07  6.9897697694301810e-07  7.0115518761063190e-07  7.0275109691369658e-07  7.0377704317884231e-07  7.0430034334816596e-07  7.0440361808735311e-07  7.0417297781498999e-07  7.0366738608976410e-07  7.0294025761188718e-07  7.0204849673248388e-07  7.0101990030267475e-07  6.9988631560201043e-07  6.9868431658430645e-07  6.9742289078217226e-07  6.9613223460607286e-07  6.9482790100214447e-07  6.9352609797413376e-07  6.9223711990378700e-07  6.9097983167181204e-07  6.8976465405849001e-07  6.8859674706309328e-07  6.8749159319195586e-07  6.8645891688522371e-07  6.8550305922588423e-07  6.8463317115185747e-07  6.8385544238634038e-07  6.8317390847969507e-07  6.8259611338959124e-07  6.8212483064261104e-07  6.8176293149539736e-07  6.8151172006889248e-07  6.8134842074975040e-07  1.3724311638107533e-06  1.3731643915926172e-06  6.8249406697746501e-07  6.8402103024562916e-07  6.8661546828242250e-07  6.8982102043159575e-07  6.9300374861322741e-07  6.9599990002033720e-07  6.9882492485005101e-07  7.0130684892320887e-07  7.0319810409676557e-07  7.0446862687035526e-07  7.0519497534915092e-07  7.0546335317936463e-07  7.0536915903919919e-07  7.0498622950514763e-07  7.0437177701699899e-07  7.0356886448809411e-07  7.0260901830940870e-07  7.0153439658325960e-07  7.0036570772129970e-07  6.9913461488304730e-07  6.9784773025430485e-07  6.9653444482243069e-07  6.9521693822395092e-07  6.9389583727700230e-07  6.9259173909104073e-07  6.9132074630350687e-07  6.9009322918457406e-07  6.8891655898600470e-07  6.8780207187281324e-07  6.8675912169725971e-07  6.8579575204422286e-07  6.8491845392608158e-07  6.8413328682230073e-07  6.8344577231027951e-07  6.8286258252922413e-07  6.8238748659946845e-07  6.8202239157109143e-07  6.8176663538277468e-07  6.8156594265753016e-07  1.3726026329644813e-06  1.3726834233537956e-06  6.8302022866908643e-07  6.8772845303779501e-07  6.9348263511410531e-07  6.9740068120577969e-07  6.9904313427362317e-07  7.0036851255702985e-07  7.0277672567709117e-07  7.0493879770873665e-07  7.0618086675744000e-07  7.0679246491111717e-07  7.0701006664120442e-07  7.0689791943805710e-07  7.0651541577558365e-07  7.0591827288323608e-07  7.0514779350281260e-07  7.0423797467104689e-07  7.0321008832378614e-07  7.0207534061824134e-07  7.0086878573761565e-07  6.9960490421721805e-07  6.9830119026882510e-07  6.9696885280828462e-07  6.9563650565711580e-07  6.9430604301412604e-07  6.9299556337008116e-07  6.9172110101140347e-07  6.9048792112625462e-07  6.8930760275316947e-07  6.8819113189064312e-07  6.8714547982065991e-07  6.8617925535317062e-07  6.8530060515131841e-07  6.8451256167328543e-07  6.8382391594680915e-07  6.8324017732426139e-07  6.8276391267142693e-07  6.8239783777715941e-07  6.8213848408920289e-07  6.8188630041403876e-07  1.3728656237421069e-06  1.4859141666244502e-06  7.1791425872504897e-07  7.6658174969844682e-07  7.8548926926485584e-07  7.9088649119449299e-07  7.5247730953688077e-07  7.2090935328390469e-07  7.1469888914493349e-07  7.1202991553774375e-07  7.1060068758174347e-07  7.0986752946448600e-07  7.0933163401545550e-07  7.0870368240038369e-07  7.0794468602247255e-07  7.0708253732349622e-07  7.0612680437875601e-07  7.0508465123425379e-07  7.0397591627209191e-07  7.0278198561207241e-07  7.0151910614397224e-07  7.0021942875141843e-07  6.9888861405246584e-07  6.9753739476841358e-07  6.9618499582052367e-07  6.9484562260968214e-07  6.9353032371214983e-07  6.9224727636412315e-07  6.9100822461679574e-07  6.8982427913200101e-07  6.8870447704938436e-07  6.8765541061345051e-07  6.8668586825545297e-07  6.8580444780183071e-07  6.8501541299138706e-07  6.8432540853012129e-07  6.8374057207918235e-07  6.8326266714547344e-07  6.8289559614249897e-07  6.8263213520126374e-07  6.8231239278617381e-07  1.3732212507828139e-06  1.5538104290394312e-06  1.1341409875345182e-06  7.0384303027745164e-03  8.1215360177325474e-02  4.4278621425903560e-02  6.5639332544402942e-06  1.5225878405706596e-06  9.8414417040180549e-07  7.8584764463393141e-07  7.2569754863760680e-07  7.1545995908308862e-07  7.1243309329476157e-07  7.1088954864816151e-07  7.0962837124997218e-07  7.0842937069355523e-07  7.0726651758790712e-07  7.0610250766097040e-07  7.0490446730029321e-07  7.0365232534087803e-07  7.0233231961146807e-07  7.0098623566771796e-07  6.9962050508156260e-07  6.9824411240954538e-07  6.9687600122965247e-07  6.9552411606539113e-07  6.9419816022469482e-07  6.9290637433644498e-07  6.9166076926056488e-07  6.9047402363239892e-07  6.8934904291418173e-07  6.8829541678548355e-07  6.8732287118007203e-07  6.8643874522699503e-07  6.8564809927101331e-07  6.8495549659489880e-07  6.8436808430886465e-07  6.8388898185639242e-07  6.8352080857738762e-07  6.8325182304888632e-07  6.8284805672446283e-07  1.3736730777146365e-06  9.9999605774895572e-01  9.9999354610704649e-01  9.9999768719832782e-01  9.9999745978987298e-01  9.9999213137430387e-01  8.3991351435480355e-01  5.2102433355831224e-01  2.2750286995450827e-01  2.8556221123830976e-05  1.2402668658471498e-06  8.0300670850113652e-07  7.2619843574328122e-07  7.1511372997377393e-07  7.1178255310648679e-07  7.0990785970463665e-07  7.0852126217774671e-07  7.0727097099189922e-07  7.0601036136904473e-07  7.0468907673622439e-07  7.0331220587706685e-07  7.0190672192368247e-07  7.0049806353153252e-07  6.9909428380261615e-07  6.9770924329467024e-07  6.9634302453172886e-07  6.9500339410646372e-07  6.9370379761109947e-07  6.9245427035553516e-07  6.9126161638832453e-07  6.9013042635480941e-07  6.8907187472296860e-07  6.8809647275576233e-07  6.8720888991279544e-07  6.8641426878415906e-07  6.8571896136250376e-07  6.8512908394172070e-07  6.8464860263290460e-07  6.8427885306448018e-07  6.8400263222148276e-07  6.8349712435660653e-07  1.3742237168596090e-06  9.9999972592521258e-01  9.9999981131470572e-01  9.9999975739015101e-01  9.9999967841849324e-01  9.9999955286148834e-01  9.9999932175181538e-01  9.9999877132427106e-01  9.9999578030722980e-01  7.3917212562197265e-01  3.3266312367899747e-01  1.3688256742014196e-02  1.1989674794314821e-06  7.8292202024358369e-07  7.2107020616537269e-07  7.1241289413989768e-07  7.1003193673411392e-07  7.0862810063875660e-07  7.0731367960898106e-07  7.0592422938898781e-07  7.0445914017484136e-07  7.0297956573418515e-07  7.0151918949816445e-07  7.0009011790040038e-07  6.9868853184879518e-07  6.9730789238973491e-07  6.9595877548613809e-07  6.9465194835372738e-07  6.9339417685868595e-07  6.9219379563297762e-07  6.9105678411522610e-07  6.8999349388048722e-07  6.8901315027283762e-07  6.8812057390545568e-07  6.8732114800081434e-07  6.8662276869685689e-07  6.8603046120550156e-07  6.8554759057931335e-07  6.8517522094564688e-07  6.8489105130671851e-07  6.8426555904027500e-07  1.3748781185074039e-06  9.9999986359081061e-01  9.9999992128344428e-01  9.9999989519444121e-01  9.9999985844047146e-01  9.9999981160495677e-01  9.9999974813376780e-01  9.9999964885484149e-01  9.9999945494687192e-01  9.9999895558112784e-01  9.9999629440331106e-01  7.2394077604323293e-01  2.9795332054284968e-01  9.2209833242634929e-06  1.0156660386894470e-06  7.5013731246904763e-07  7.1609931369848281e-07  7.1079264768062511e-07  7.0899204639668232e-07  7.0744416935561209e-07  7.0578006745587365e-07  7.0418313915419557e-07  7.0267732760915400e-07  7.0123421947888277e-07  6.9982365374307023e-07  6.9843153088088640e-07  6.9707239265437973e-07  6.9575699425717078e-07  6.9448758718762982e-07  6.9327909658410479e-07  6.9213692979426410e-07  6.9106887858399778e-07  6.9008192635686932e-07  6.8918393328114258e-07  6.8838075193747976e-07  6.8767827475561201e-07  6.8708134456081293e-07  6.8659434905054029e-07  6.8621833492378790e-07  6.8592402765132650e-07  6.8515911983493494e-07  1.3756406077398990e-06  9.9999988261006501e-01  9.9999993984532831e-01  9.9999992249201020e-01  9.9999989851746895e-01  9.9999987036348148e-01  9.9999983775997747e-01  9.9999979683558804e-01  9.9999973811196319e-01  9.9999963874330022e-01  9.9999942754281668e-01  9.9999881061513129e-01  9.9999329928197478e-01  6.1531337907917116e-01  2.0148375504074154e-01  2.3884261834948914e-06  8.7824559493796217e-07  7.3044987660507545e-07  7.1375506425733496e-07  7.0970892157847948e-07  7.0725035781927622e-07  7.0546565471956337e-07  7.0395854898951907e-07  7.0253052670355873e-07  7.0112572417444398e-07  6.9972517134245699e-07  6.9835132575123129e-07  6.9702254829037042e-07  6.9574459867921154e-07  6.9452877625937162e-07  6.9338157747842695e-07  6.9230872110834166e-07  6.9131526112070764e-07  6.9040987959460266e-07  6.8960029552036214e-07  6.8889150283272197e-07  6.8828936621535718e-07  6.8779660550846866e-07  6.8741579353187537e-07  6.8710993249699625e-07  6.8618403610889889e-07  1.3765165919462608e-06  9.9999984377417128e-01  9.9999992810410554e-01  9.9999991479446582e-01  9.9999989749312357e-01  9.9999987911397148e-01  9.9999986009325215e-01  9.9999983886006771e-01  9.9999981206400046e-01  9.9999977374060478e-01  9.9999971198081916e-01  9.9999959721896137e-01  9.9999932576385275e-01  9.9999838195697299e-01  9.7034745773288655e-01  4.7996813109457531e-01  9.5591048877774712e-02  1.4123662171927995e-06  8.0133222850474595e-07  7.2007738906398088e-07  7.0964404122717830e-07  7.0693516509170152e-07  7.0539482965771636e-07  7.0400791919550694e-07  7.0262312239315201e-07  7.0120856429901650e-07  6.9980693319539336e-07  6.9845993778857402e-07  6.9717525043187635e-07  6.9595605186975356e-07  6.9480453923214616e-07  6.9372650307478488e-07  6.9272602715873887e-07  6.9181197185243681e-07  6.9099330440120530e-07  6.9027433109795125e-07  6.8966266245016711e-07  6.8916297920634651e-07  6.8877619291363473e-07  6.8845647615777676e-07  6.8734738664628944e-07  1.3775102552401702e-06  9.9999960601946347e-01  9.9999985515926992e-01  9.9999985822238668e-01  9.9999985696417426e-01  9.9999985356091803e-01  9.9999984875730263e-01  9.9999984198180791e-01  9.9999983184840802e-01  9.9999981615823652e-01  9.9999979131142658e-01  9.9999975056113688e-01  9.9999967892070540e-01  9.9999953454552026e-01  9.9999914871758833e-01  9.9999744499525134e-01  8.0441089768281349e-01  3.4464721395324988e-01  3.1802116618463092e-03  1.0344831412407072e-06  7.4701677874713810e-07  7.1286602698609997e-07  7.0757298104847839e-07  7.0581991065349544e-07  7.0441577523267691e-07  7.0291235899205559e-07  7.0144202253949724e-07  7.0007194799982093e-07  6.9879083090382615e-07  6.9757595320375104e-07  6.9642315023742135e-07  6.9533955701968755e-07  6.9433011090855139e-07  6.9340464978838442e-07  6.9257404558787382e-07  6.9184282836684279e-07  6.9121888878285396e-07  6.9070796320979078e-07  6.9031063268615376e-07  6.8997068519090929e-07  6.8865458426199096e-07  1.3786285866406275e-06  6.9244634083399126e-01  9.9999912586620077e-01  9.9999955874039581e-01  9.9999970581347797e-01  9.9999976677363134e-01  9.9999979735844569e-01  9.9999981377274538e-01  9.9999982143394173e-01  9.9999982211891203e-01  9.9999981582345232e-01  9.9999980104525121e-01  9.9999977410522622e-01  9.9999972681549809e-01  9.9999963903130373e-01  9.9999944746950842e-01  9.9999888007402860e-01  9.9999437126529500e-01  6.3584474663766544e-01  2.0818425139658972e-01  2.3430564336204960e-06  8.6877490960783548e-07  7.2589306759397630e-07  7.1043240897784855e-07  7.0703077325479270e-07  7.0486101164936462e-07  7.0321655295836146e-07  7.0185296486582581e-07  7.0060334303930155e-07  6.9940655972637226e-07  6.9825790786196946e-07  6.9716763462497604e-07  6.9614641504404107e-07  6.9520669465117697e-07  6.9435968452004450e-07  6.9361140991764278e-07  6.9297091649740404e-07  6.9244309832677513e-07  6.9202946393679721e-07  6.9166451774888630e-07  6.9011227277630910e-07  1.3798734191791180e-06  1.5451600127880524e-06  4.7925271104344233e-02  8.8433275908269759e-01  9.9999865627477191e-01  9.9999942996075786e-01  9.9999964486496085e-01  9.9999973181353763e-01  9.9999977579006094e-01  9.9999979940912020e-01  9.9999981076541922e-01  9.9999981288371398e-01  9.9999980628399288e-01  9.9999978943730639e-01  9.9999975788126561e-01  9.9999970090029433e-01  9.9999958986246140e-01  9.9999932161523064e-01  9.9999836917020057e-01  9.6154277840806135e-01  4.7274509927608882e-01  8.8755636320767342e-02  1.3547902680436082e-06  7.9149486123235231e-07  7.1759221001047254e-07  7.0773341552726160e-07  7.0521973602232446e-07  7.0384305733426181e-07  7.0263983873318456e-07  7.0148485126910996e-07  7.0034389829772021e-07  6.9923849353008475e-07  6.9819830962156808e-07  6.9724129447245957e-07  6.9637556787978422e-07  6.9560440849027629e-07  6.9493718302503607e-07  6.9438086509886263e-07  6.9394026129735322e-07  6.9354310880408986e-07  6.9172814120253267e-07  1.3812516525400351e-06  1.3825385022383223e-06  8.0977779992251258e-07  3.2143225901039123e-02  4.8871640335771760e-01  9.9999201064844567e-01  9.9999888760545297e-01  9.9999946433374742e-01  9.9999964922498685e-01  9.9999973120880403e-01  9.9999977401469742e-01  9.9999979692890739e-01  9.9999980733096794e-01  9.9999980800933386e-01  9.9999979919059712e-01  9.9999977871042223e-01  9.9999974058745467e-01  9.9999966993269351e-01  9.9999952355193023e-01  9.9999912490931475e-01  9.9999729394973802e-01  7.8721123126362125e-01  3.3034993352335756e-01  2.8815167636731375e-05  1.0089632184839834e-06  7.4264595531697883e-07  7.1148759528601718e-07  7.0659031435537347e-07  7.0501969610781766e-07  7.0390574052622093e-07  7.0273949161631458e-07  7.0158034739890027e-07  7.0051021347198571e-07  6.9953578240096478e-07  6.9864822973986148e-07  6.9784728005927621e-07  6.9713964081496531e-07  6.9653844730489739e-07  6.9605592578990755e-07  6.9560920626616951e-07  6.9349660092503860e-07  1.3827593694794935e-06  1.3833040389378101e-06  7.0081210936905947e-07  8.0363209226407255e-07  2.3489224719162973e-06  2.5086191589860907e-01  7.3953564579776365e-01  9.9999714077134827e-01  9.9999912263694024e-01  9.9999952553903015e-01  9.9999967178815263e-01  9.9999974151852611e-01  9.9999977875853974e-01  9.9999979839168363e-01  9.9999980628380947e-01  9.9999980443778347e-01  9.9999979238288428e-01  9.9999976692224624e-01  9.9999971991577319e-01  9.9999963058245134e-01  9.9999943226338928e-01  9.9999883336560247e-01  9.9999342426886861e-01  6.1804871416105744e-01  1.9495116654842368e-01  2.1512359152275022e-06  8.5796184573866637e-07  7.2429796483537409e-07  7.0989446476292248e-07  7.0724128459411031e-07  7.0553808047169796e-07  7.0419008723659452e-07  7.0310460182814152e-07  7.0212987723698646e-07  7.0122407140218281e-07  7.0038230869365644e-07  6.9961301826272309e-07  6.9893799553940569e-07  6.9838212089109200e-07  6.9785919307050259e-07  6.9540936210166907e-07  1.3843873696855633e-06  1.3892390358305311e-06  7.0112108575410791e-07  7.1447967575762276e-07  7.5760209684374608e-07  1.1280418357467117e-06  5.1681435396494835e-02  4.3120116114049056e-01  9.2749877087383337e-01  9.9999825815233756e-01  9.9999929764405704e-01  9.9999958136213785e-01  9.9999969583661941e-01  9.9999975358590210e-01  9.9999978487498165e-01  9.9999980075550032e-01  9.9999980561116319e-01  9.9999980063096028e-01  9.9999978459982641e-01  9.9999975312243206e-01  9.9999969521974230e-01  9.9999958103942987e-01  9.9999930097589584e-01  9.9999828789531764e-01  9.4296077956720825e-01  4.5815624895900964e-01  7.8663151972402562e-02  1.3076338329394888e-06  7.8613452664482084e-07  7.1865952158143869e-07  7.0938061117659791e-07  7.0716861984817736e-07  7.0604106330566145e-07  7.0507706990877039e-07  7.0417271557093969e-07  7.0327753103049988e-07  7.0240601085602995e-07  7.0160582714570729e-07  7.0092290195449072e-07  7.0027616339388612e-07  6.9744064214933480e-07  1.3861143720130936e-06  1.3917581550702143e-06  7.0404732294770915e-07  7.1158595754286170e-07  7.1832877706736078e-07  7.3541472062724411e-07  8.4736138700104274e-07  1.9014286040315837e-06  1.7411993142431162e-01  5.9594688591963052e-01  9.9999231323940740e-01  9.9999879680699799e-01  9.9999942241130102e-01  9.9999962644591456e-01  9.9999971743603899e-01  9.9999976506871613e-01  9.9999979075358969e-01  9.9999980279049661e-01  9.9999980440758307e-01  9.9999979603700517e-01  9.9999977557458275e-01  9.9999973693377009e-01  9.9999966476403979e-01  9.9999951401609866e-01  9.9999910069140530e-01  9.9999713203237428e-01  7.7139540756703029e-01  3.1787501087747172e-01  1.3199402898741095e-05  9.9613212489132826e-07  7.4372129892748926e-07  7.1438130033679674e-07  7.0989057072432579e-07  7.0852525248880661e-07  7.0762843654907612e-07  7.0665590563421833e-07  7.0559544907464094e-07  7.0457378181290553e-07  7.0366889293984548e-07  7.0281391378303033e-07  6.9953457316010149e-07  1.3878946813375921e-06  1.3920878097381034e-06  7.0440374824728865e-07  7.0993039058669651e-07  7.1334561303586400e-07  7.1705741496808241e-07  7.2221657026420463e-07  7.4935669994157890e-07  9.8832910765039737e-07  9.4994181844694883e-06  3.0967815642527541e-01  7.6376366730992273e-01  9.9999706817595313e-01  9.9999909269263720e-01  9.9999951110430019e-01  9.9999966341658941e-01  9.9999973615241711e-01  9.9999977505148019e-01  9.9999979564162100e-01  9.9999980407248323e-01  9.9999980247718245e-01  9.9999979042873122e-01  9.9999976469445251e-01  9.9999971696227419e-01  9.9999962585349866e-01  9.9999942205251435e-01  9.9999879947383807e-01  9.9999258242659461e-01  6.0498255490311470e-01  1.8568102050928906e-01  2.0590213248109904e-06  8.5613807050073049e-07  7.2819468069070523e-07  7.1430272281783414e-07  7.1228551787598413e-07  7.1076504834071592e-07  7.0927030261496083e-07  7.0790092330413183e-07  7.0661393209648232e-07  7.0538873311620313e-07  7.0157392498831926e-07  1.3896336254690687e-06  1.3911419879510336e-06  7.0332661265607115e-07  7.0784736641187390e-07  7.0978355435612550e-07  7.1176391703740697e-07  7.1367841549926440e-07  7.1629257193893928e-07  7.2556204863297550e-07  7.882337567