<?xml version="1.0"?>
<VTKFile type="UnstructuredGrid"  version="0.1"  >
<UnstructuredGrid>
<Piece  NumberOfPoints="1681" NumberOfCells="3200">
<Points>
<DataArray  type="Float64"  NumberOfComponents="3"  format="ascii">0 0 0  0.025 0 0  0.05 0 0  0.075 0 0  0.1 0 0  0.125 0 0  0.15 0 0  0.175 0 0  0.2 0 0  0.225 0 0  0.25 0 0  0.275 0 0  0.3 0 0  0.325 0 0  0.35 0 0  0.375 0 0  0.4 0 0  0.425 0 0  0.45 0 0  0.475 0 0  0.5 0 0  0.525 0 0  0.55 0 0  0.575 0 0  0.6 0 0  0.625 0 0  0.65 0 0  0.675 0 0  0.7 0 0  0.725 0 0  0.75 0 0  0.775 0 0  0.8 0 0  0.825 0 0  0.85 0 0  0.875 0 0  0.9 0 0  0.925 0 0  0.95 0 0  0.975 0 0  1 0 0  0 0.025 0  0.025 0.025 0  0.05 0.025 0  0.075 0.025 0  0.1 0.025 0  0.125 0.025 0  0.15 0.025 0  0.175 0.025 0  0.2 0.025 0  0.225 0.025 0  0.25 0.025 0  0.275 0.025 0  0.3 0.025 0  0.325 0.025 0  0.35 0.025 0  0.375 0.025 0  0.4 0.025 0  0.425 0.025 0  0.45 0.025 0  0.475 0.025 0  0.5 0.025 0  0.525 0.025 0  0.55 0.025 0  0.575 0.025 0  0.6 0.025 0  0.625 0.025 0  0.65 0.025 0  0.675 0.025 0  0.7 0.025 0  0.725 0.025 0  0.75 0.025 0  0.775 0.025 0  0.8 0.025 0  0.825 0.025 0  0.85 0.025 0  0.875 0.025 0  0.9 0.025 0  0.925 0.025 0  0.95 0.025 0  0.975 0.025 0  1 0.025 0  0 0.05 0  0.025 0.05 0  0.05 0.05 0  0.075 0.05 0  0.1 0.05 0  0.125 0.05 0  0.15 0.05 0  0.175 0.05 0  0.2 0.05 0  0.225 0.05 0  0.25 0.05 0  0.275 0.05 0  0.3 0.05 0  0.325 0.05 0  0.35 0.05 0  0.375 0.05 0  0.4 0.05 0  0.425 0.05 0  0.45 0.05 0  0.475 0.05 0  0.5 0.05 0  0.525 0.05 0  0.55 0.05 0  0.575 0.05 0  0.6 0.05 0  0.625 0.05 0  0.65 0.05 0  0.675 0.05 0  0.7 0.05 0  0.725 0.05 0  0.75 0.05 0  0.775 0.05 0  0.8 0.05 0  0.825 0.05 0  0.85 0.05 0  0.875 0.05 0  0.9 0.05 0  0.925 0.05 0  0.95 0.05 0  0.975 0.05 0  1 0.05 0  0 0.075 0  0.025 0.075 0  0.05 0.075 0  0.075 0.075 0  0.1 0.075 0  0.125 0.075 0  0.15 0.075 0  0.175 0.075 0  0.2 0.075 0  0.225 0.075 0  0.25 0.075 0  0.275 0.075 0  0.3 0.075 0  0.325 0.075 0  0.35 0.075 0  0.375 0.075 0  0.4 0.075 0  0.425 0.075 0  0.45 0.075 0  0.475 0.075 0  0.5 0.075 0  0.525 0.075 0  0.55 0.075 0  0.575 0.075 0  0.6 0.075 0  0.625 0.075 0  0.65 0.075 0  0.675 0.075 0  0.7 0.075 0  0.725 0.075 0  0.75 0.075 0  0.775 0.075 0  0.8 0.075 0  0.825 0.075 0  0.85 0.075 0  0.875 0.075 0  0.9 0.075 0  0.925 0.075 0  0.95 0.075 0  0.975 0.075 0  1 0.075 0  0 0.1 0  0.025 0.1 0  0.05 0.1 0  0.075 0.1 0  0.1 0.1 0  0.125 0.1 0  0.15 0.1 0  0.175 0.1 0  0.2 0.1 0  0.225 0.1 0  0.25 0.1 0  0.275 0.1 0  0.3 0.1 0  0.325 0.1 0  0.35 0.1 0  0.375 0.1 0  0.4 0.1 0  0.425 0.1 0  0.45 0.1 0  0.475 0.1 0  0.5 0.1 0  0.525 0.1 0  0.55 0.1 0  0.575 0.1 0  0.6 0.1 0  0.625 0.1 0  0.65 0.1 0  0.675 0.1 0  0.7 0.1 0  0.725 0.1 0  0.75 0.1 0  0.775 0.1 0  0.8 0.1 0  0.825 0.1 0  0.85 0.1 0  0.875 0.1 0  0.9 0.1 0  0.925 0.1 0  0.95 0.1 0  0.975 0.1 0  1 0.1 0  0 0.125 0  0.025 0.125 0  0.05 0.125 0  0.075 0.125 0  0.1 0.125 0  0.125 0.125 0  0.15 0.125 0  0.175 0.125 0  0.2 0.125 0  0.225 0.125 0  0.25 0.125 0  0.275 0.125 0  0.3 0.125 0  0.325 0.125 0  0.35 0.125 0  0.375 0.125 0  0.4 0.125 0  0.425 0.125 0  0.45 0.125 0  0.475 0.125 0  0.5 0.125 0  0.525 0.125 0  0.55 0.125 0  0.575 0.125 0  0.6 0.125 0  0.625 0.125 0  0.65 0.125 0  0.675 0.125 0  0.7 0.125 0  0.725 0.125 0  0.75 0.125 0  0.775 0.125 0  0.8 0.125 0  0.825 0.125 0  0.85 0.125 0  0.875 0.125 0  0.9 0.125 0  0.925 0.125 0  0.95 0.125 0  0.975 0.125 0  1 0.125 0  0 0.15 0  0.025 0.15 0  0.05 0.15 0  0.075 0.15 0  0.1 0.15 0  0.125 0.15 0  0.15 0.15 0  0.175 0.15 0  0.2 0.15 0  0.225 0.15 0  0.25 0.15 0  0.275 0.15 0  0.3 0.15 0  0.325 0.15 0  0.35 0.15 0  0.375 0.15 0  0.4 0.15 0  0.425 0.15 0  0.45 0.15 0  0.475 0.15 0  0.5 0.15 0  0.525 0.15 0  0.55 0.15 0  0.575 0.15 0  0.6 0.15 0  0.625 0.15 0  0.65 0.15 0  0.675 0.15 0  0.7 0.15 0  0.725 0.15 0  0.75 0.15 0  0.775 0.15 0  0.8 0.15 0  0.825 0.15 0  0.85 0.15 0  0.875 0.15 0  0.9 0.15 0  0.925 0.15 0  0.95 0.15 0  0.975 0.15 0  1 0.15 0  0 0.175 0  0.025 0.175 0  0.05 0.175 0  0.075 0.175 0  0.1 0.175 0  0.125 0.175 0  0.15 0.175 0  0.175 0.175 0  0.2 0.175 0  0.225 0.175 0  0.25 0.175 0  0.275 0.175 0  0.3 0.175 0  0.325 0.175 0  0.35 0.175 0  0.375 0.175 0  0.4 0.175 0  0.425 0.175 0  0.45 0.175 0  0.475 0.175 0  0.5 0.175 0  0.525 0.175 0  0.55 0.175 0  0.575 0.175 0  0.6 0.175 0  0.625 0.175 0  0.65 0.175 0  0.675 0.175 0  0.7 0.175 0  0.725 0.175 0  0.75 0.175 0  0.775 0.175 0  0.8 0.175 0  0.825 0.175 0  0.85 0.175 0  0.875 0.175 0  0.9 0.175 0  0.925 0.175 0  0.95 0.175 0  0.975 0.175 0  1 0.175 0  0 0.2 0  0.025 0.2 0  0.05 0.2 0  0.075 0.2 0  0.1 0.2 0  0.125 0.2 0  0.15 0.2 0  0.175 0.2 0  0.2 0.2 0  0.225 0.2 0  0.25 0.2 0  0.275 0.2 0  0.3 0.2 0  0.325 0.2 0  0.35 0.2 0  0.375 0.2 0  0.4 0.2 0  0.425 0.2 0  0.45 0.2 0  0.475 0.2 0  0.5 0.2 0  0.525 0.2 0  0.55 0.2 0  0.575 0.2 0  0.6 0.2 0  0.625 0.2 0  0.65 0.2 0  0.675 0.2 0  0.7 0.2 0  0.725 0.2 0  0.75 0.2 0  0.775 0.2 0  0.8 0.2 0  0.825 0.2 0  0.85 0.2 0  0.875 0.2 0  0.9 0.2 0  0.925 0.2 0  0.95 0.2 0  0.975 0.2 0  1 0.2 0  0 0.225 0  0.025 0.225 0  0.05 0.225 0  0.075 0.225 0  0.1 0.225 0  0.125 0.225 0  0.15 0.225 0  0.175 0.225 0  0.2 0.225 0  0.225 0.225 0  0.25 0.225 0  0.275 0.225 0  0.3 0.225 0  0.325 0.225 0  0.35 0.225 0  0.375 0.225 0  0.4 0.225 0  0.425 0.225 0  0.45 0.225 0  0.475 0.225 0  0.5 0.225 0  0.525 0.225 0  0.55 0.225 0  0.575 0.225 0  0.6 0.225 0  0.625 0.225 0  0.65 0.225 0  0.675 0.225 0  0.7 0.225 0  0.725 0.225 0  0.75 0.225 0  0.775 0.225 0  0.8 0.225 0  0.825 0.225 0  0.85 0.225 0  0.875 0.225 0  0.9 0.225 0  0.925 0.225 0  0.95 0.225 0  0.975 0.225 0  1 0.225 0  0 0.25 0  0.025 0.25 0  0.05 0.25 0  0.075 0.25 0  0.1 0.25 0  0.125 0.25 0  0.15 0.25 0  0.175 0.25 0  0.2 0.25 0  0.225 0.25 0  0.25 0.25 0  0.275 0.25 0  0.3 0.25 0  0.325 0.25 0  0.35 0.25 0  0.375 0.25 0  0.4 0.25 0  0.425 0.25 0  0.45 0.25 0  0.475 0.25 0  0.5 0.25 0  0.525 0.25 0  0.55 0.25 0  0.575 0.25 0  0.6 0.25 0  0.625 0.25 0  0.65 0.25 0  0.675 0.25 0  0.7 0.25 0  0.725 0.25 0  0.75 0.25 0  0.775 0.25 0  0.8 0.25 0  0.825 0.25 0  0.85 0.25 0  0.875 0.25 0  0.9 0.25 0  0.925 0.25 0  0.95 0.25 0  0.975 0.25 0  1 0.25 0  0 0.275 0  0.025 0.275 0  0.05 0.275 0  0.075 0.275 0  0.1 0.275 0  0.125 0.275 0  0.15 0.275 0  0.175 0.275 0  0.2 0.275 0  0.225 0.275 0  0.25 0.275 0  0.275 0.275 0  0.3 0.275 0  0.325 0.275 0  0.35 0.275 0  0.375 0.275 0  0.4 0.275 0  0.425 0.275 0  0.45 0.275 0  0.475 0.275 0  0.5 0.275 0  0.525 0.275 0  0.55 0.275 0  0.575 0.275 0  0.6 0.275 0  0.625 0.275 0  0.65 0.275 0  0.675 0.275 0  0.7 0.275 0  0.725 0.275 0  0.75 0.275 0  0.775 0.275 0  0.8 0.275 0  0.825 0.275 0  0.85 0.275 0  0.875 0.275 0  0.9 0.275 0  0.925 0.275 0  0.95 0.275 0  0.975 0.275 0  1 0.275 0  0 0.3 0  0.025 0.3 0  0.05 0.3 0  0.075 0.3 0  0.1 0.3 0  0.125 0.3 0  0.15 0.3 0  0.175 0.3 0  0.2 0.3 0  0.225 0.3 0  0.25 0.3 0  0.275 0.3 0  0.3 0.3 0  0.325 0.3 0  0.35 0.3 0  0.375 0.3 0  0.4 0.3 0  0.425 0.3 0  0.45 0.3 0  0.475 0.3 0  0.5 0.3 0  0.525 0.3 0  0.55 0.3 0  0.575 0.3 0  0.6 0.3 0  0.625 0.3 0  0.65 0.3 0  0.675 0.3 0  0.7 0.3 0  0.725 0.3 0  0.75 0.3 0  0.775 0.3 0  0.8 0.3 0  0.825 0.3 0  0.85 0.3 0  0.875 0.3 0  0.9 0.3 0  0.925 0.3 0  0.95 0.3 0  0.975 0.3 0  1 0.3 0  0 0.325 0  0.025 0.325 0  0.05 0.325 0  0.075 0.325 0  0.1 0.325 0  0.125 0.325 0  0.15 0.325 0  0.175 0.325 0  0.2 0.325 0  0.225 0.325 0  0.25 0.325 0  0.275 0.325 0  0.3 0.325 0  0.325 0.325 0  0.35 0.325 0  0.375 0.325 0  0.4 0.325 0  0.425 0.325 0  0.45 0.325 0  0.475 0.325 0  0.5 0.325 0  0.525 0.325 0  0.55 0.325 0  0.575 0.325 0  0.6 0.325 0  0.625 0.325 0  0.65 0.325 0  0.675 0.325 0  0.7 0.325 0  0.725 0.325 0  0.75 0.325 0  0.775 0.325 0  0.8 0.325 0  0.825 0.325 0  0.85 0.325 0  0.875 0.325 0  0.9 0.325 0  0.925 0.325 0  0.95 0.325 0  0.975 0.325 0  1 0.325 0  0 0.35 0  0.025 0.35 0  0.05 0.35 0  0.075 0.35 0  0.1 0.35 0  0.125 0.35 0  0.15 0.35 0  0.175 0.35 0  0.2 0.35 0  0.225 0.35 0  0.25 0.35 0  0.275 0.35 0  0.3 0.35 0  0.325 0.35 0  0.35 0.35 0  0.375 0.35 0  0.4 0.35 0  0.425 0.35 0  0.45 0.35 0  0.475 0.35 0  0.5 0.35 0  0.525 0.35 0  0.55 0.35 0  0.575 0.35 0  0.6 0.35 0  0.625 0.35 0  0.65 0.35 0  0.675 0.35 0  0.7 0.35 0  0.725 0.35 0  0.75 0.35 0  0.775 0.35 0  0.8 0.35 0  0.825 0.35 0  0.85 0.35 0  0.875 0.35 0  0.9 0.35 0  0.925 0.35 0  0.95 0.35 0  0.975 0.35 0  1 0.35 0  0 0.375 0  0.025 0.375 0  0.05 0.375 0  0.075 0.375 0  0.1 0.375 0  0.125 0.375 0  0.15 0.375 0  0.175 0.375 0  0.2 0.375 0  0.225 0.375 0  0.25 0.375 0  0.275 0.375 0  0.3 0.375 0  0.325 0.375 0  0.35 0.375 0  0.375 0.375 0  0.4 0.375 0  0.425 0.375 0  0.45 0.375 0  0.475 0.375 0  0.5 0.375 0  0.525 0.375 0  0.55 0.375 0  0.575 0.375 0  0.6 0.375 0  0.625 0.375 0  0.65 0.375 0  0.675 0.375 0  0.7 0.375 0  0.725 0.375 0  0.75 0.375 0  0.775 0.375 0  0.8 0.375 0  0.825 0.375 0  0.85 0.375 0  0.875 0.375 0  0.9 0.375 0  0.925 0.375 0  0.95 0.375 0  0.975 0.375 0  1 0.375 0  0 0.4 0  0.025 0.4 0  0.05 0.4 0  0.075 0.4 0  0.1 0.4 0  0.125 0.4 0  0.15 0.4 0  0.175 0.4 0  0.2 0.4 0  0.225 0.4 0  0.25 0.4 0  0.275 0.4 0  0.3 0.4 0  0.325 0.4 0  0.35 0.4 0  0.375 0.4 0  0.4 0.4 0  0.425 0.4 0  0.45 0.4 0  0.475 0.4 0  0.5 0.4 0  0.525 0.4 0  0.55 0.4 0  0.575 0.4 0  0.6 0.4 0  0.625 0.4 0  0.65 0.4 0  0.675 0.4 0  0.7 0.4 0  0.725 0.4 0  0.75 0.4 0  0.775 0.4 0  0.8 0.4 0  0.825 0.4 0  0.85 0.4 0  0.875 0.4 0  0.9 0.4 0  0.925 0.4 0  0.95 0.4 0  0.975 0.4 0  1 0.4 0  0 0.425 0  0.025 0.425 0  0.05 0.425 0  0.075 0.425 0  0.1 0.425 0  0.125 0.425 0  0.15 0.425 0  0.175 0.425 0  0.2 0.425 0  0.225 0.425 0  0.25 0.425 0  0.275 0.425 0  0.3 0.425 0  0.325 0.425 0  0.35 0.425 0  0.375 0.425 0  0.4 0.425 0  0.425 0.425 0  0.45 0.425 0  0.475 0.425 0  0.5 0.425 0  0.525 0.425 0  0.55 0.425 0  0.575 0.425 0  0.6 0.425 0  0.625 0.425 0  0.65 0.425 0  0.675 0.425 0  0.7 0.425 0  0.725 0.425 0  0.75 0.425 0  0.775 0.425 0  0.8 0.425 0  0.825 0.425 0  0.85 0.425 0  0.875 0.425 0  0.9 0.425 0  0.925 0.425 0  0.95 0.425 0  0.975 0.425 0  1 0.425 0  0 0.45 0  0.02
[...]
<PointData  Scalars="ControlVisualisation"> 
<DataArray  type="Float64"  Name="ControlVisualisation"  format="ascii">3.9995983375078931e-01  3.9993888658038901e-01  3.9994417879329552e-01  3.9996387224577978e-01  3.9999479446565622e-01  4.0002861249647953e-01  4.0005842238722455e-01  4.0008066859040253e-01  4.0009463496258352e-01  4.0010124822492327e-01  4.0010207508022344e-01  4.0009872023827892e-01  4.0009255346028721e-01  4.0008463398755917e-01  4.0007572991315854e-01  4.0006637192674394e-01  4.0005691153257644e-01  4.0004757166107346e-01  4.0003848647583617e-01  4.0002973097910710e-01  4.0002134227851988e-01  4.0001333451119525e-01  4.0000570913562750e-01  3.9999846191801580e-01  3.9999158758540954e-01  3.9998508283219492e-01  3.9997894815133656e-01  3.9997318880701899e-01  3.9996781515831759e-01  3.9996284247321018e-01  3.9995829033169794e-01  3.9995418170395358e-01  3.9995054182182199e-01  3.9994739708705607e-01  3.9994477451250099e-01  3.9994270270716681e-01  3.9994121438153396e-01  3.9994034010117141e-01  3.9994005209473243e-01  3.9994010751620612e-01  3.9998006621475102e-01  3.9993865638451476e-01  3.9989976768227181e-01  4.0000465092656262e-01  4.0023281739709765e-01  4.0056060868465138e-01  4.0091563401209485e-01  4.0123088216960279e-01  4.0146944962666192e-01  4.0162238194765021e-01  4.0169785256544716e-01  4.0171125169317307e-01  4.0167892922460169e-01  4.0161518420102404e-01  4.0153129842041280e-01  4.0143560654628646e-01  4.0133397634494250e-01  4.0123037471348749e-01  4.0112737924286168e-01  4.0102659101917792e-01  4.0092894785609495e-01  4.0083495324851082e-01  4.0074483966924529e-01  4.0065868301156871e-01  4.0057648162107395e-01  4.0049820999472002e-01  4.0042385439354816e-01  4.0035343542433760e-01  4.0028702103448588e-01  4.0022473222937904e-01  4.0016674306351191e-01  4.0011327600575997e-01  4.0006459360833013e-01  4.0002098759909516e-01  3.9998276716155273e-01  3.9995024939408536e-01  3.9992375515237327e-01  3.9990359793400332e-01  3.9988999289631982e-01  3.9988266314789400e-01  3.9988019827344140e-01  3.9994010745690345e-01  3.9994268266441313e-01  4.0001391897010569e-01  4.0038943532599081e-01  4.0096456197510716e-01  4.0168597744109974e-01  4.0243002203707950e-01  4.0307486630501277e-01  4.0355356520668417e-01  4.0385265174611645e-01  4.0399136245812323e-01  4.0400227762379515e-01  4.0391925750166097e-01  4.0377171575339288e-01  4.0358283456098670e-01  4.0336976783303019e-01  4.0314462805656087e-01  4.0291563358001925e-01  4.0268814532092417e-01  4.0246550636394574e-01  4.0224968235768965e-01  4.0204173240985880e-01  4.0184214712516669e-01  4.0165108715690961e-01  4.0146854918571112e-01  4.0129447964684234e-01  4.0112885091244288e-01  4.0097171024497963e-01  4.0082320858195020e-01  4.0068361390150836e-01  4.0055331236850789e-01  4.0043279953169342e-01  4.0032266344367912e-01  4.0022356165030776e-01  4.0013619417094376e-01  4.0006127323832086e-01  3.9999947904614364e-01  3.9995134452733794e-01  3.9991688771335160e-01  3.9989477330647227e-01  3.9988266213522489e-01  3.9994005091424162e-01  3.9996378609481770e-01  4.0033279412882500e-01  4.0119318361571227e-01  4.0210252030587540e-01  4.0301535102831043e-01  4.0386302370069133e-01  4.0455028541722798e-01  4.0502689291021232e-01  4.0529289882110642e-01  4.0537835413271628e-01  4.0532381183547461e-01  4.0516869474046158e-01  4.0494616717431065e-01  4.0468187737095690e-01  4.0439455374696076e-01  4.0409726922731182e-01  4.0379878279830700e-01  4.0350471321574993e-01  4.0321847610041212e-01  4.0294199410886139e-01  4.0267621783723484e-01  4.0242149963941082e-01  4.0217785766462127e-01  4.0194515984202311e-01  4.0172325013056420e-01  4.0151203312779754e-01  4.0131152828423411e-01  4.0112190137609754e-01  4.0094347833944044e-01  4.0077674485783038e-01  4.0062233405068653e-01  4.0048100402278841e-01  4.0035360648069762e-01  4.0024104551640532e-01  4.0014421687270846e-01  4.0006388565716977e-01  4.0000036508786985e-01  3.9995266944939439e-01  3.9991708550539412e-01  3.9989003585355493e-01  3.9994033544403584e-01  4.0001586207336681e-01  4.0103709708947383e-01  4.0284604194273532e-01  4.0411271553713735e-01  4.0496623970076229e-01  4.0559315599564116e-01  4.0602573856359980e-01  4.0626485457638328e-01  4.0632851313171597e-01  4.0624956097868248e-01  4.0606467852863054e-01  4.0580718776438401e-01  4.0550411316786450e-01  4.0517582646550587e-01  4.0483686658428836e-01  4.0449712401804161e-01  4.0416299975327241e-01  4.0383838772303038e-01  4.0352544813506752e-01  4.0322518980064409e-01  4.0293789621350173e-01  4.0266343116749626e-01  4.0240145469371841e-01  4.0215157355721798e-01  4.0191344439208015e-01  4.0168684242800751e-01  4.0147170477063920e-01  4.0126815422892492e-01  4.0107650756816421e-01  4.0089727063753106e-01  4.0073112189196042e-01  4.0057888505217498e-01  4.0044149008450675e-01  4.0031991615046275e-01  4.0021509109654796e-01  4.0012766054266108e-01  4.0005737081970399e-01  4.0000149840874744e-01  3.9995237293819125e-01  3.9990388932094501e-01  3.9994121068671606e-01  4.0012024037142768e-01  4.0278469330529293e-01  4.0641311626507798e-01  4.0787318701601383e-01  4.0811858757263630e-01  4.0803791397846007e-01  4.0786702811196296e-01  4.0763542963001692e-01  4.0734611973994334e-01  4.0700852212415856e-01  4.0663696407731420e-01  4.0624606329355445e-01  4.0584819357866592e-01  4.0545271482264639e-01  4.0506611184617780e-01  4.0469248981315648e-01  4.0433414164625736e-01  4.0399206380440433e-01  4.0366637937496924e-01  4.0335666571005241e-01  4.0306219904682317e-01  4.0278213258592982e-01  4.0251562361945098e-01  4.0226192261838534e-01  4.0202043416441807e-01  4.0179075685405574e-01  4.0157270702403752e-01  4.0136632937525746e-01  4.0117189626914407e-01  4.0098989655548845e-01  4.0082101410039617e-01  4.0066609522871877e-01  4.0052610154499613e-01  4.0040203488518428e-01  4.0029478874756669e-01  4.0020477850639630e-01  4.0013092340482004e-01  4.0006803662357177e-01  4.0000272653470204e-01  3.9992480819517884e-01  3.9994272431766054e-01  4.0118057539469681e-01  4.0856426192698925e-01  4.1474380192799093e-01  4.1482515483434124e-01  4.1306959824105594e-01  4.1144781134258418e-01  4.1021180653686012e-01  4.0925509108999936e-01  4.0847095851440474e-01  4.0779481098225673e-01  4.0719157363544423e-01  4.0664242080063556e-01  4.0613685206781014e-01  4.0566850135335614e-01  4.0523301910048659e-01  4.0482703897506872e-01  4.0444769686737220e-01  4.0409242498729164e-01  4.0375887813433703e-01  4.0344491968053831e-01  4.0314863150378488e-01  4.0286833099731362e-01  4.0260258775046792e-01  4.0235023700945810e-01  4.0211038896966828e-01  4.0188243359626352e-01  4.0166604069978984e-01  4.0146115477066152e-01  4.0126798379213163e-01  4.0108698097122564e-01  4.0091881793802298e-01  4.0076434682831108e-01  4.0062454452499729e-01  4.0050041741054032e-01  4.0039279507967390e-01  4.0030178451017046e-01  4.0022522577804320e-01  4.0015469711440532e-01  4.0006923879259049e-01  3.9995304203334636e-01  3.9994487930552475e-01  4.1364103811173825e-01  4.2999517373259882e-01  4.3289642163431424e-01  4.2639463691034585e-01  4.2008167087517945e-01  4.1579194932107050e-01  4.1298516784986955e-01  4.1106871257969768e-01  4.0967779869252935e-01  4.0860882628595502e-01  4.0774754877319863e-01  4.0702763286986937e-01  4.0640890271042973e-01  4.0586590558471602e-01  4.0538175757434752e-01  4.0494473585906993e-01  4.0454634200461498e-01  4.0418017555268193e-01  4.0384126486159289e-01  4.0352566147672664e-01  4.0323018931441462e-01  4.0295228647842340e-01  4.0268990348729528e-01  4.0244143636112562e-01  4.0220568136372958e-01  4.0198180294534575e-01  4.0176930911313619e-01  4.0156802994980201e-01  4.0137809581244349e-01  4.0119991212863720e-01  4.0103412761435553e-01  4.0088159134425799e-01  4.0074328821422123e-01  4.0062022077544918e-01  4.0051313307026176e-01  4.0042174509357464e-01  4.0034254601907404e-01  4.0026306018368418e-01  4.0015284307113275e-01  3.9998889885497529e-01  3.9994768986326185e-01  4.5235743207406642e-01  4.8221624966318161e-01  4.6258848439447842e-01  4.4181204241723038e-01  4.2842578478458931e-01  4.2058986770512596e-01  4.1589098071506658e-01  4.1289680419726588e-01  4.1085943315974011e-01  4.0938828383662440e-01  4.0827068026933555e-01  4.0738510337642753e-01  4.0665878211567053e-01  4.0604620586935231e-01  4.0551774986035144e-01  4.0505339816476671e-01  4.0463915186075050e-01  4.0426490821238553e-01  4.0392317392068589e-01  4.0360826559349033e-01  4.0331580237806197e-01  4.0304237796782100e-01  4.0278534510317732e-01  4.0254267192697157e-01  4.0231284483181157e-01  4.0209480144232684e-01  4.0188788271692805e-01  4.0169179631842566e-01  4.0150658525241556e-01  4.0133259675814215e-01  4.0117044655688094e-01  4.0102097173593543e-01  4.0088515739156738e-01  4.0076399229262288e-01  4.0065810881518860e-01  4.0056675006807041e-01  4.0048475724664101e-01  4.0039472683994853e-01  4.0025469798455726e-01  4.0003284441003367e-01  3.9995118822249853e-01  4.9082935846890346e-01  5.4133898326969054e-01  4.9238766255516031e-01  4.5657862456933440e-01  4.3617355631785121e-01  4.2492743318490878e-01  4.1845974770609673e-01  4.1448264419184505e-01  4.1186911280298011e-01  4.1004651052417002e-01  4.0870861547308596e-01  4.0768281450888100e-01  4.0686687681709532e-01  4.0619752514386659e-01  4.0563401775572783e-01  4.0514917512377358e-01  4.0472427414785767e-01  4.0434603928718837e-01  4.0400481485329359e-01  4.0369342530987357e-01  4.0340644836417222e-01  4.0313974234232741e-01  4.0289013394049944e-01  4.0265520922842285e-01  4.0243317221746272e-01  4.0222274801372743e-01  4.0202311518936973e-01  4.0183385656992260e-01  4.0165492032760941e-01  4.0148658470212195e-01  4.0132941984486969e-01  4.0118423776870271e-01  4.0105201035412252e-01  4.0093369540780127e-01  4.0082977765200212e-01  4.0073891776319381e-01  4.0065398058347035e-01  4.0055168397577884e-01  4.0037634362478641e-01  4.0008553086422838e-01  3.9995542327422107e-01  5.0274438927361165e-01  5.6980083526268366e-01  5.0847449861333527e-01  4.6536009978050075e-01  4.4109364477645568e-01  4.2779831653097955e-01  4.2019735670434005e-01  4.1556693014479557e-01  4.1256278158636084e-01  4.1049933617838819e-01  4.0900999104046293e-01  4.0788823621599990e-01  4.0701192708623374e-01  4.0630559292867391e-01  4.0572075515236300e-01  4.0522518140271163e-01  4.0479677214231180e-01  4.0441995447771040e-01  4.0408348666901606e-01  4.0377908440108223e-01  4.0350054082877956e-01  4.0324315165853408e-01  4.0300333341914540e-01  4.0277836681783058e-01  4.0256622259334179e-01  4.0236544245151068e-01  4.0217505679799104e-01  4.0199452647696454e-01  4.0182369895243403e-01  4.0166277102257519e-01  4.0151225017651326e-01  4.0137290319675922e-01  4.0124566602099154e-01  4.0113143688789482e-01  4.0103050264368600e-01  4.0094081501690904e-01  4.0085289145188568e-01  4.0073651216314665e-01  4.0051981770903422e-01  4.0014783120871422e-01  3.9996046164670607e-01  4.8155733415417679e-01  5.5226161074687086e-01  5.0407880326170817e-01  4.6523076122971402e-01  4.4184779678716984e-01  4.2854948553772315e-01  4.2077137586469315e-01  4.1597262533969165e-01  4.1284071187175131e-01  4.1068736651092608e-01  4.0913751922754532e-01  4.0797681153409893e-01  4.0707706408693639e-01  4.0635838482169206e-01  4.0576910416973061e-01  4.0527469387709159e-01  4.0485140063503133e-01  4.0448245736512412e-01  4.0415575710741075e-01  4.0386238561265198e-01  4.0359567379492911e-01  4.0335057374343403e-01  4.0312324123358628e-01  4.0291075304806773e-01  4.0271091405851644e-01  4.0252212497016199e-01  4.0234329129231827e-01  4.0217375993345189e-01  4.0201327321940328e-01  4.0186193176129936e-01  4.0172015724185006e-01  4.0158864136362282e-01  4.0146824830607869e-01  4.0135977185039401e-01  4.0126323042749801e-01  4.0117571047379147e-01  4.0108495086975149e-01  4.0095258604143769e-01  4.0068780109561403e-01  4.0022089755284712e-01  3.9996639169598236e-01  4.3951413330998290e-01  4.9919288566731024e-01  4.8175930849082288e-01  4.5671383805040944e-01  4.3848215296312504e-01  4.2713343420007971e-01  4.2013294003547719e-01  4.1566221644794343e-01  4.1267548860491671e-01  4.1059046337293242e-01  4.0907603040674634e-01  4.0793680613983202e-01  4.0705298894487690e-01  4.0634837344538766e-01  4.0577285474750546e-01  4.0529249964653602e-01  4.0488371350967195e-01  4.0452970158660684e-01  4.0421825947400281e-01  4.0394035811151696e-01  4.0368921747401265e-01  4.0345968880827032e-01  4.0324783640571499e-01  4.0305065130165341e-01  4.0286585396142072e-01  4.0269175798887907e-01  4.0252717607288091e-01  4.0237135497616738e-01  4.0222392959752801e-01  4.0208488752742549e-01  4.0195453459571673e-01  4.0183344545578614e-01  4.0172235925702637e-01  4.0162189759678174e-01  4.0153171042323171e-01  4.0144781890346654e-01  4.0135466694846017e-01  4.0120433138308864e-01  4.0088382266238032e-01  4.0030624856973546e-01  3.9997333004477714e-01  4.0757115396281313e-01  4.4281836954761311e-01  4.5308467384208095e-01  4.4360474542161393e-01  4.3236837455871674e-01  4.2410177272996330e-01  4.1851996726352203e-01  4.1474215431605210e-01  4.1211565836173186e-01  4.1023035687765530e-01  4.0883436691465036e-01  4.0777072688385924e-01  4.0693907237307847e-01  4.0627340665611106e-01  4.0572916149089450e-01  4.0527548988250089e-01  4.0489056021207365e-01  4.0455860782230985e-01  4.0426804314310660e-01  4.0401021123386216e-01  4.0377856272384000e-01  4.0356809051018128e-01  4.0337494181801298e-01  4.0319614832830758e-01  4.0302943731838137e-01  4.0287309933372484e-01  4.0272589577985035e-01  4.0258699468931103e-01  4.0245592572158911e-01  4.0233254647636718e-01  4.0221701061668402e-01  4.0210972002148210e-01  4.0201121330224532e-01  4.0192184060979819e-01  4.0184074026304828e-01  4.0176260372274075e-01  4.0166794180283855e-01  4.0149758223514642e-01  4.0111255154974484e-01  4.0040589556061945e-01  3.9998143109580359e-01  4.0095506355179150e-01  4.1526311229240942e-01  4.3071779591812509e-01  4.3083022519488656e-01  4.2552538306715842e-01  4.2034230621579916e-01  4.1634579014723316e-01  4.1341522405482706e-01  4.1126476839534531e-01  4.0966126660323227e-01  4.0844118314656874e-01  4.0749348974579547e-01  4.0674263232287877e-01  4.0613650976470855e-01  4.0563859003961955e-01  4.0522281269089450e-01  4.0487027637585127e-01  4.0456705770601720e-01  4.0430275364093265e-01  4.0406949252703367e-01  4.0386125340581391e-01  4.0367339134199592e-01  4.0350230264862263e-01  4.0334518662734742e-01  4.0319987494286813e-01  4.0306470909924974e-01  4.0293845253654759e-01  4.0282022772499332e-01  4.0270947088910475e-01  4.0260589763273258e-01  4.0250947059124786e-01  4.0242035010989718e-01  4.0233877237148008e-01  4.0226467443455882e-01  4.0219647747522741e-01  4.0212718316560297e-01  4.0203255496853119e-01  4.0184009034946816e-01  4.0138021871812929e-01  4.0052252433722696e-01  3.9999090064346765e-01  4.0047668407603015e-01  4.0786883545975394e-01  4.1867074295840762e-01  4.2147554512722235e-01  4.1957452908926257e-01  4.1666614946795366e-01  4.1402867187277004e-01  4.1190538876807459e-01  4.1024648836697408e-01  4.0895316910890767e-01  4.0793668644946690e-01  4.0712827617020708e-01  4.0647685494346536e-01  4.0594486799241669e-01  4.0550465477110509e-01  4.0513570262817683e-01  4.0482266445839415e-01  4.0455394876090539e-01  4.0432071911442435e-01  4.0411618149661555e-01  4.0393507336376883e-01  4.0377329450766486e-01  4.0362763811364960e-01  4.0349559314718603e-01  4.0337519790395882e-01  4.0326493051903117e-01  4.0316362630043973e-01  4.0307041449933156e-01  4.0298466879893602e-01  4.0290596618953362e-01  4.0283404646582410e-01  4.0276875264077022e-01  4.0270988916808542e-01  4.0265678448265424e-01  4.0260684867758595e-01  4.0255089081353079e-01  4.0245885275838922e-01  4.0224226632167970e-01  4.0169523593125656e-01  4.0065976185349095e-01  4.0000201558714599e-01  4.0035342957182712e-01  4.0542118403542299e-01  4.1281973737232980e-01  4.1555308824439691e-01  4.1507118085287836e-01  4.1351784963231053e-01  4.1185923768725746e-01  4.1039305413559379e-01  4.0917195544885249e-01  4.0817476412424725e-01  4.0736352333681874e-01  4.0670157947225483e-01  4.0615808099037715e-01  4.0570834664394956e-01  4.0533303052787562e-01  4.0501708427740885e-01  4.0474881972925042e-01  4.0451914490075780e-01  4.0432096753592356e-01  4.0414873853069144e-01  4.0399810522041191e-01  4.0386564836269934e-01  4.0374868181429019e-01  4.0364509861958681e-01  4.0355325105224710e-01  4.0347185507614136e-01  4.0339991187265578e-01  4.0333664068042557e-01  4.0328141824778824e-01  4.0323372048055811e-01  4.0319305922537824e-01  4.0315889405610494e-01  4.0313044955876637e-01  4.0310618825895472e-01  4.0308209226148417e-01  4.0304606105334911e-01  4.0296075005054038e-01  4.0271828191470460e-01  4.0206912629935104e-01  4.0082257600073889e-01  4.0001515303576851e-01  4.0025530255936137e-01  4.0397955472611036e-01  4.0941678188389985e-01  4.1173405434849725e-01  4.1179897398778953e-01  4.1098796621141753e-01  4.0996896148937823e-01  4.0898797240027790e-01  4.0812145281300399e-01  4.0738188760402316e-01  4.0675966916468004e-01  4.0623889065951163e-01  4.0580320688665805e-01  4.0543794113566750e-01  4.0513064483142081e-01  4.0487105863257583e-01  4.0465085855676836e-01  4.0446335205576317e-01  4.0430319000613918e-01  4.0416611737053015e-01  4.0404876630164765e-01  4.0394848775095338e-01  4.0386321499191774e-01  4.0379135197298194e-01  4.0373167972591983e-01  4.0368327455435504e-01  4.0364543218309029e-01  4.0361759237634798e-01  4.0359925877552089e-01  4.0358990853028309e-01  4.0358888330867632e-01  4.0359524051197604e-01  4.0360748658492251e-01  4.0362290257578931e-01  4.0363546665495209e-01  4.0362913852630361e-01  4.0355721974860814e-01  4.0328775578051440e-01  4.0251796186878946e-01  4.0101789029408619e-01  4.0003083421464991e-01  4.0018874163499535e-01  4.0306209242678337e-01  4.0725217485978765e-01  4.0914944133490372e-01  4.0940721357691734e-01  4.0899621245591006e-01  4.0837864419731784e-01  4.0773779217181289e-01  4.0714202772153180e-01  4.0661323917477193e-01  4.0615466299418884e-01  4.0576188507193567e-01  4.0542772825774887e-01  4.0514447111997437e-01  4.0490483425805351e-01  4.0470237769063377e-01  4.0453160805030841e-01  4.0438795094156088e-01  4.0426766677774928e-01  4.0416774940568156e-01  4.0408582591007325e-01  4.0402006498159176e-01  4.0396909540645526e-01  4.0393193309894115e-01  4.0390791325501701e-01  4.0389662288889822e-01  4.0389782781584771e-01  4.0391138685591910e-01  4.0393714472927933e-01  4.0397479314398083e-01  4.0402368582216130e-01  4.0408257889260629e-01  4.0414920127112902e-01  4.0421932851118209e-01  4.0428418686483281e-01  4.0432229587785951e-01  4.0427456790012378e-01  4.0397839837669763e-01  4.0306465379857487e-01  4.0125556180973898e-01  4.0004979287842934e-01  4.0013965420493286e-01  4.0240815111002032e-01  4.0572640373583407e-01  4.0729109039113298e-01  4.0761544566125463e-01  4.0742487873761318e-01  4.0705826939228129e-01  4.0665052697845649e-01  4.0625467387064718e-01  4.0589168982424123e-01  4.0556890196053658e-01  4.0528723695156416e-01  4.0504462080039982e-01  4.0483768518285412e-01  4.0466268584546083e-01  4.0451598815041728e-01  4.0439430829712952e-01  4.0429481786538379e-01  4.0421517371128957e-01  4.0415350951492213e-01  4.0410840936092285e-01  4.0407887413539328e-01  4.0406428555582491e-01  4.0406436873876245e-01  4.0407915128589933e-01  4.0410891421551537e-01  4.0415412715356130e-01  4.0421535666641328e-01  4.0429313220667068e-01  4.0438774804891331e-01  4.0449897185354594e-01  4.0462560636710704e-01  4.0476477913406261e-01  4.0491057113805934e-01  4.0505055136016488e-01  4.0515565212056986e-01  4.0514989850407251e-01  4.0483034880270274e-01  4.0374280062215229e-01  4.0154998950372356e-01  4.0007308185696716e-01  4.0010224555017643e-01  4.0192279332780817e-01  4.0460326432361143e-01  4.0590381085792698e-01  4.0623720327935481e-01  4.0617076423508208e-01  4.0596320633631428e-01  4.0571441589989471e-01  4.054637754