<?xml version="1.0"?>
<VTKFile type="UnstructuredGrid"  version="0.1"  >
<UnstructuredGrid>
<Piece  NumberOfPoints="1681" NumberOfCells="3200">
<Points>
<DataArray  type="Float64"  NumberOfComponents="3"  format="ascii">0 0 0  0.025 0 0  0.05 0 0  0.075 0 0  0.1 0 0  0.125 0 0  0.15 0 0  0.175 0 0  0.2 0 0  0.225 0 0  0.25 0 0  0.275 0 0  0.3 0 0  0.325 0 0  0.35 0 0  0.375 0 0  0.4 0 0  0.425 0 0  0.45 0 0  0.475 0 0  0.5 0 0  0.525 0 0  0.55 0 0  0.575 0 0  0.6 0 0  0.625 0 0  0.65 0 0  0.675 0 0  0.7 0 0  0.725 0 0  0.75 0 0  0.775 0 0  0.8 0 0  0.825 0 0  0.85 0 0  0.875 0 0  0.9 0 0  0.925 0 0  0.95 0 0  0.975 0 0  1 0 0  0 0.025 0  0.025 0.025 0  0.05 0.025 0  0.075 0.025 0  0.1 0.025 0  0.125 0.025 0  0.15 0.025 0  0.175 0.025 0  0.2 0.025 0  0.225 0.025 0  0.25 0.025 0  0.275 0.025 0  0.3 0.025 0  0.325 0.025 0  0.35 0.025 0  0.375 0.025 0  0.4 0.025 0  0.425 0.025 0  0.45 0.025 0  0.475 0.025 0  0.5 0.025 0  0.525 0.025 0  0.55 0.025 0  0.575 0.025 0  0.6 0.025 0  0.625 0.025 0  0.65 0.025 0  0.675 0.025 0  0.7 0.025 0  0.725 0.025 0  0.75 0.025 0  0.775 0.025 0  0.8 0.025 0  0.825 0.025 0  0.85 0.025 0  0.875 0.025 0  0.9 0.025 0  0.925 0.025 0  0.95 0.025 0  0.975 0.025 0  1 0.025 0  0 0.05 0  0.025 0.05 0  0.05 0.05 0  0.075 0.05 0  0.1 0.05 0  0.125 0.05 0  0.15 0.05 0  0.175 0.05 0  0.2 0.05 0  0.225 0.05 0  0.25 0.05 0  0.275 0.05 0  0.3 0.05 0  0.325 0.05 0  0.35 0.05 0  0.375 0.05 0  0.4 0.05 0  0.425 0.05 0  0.45 0.05 0  0.475 0.05 0  0.5 0.05 0  0.525 0.05 0  0.55 0.05 0  0.575 0.05 0  0.6 0.05 0  0.625 0.05 0  0.65 0.05 0  0.675 0.05 0  0.7 0.05 0  0.725 0.05 0  0.75 0.05 0  0.775 0.05 0  0.8 0.05 0  0.825 0.05 0  0.85 0.05 0  0.875 0.05 0  0.9 0.05 0  0.925 0.05 0  0.95 0.05 0  0.975 0.05 0  1 0.05 0  0 0.075 0  0.025 0.075 0  0.05 0.075 0  0.075 0.075 0  0.1 0.075 0  0.125 0.075 0  0.15 0.075 0  0.175 0.075 0  0.2 0.075 0  0.225 0.075 0  0.25 0.075 0  0.275 0.075 0  0.3 0.075 0  0.325 0.075 0  0.35 0.075 0  0.375 0.075 0  0.4 0.075 0  0.425 0.075 0  0.45 0.075 0  0.475 0.075 0  0.5 0.075 0  0.525 0.075 0  0.55 0.075 0  0.575 0.075 0  0.6 0.075 0  0.625 0.075 0  0.65 0.075 0  0.675 0.075 0  0.7 0.075 0  0.725 0.075 0  0.75 0.075 0  0.775 0.075 0  0.8 0.075 0  0.825 0.075 0  0.85 0.075 0  0.875 0.075 0  0.9 0.075 0  0.925 0.075 0  0.95 0.075 0  0.975 0.075 0  1 0.075 0  0 0.1 0  0.025 0.1 0  0.05 0.1 0  0.075 0.1 0  0.1 0.1 0  0.125 0.1 0  0.15 0.1 0  0.175 0.1 0  0.2 0.1 0  0.225 0.1 0  0.25 0.1 0  0.275 0.1 0  0.3 0.1 0  0.325 0.1 0  0.35 0.1 0  0.375 0.1 0  0.4 0.1 0  0.425 0.1 0  0.45 0.1 0  0.475 0.1 0  0.5 0.1 0  0.525 0.1 0  0.55 0.1 0  0.575 0.1 0  0.6 0.1 0  0.625 0.1 0  0.65 0.1 0  0.675 0.1 0  0.7 0.1 0  0.725 0.1 0  0.75 0.1 0  0.775 0.1 0  0.8 0.1 0  0.825 0.1 0  0.85 0.1 0  0.875 0.1 0  0.9 0.1 0  0.925 0.1 0  0.95 0.1 0  0.975 0.1 0  1 0.1 0  0 0.125 0  0.025 0.125 0  0.05 0.125 0  0.075 0.125 0  0.1 0.125 0  0.125 0.125 0  0.15 0.125 0  0.175 0.125 0  0.2 0.125 0  0.225 0.125 0  0.25 0.125 0  0.275 0.125 0  0.3 0.125 0  0.325 0.125 0  0.35 0.125 0  0.375 0.125 0  0.4 0.125 0  0.425 0.125 0  0.45 0.125 0  0.475 0.125 0  0.5 0.125 0  0.525 0.125 0  0.55 0.125 0  0.575 0.125 0  0.6 0.125 0  0.625 0.125 0  0.65 0.125 0  0.675 0.125 0  0.7 0.125 0  0.725 0.125 0  0.75 0.125 0  0.775 0.125 0  0.8 0.125 0  0.825 0.125 0  0.85 0.125 0  0.875 0.125 0  0.9 0.125 0  0.925 0.125 0  0.95 0.125 0  0.975 0.125 0  1 0.125 0  0 0.15 0  0.025 0.15 0  0.05 0.15 0  0.075 0.15 0  0.1 0.15 0  0.125 0.15 0  0.15 0.15 0  0.175 0.15 0  0.2 0.15 0  0.225 0.15 0  0.25 0.15 0  0.275 0.15 0  0.3 0.15 0  0.325 0.15 0  0.35 0.15 0  0.375 0.15 0  0.4 0.15 0  0.425 0.15 0  0.45 0.15 0  0.475 0.15 0  0.5 0.15 0  0.525 0.15 0  0.55 0.15 0  0.575 0.15 0  0.6 0.15 0  0.625 0.15 0  0.65 0.15 0  0.675 0.15 0  0.7 0.15 0  0.725 0.15 0  0.75 0.15 0  0.775 0.15 0  0.8 0.15 0  0.825 0.15 0  0.85 0.15 0  0.875 0.15 0  0.9 0.15 0  0.925 0.15 0  0.95 0.15 0  0.975 0.15 0  1 0.15 0  0 0.175 0  0.025 0.175 0  0.05 0.175 0  0.075 0.175 0  0.1 0.175 0  0.125 0.175 0  0.15 0.175 0  0.175 0.175 0  0.2 0.175 0  0.225 0.175 0  0.25 0.175 0  0.275 0.175 0  0.3 0.175 0  0.325 0.175 0  0.35 0.175 0  0.375 0.175 0  0.4 0.175 0  0.425 0.175 0  0.45 0.175 0  0.475 0.175 0  0.5 0.175 0  0.525 0.175 0  0.55 0.175 0  0.575 0.175 0  0.6 0.175 0  0.625 0.175 0  0.65 0.175 0  0.675 0.175 0  0.7 0.175 0  0.725 0.175 0  0.75 0.175 0  0.775 0.175 0  0.8 0.175 0  0.825 0.175 0  0.85 0.175 0  0.875 0.175 0  0.9 0.175 0  0.925 0.175 0  0.95 0.175 0  0.975 0.175 0  1 0.175 0  0 0.2 0  0.025 0.2 0  0.05 0.2 0  0.075 0.2 0  0.1 0.2 0  0.125 0.2 0  0.15 0.2 0  0.175 0.2 0  0.2 0.2 0  0.225 0.2 0  0.25 0.2 0  0.275 0.2 0  0.3 0.2 0  0.325 0.2 0  0.35 0.2 0  0.375 0.2 0  0.4 0.2 0  0.425 0.2 0  0.45 0.2 0  0.475 0.2 0  0.5 0.2 0  0.525 0.2 0  0.55 0.2 0  0.575 0.2 0  0.6 0.2 0  0.625 0.2 0  0.65 0.2 0  0.675 0.2 0  0.7 0.2 0  0.725 0.2 0  0.75 0.2 0  0.775 0.2 0  0.8 0.2 0  0.825 0.2 0  0.85 0.2 0  0.875 0.2 0  0.9 0.2 0  0.925 0.2 0  0.95 0.2 0  0.975 0.2 0  1 0.2 0  0 0.225 0  0.025 0.225 0  0.05 0.225 0  0.075 0.225 0  0.1 0.225 0  0.125 0.225 0  0.15 0.225 0  0.175 0.225 0  0.2 0.225 0  0.225 0.225 0  0.25 0.225 0  0.275 0.225 0  0.3 0.225 0  0.325 0.225 0  0.35 0.225 0  0.375 0.225 0  0.4 0.225 0  0.425 0.225 0  0.45 0.225 0  0.475 0.225 0  0.5 0.225 0  0.525 0.225 0  0.55 0.225 0  0.575 0.225 0  0.6 0.225 0  0.625 0.225 0  0.65 0.225 0  0.675 0.225 0  0.7 0.225 0  0.725 0.225 0  0.75 0.225 0  0.775 0.225 0  0.8 0.225 0  0.825 0.225 0  0.85 0.225 0  0.875 0.225 0  0.9 0.225 0  0.925 0.225 0  0.95 0.225 0  0.975 0.225 0  1 0.225 0  0 0.25 0  0.025 0.25 0  0.05 0.25 0  0.075 0.25 0  0.1 0.25 0  0.125 0.25 0  0.15 0.25 0  0.175 0.25 0  0.2 0.25 0  0.225 0.25 0  0.25 0.25 0  0.275 0.25 0  0.3 0.25 0  0.325 0.25 0  0.35 0.25 0  0.375 0.25 0  0.4 0.25 0  0.425 0.25 0  0.45 0.25 0  0.475 0.25 0  0.5 0.25 0  0.525 0.25 0  0.55 0.25 0  0.575 0.25 0  0.6 0.25 0  0.625 0.25 0  0.65 0.25 0  0.675 0.25 0  0.7 0.25 0  0.725 0.25 0  0.75 0.25 0  0.775 0.25 0  0.8 0.25 0  0.825 0.25 0  0.85 0.25 0  0.875 0.25 0  0.9 0.25 0  0.925 0.25 0  0.95 0.25 0  0.975 0.25 0  1 0.25 0  0 0.275 0  0.025 0.275 0  0.05 0.275 0  0.075 0.275 0  0.1 0.275 0  0.125 0.275 0  0.15 0.275 0  0.175 0.275 0  0.2 0.275 0  0.225 0.275 0  0.25 0.275 0  0.275 0.275 0  0.3 0.275 0  0.325 0.275 0  0.35 0.275 0  0.375 0.275 0  0.4 0.275 0  0.425 0.275 0  0.45 0.275 0  0.475 0.275 0  0.5 0.275 0  0.525 0.275 0  0.55 0.275 0  0.575 0.275 0  0.6 0.275 0  0.625 0.275 0  0.65 0.275 0  0.675 0.275 0  0.7 0.275 0  0.725 0.275 0  0.75 0.275 0  0.775 0.275 0  0.8 0.275 0  0.825 0.275 0  0.85 0.275 0  0.875 0.275 0  0.9 0.275 0  0.925 0.275 0  0.95 0.275 0  0.975 0.275 0  1 0.275 0  0 0.3 0  0.025 0.3 0  0.05 0.3 0  0.075 0.3 0  0.1 0.3 0  0.125 0.3 0  0.15 0.3 0  0.175 0.3 0  0.2 0.3 0  0.225 0.3 0  0.25 0.3 0  0.275 0.3 0  0.3 0.3 0  0.325 0.3 0  0.35 0.3 0  0.375 0.3 0  0.4 0.3 0  0.425 0.3 0  0.45 0.3 0  0.475 0.3 0  0.5 0.3 0  0.525 0.3 0  0.55 0.3 0  0.575 0.3 0  0.6 0.3 0  0.625 0.3 0  0.65 0.3 0  0.675 0.3 0  0.7 0.3 0  0.725 0.3 0  0.75 0.3 0  0.775 0.3 0  0.8 0.3 0  0.825 0.3 0  0.85 0.3 0  0.875 0.3 0  0.9 0.3 0  0.925 0.3 0  0.95 0.3 0  0.975 0.3 0  1 0.3 0  0 0.325 0  0.025 0.325 0  0.05 0.325 0  0.075 0.325 0  0.1 0.325 0  0.125 0.325 0  0.15 0.325 0  0.175 0.325 0  0.2 0.325 0  0.225 0.325 0  0.25 0.325 0  0.275 0.325 0  0.3 0.325 0  0.325 0.325 0  0.35 0.325 0  0.375 0.325 0  0.4 0.325 0  0.425 0.325 0  0.45 0.325 0  0.475 0.325 0  0.5 0.325 0  0.525 0.325 0  0.55 0.325 0  0.575 0.325 0  0.6 0.325 0  0.625 0.325 0  0.65 0.325 0  0.675 0.325 0  0.7 0.325 0  0.725 0.325 0  0.75 0.325 0  0.775 0.325 0  0.8 0.325 0  0.825 0.325 0  0.85 0.325 0  0.875 0.325 0  0.9 0.325 0  0.925 0.325 0  0.95 0.325 0  0.975 0.325 0  1 0.325 0  0 0.35 0  0.025 0.35 0  0.05 0.35 0  0.075 0.35 0  0.1 0.35 0  0.125 0.35 0  0.15 0.35 0  0.175 0.35 0  0.2 0.35 0  0.225 0.35 0  0.25 0.35 0  0.275 0.35 0  0.3 0.35 0  0.325 0.35 0  0.35 0.35 0  0.375 0.35 0  0.4 0.35 0  0.425 0.35 0  0.45 0.35 0  0.475 0.35 0  0.5 0.35 0  0.525 0.35 0  0.55 0.35 0  0.575 0.35 0  0.6 0.35 0  0.625 0.35 0  0.65 0.35 0  0.675 0.35 0  0.7 0.35 0  0.725 0.35 0  0.75 0.35 0  0.775 0.35 0  0.8 0.35 0  0.825 0.35 0  0.85 0.35 0  0.875 0.35 0  0.9 0.35 0  0.925 0.35 0  0.95 0.35 0  0.975 0.35 0  1 0.35 0  0 0.375 0  0.025 0.375 0  0.05 0.375 0  0.075 0.375 0  0.1 0.375 0  0.125 0.375 0  0.15 0.375 0  0.175 0.375 0  0.2 0.375 0  0.225 0.375 0  0.25 0.375 0  0.275 0.375 0  0.3 0.375 0  0.325 0.375 0  0.35 0.375 0  0.375 0.375 0  0.4 0.375 0  0.425 0.375 0  0.45 0.375 0  0.475 0.375 0  0.5 0.375 0  0.525 0.375 0  0.55 0.375 0  0.575 0.375 0  0.6 0.375 0  0.625 0.375 0  0.65 0.375 0  0.675 0.375 0  0.7 0.375 0  0.725 0.375 0  0.75 0.375 0  0.775 0.375 0  0.8 0.375 0  0.825 0.375 0  0.85 0.375 0  0.875 0.375 0  0.9 0.375 0  0.925 0.375 0  0.95 0.375 0  0.975 0.375 0  1 0.375 0  0 0.4 0  0.025 0.4 0  0.05 0.4 0  0.075 0.4 0  0.1 0.4 0  0.125 0.4 0  0.15 0.4 0  0.175 0.4 0  0.2 0.4 0  0.225 0.4 0  0.25 0.4 0  0.275 0.4 0  0.3 0.4 0  0.325 0.4 0  0.35 0.4 0  0.375 0.4 0  0.4 0.4 0  0.425 0.4 0  0.45 0.4 0  0.475 0.4 0  0.5 0.4 0  0.525 0.4 0  0.55 0.4 0  0.575 0.4 0  0.6 0.4 0  0.625 0.4 0  0.65 0.4 0  0.675 0.4 0  0.7 0.4 0  0.725 0.4 0  0.75 0.4 0  0.775 0.4 0  0.8 0.4 0  0.825 0.4 0  0.85 0.4 0  0.875 0.4 0  0.9 0.4 0  0.925 0.4 0  0.95 0.4 0  0.975 0.4 0  1 0.4 0  0 0.425 0  0.025 0.425 0  0.05 0.425 0  0.075 0.425 0  0.1 0.425 0  0.125 0.425 0  0.15 0.425 0  0.175 0.425 0  0.2 0.425 0  0.225 0.425 0  0.25 0.425 0  0.275 0.425 0  0.3 0.425 0  0.325 0.425 0  0.35 0.425 0  0.375 0.425 0  0.4 0.425 0  0.425 0.425 0  0.45 0.425 0  0.475 0.425 0  0.5 0.425 0  0.525 0.425 0  0.55 0.425 0  0.575 0.425 0  0.6 0.425 0  0.625 0.425 0  0.65 0.425 0  0.675 0.425 0  0.7 0.425 0  0.725 0.425 0  0.75 0.425 0  0.775 0.425 0  0.8 0.425 0  0.825 0.425 0  0.85 0.425 0  0.875 0.425 0  0.9 0.425 0  0.925 0.425 0  0.95 0.425 0  0.975 0.425 0  1 0.425 0  0 0.45 0  0.02
[...]
<PointData  Scalars="ControlVisualisation"> 
<DataArray  type="Float64"  Name="ControlVisualisation"  format="ascii">-5.5925669026406154e-09  -7.1082324033607739e-09  -7.1081207623049373e-09  -7.1083601702499386e-09  -7.1083238261027220e-09  -7.1069362543043318e-09  -7.1034467116970925e-09  -7.0985799990181487e-09  -7.0947199229082286e-09  -7.0920046461690815e-09  -7.0896604427406392e-09  -7.0875996028464204e-09  -7.0859345755048200e-09  -7.0846188364349009e-09  -7.0835867183982799e-09  -7.0828330784885323e-09  -7.0823422542179685e-09  -7.0820599823611182e-09  -7.0819185652554255e-09  -7.0818660645392780e-09  -7.0818764733181806e-09  -7.0819469525618906e-09  -7.0820975670823209e-09  -7.0823755200694720e-09  -7.0828486970041390e-09  -7.0835783979444872e-09  -7.0845897038907037e-09  -7.0858809409711613e-09  -7.0875025765731132e-09  -7.0893710532527205e-09  -7.0915911620356610e-09  -7.0934317775188023e-09  -7.0968956128350022e-09  -7.1018483614076413e-09  -7.1059178008228986e-09  -7.1079613467837778e-09  -7.1084392432444400e-09  -7.1082522767597676e-09  -7.1081917183486053e-09  -7.1083851547663133e-09  -5.3982131128895579e-10  -7.1080340443034213e-09  -8.5690331185981778e-09  -8.5688673597912529e-09  -8.5690412332651564e-09  -8.5689251242043170e-09  -8.5673328419856614e-09  -8.5630624714186967e-09  -8.5568060563380336e-09  -8.5515541050629339e-09  -8.5464111549059938e-09  -8.5408797242140315e-09  -8.5354193434001133e-09  -8.5306500982023592e-09  -8.5266163360762674e-09  -8.5233061869866718e-09  -8.5207529694994815e-09  -8.5189276211072902e-09  -8.5177193738862626e-09  -8.5169981995415506e-09  -8.5166676883272600e-09  -8.5166788691725482e-09  -8.5170199671442926e-09  -8.5177145258061414e-09  -8.5188364554016896e-09  -8.5205140528509893e-09  -8.5228880540876779e-09  -8.5260118561996453e-09  -8.5298108731339846e-09  -8.5342923701356145e-09  -8.5394678804431622e-09  -8.5449007247515794e-09  -8.5478843543891942e-09  -8.5524075372884784e-09  -8.5589509609183697e-09  -8.5648933179678948e-09  -8.5680811179417431e-09  -8.5691193033622365e-09  -8.5690949286563118e-09  -8.5689787224758723e-09  -8.5691757081519611e-09  -7.1083609537547125e-09  -7.1054943194719310e-09  -8.5672814698299324e-09  -8.5671128202069150e-09  -8.5672322242523378e-09  -8.5623811175738325e-09  -8.5403830160504161e-09  -8.4880851056922073e-09  -8.4111052847990016e-09  -8.3559043651454990e-09  -8.2971928179833268e-09  -8.2138114725402600e-09  -8.1312979665528188e-09  -8.0542621687780427e-09  -7.9834974108743951e-09  -7.9211754281785146e-09  -7.8705913568465121e-09  -7.8320372613543821e-09  -7.8041253516609714e-09  -7.7853493481738875e-09  -7.7747070762266251e-09  -7.7717600932718135e-09  -7.7763519352141980e-09  -7.7885779808744251e-09  -7.8090972842890362e-09  -7.8392863087705003e-09  -7.8806895134442358e-09  -7.9333176404771925e-09  -7.9949235513481963e-09  -8.0656359900835825e-09  -8.1488122392893590e-09  -8.2373348782916544e-09  -8.2960977086610360e-09  -8.3825353082591242e-09  -8.4805226536715264e-09  -8.5380800719645569e-09  -8.5604298616449253e-09  -8.5667823109660475e-09  -8.5675562254592265e-09  -8.5672287752467095e-09  -8.5677234915153063e-09  -7.1074823240766843e-09  -7.0912893604282726e-09  -8.5592762246657445e-09  -8.5507475401300509e-09  -8.4623388763949789e-09  -8.3149430951086780e-09  -8.0026928066883164e-09  -6.9787205264460009e-09  -7.4600687366449025e-10  2.8872552098001141e-02  9.9162682309412040e-02  1.5684819351474238e-01  2.0875940296024098e-01  2.5044587924756923e-01  2.8362303551614915e-01  3.0924468965426549e-01  3.2860368981471855e-01  3.4283802385562590e-01  3.5289842508057861e-01  3.5949561111424039e-01  3.6311398436986703e-01  3.6403103217137944e-01  3.6233240070861744e-01  3.5791721695752193e-01  3.5049262828027872e-01  3.3955897456374651e-01  3.2439108934387734e-01  3.0403033866492490e-01  2.7731966119229062e-01  2.4298937706534743e-01  1.9982718456506390e-01  1.4678863959527097e-01  8.5576754434466371e-02  1.7519866695568046e-02  -1.7586323687713102e-09  -7.0670655995132058e-09  -7.9516461501774827e-09  -8.3880969772389756e-09  -8.5499997037218631e-09  -8.5606331293538873e-09  -8.5601033731842952e-09  -7.1031112622935027e-09  -7.0377992148089247e-09  -8.5061390309915010e-09  -8.3650207083558451e-09  -7.0404967015903664e-09  1.0461228137724346e-01  3.9827694264883212e-01  6.5074567575518472e-01  8.8555325273545737e-01  9.9999999003137230e-01  1.0000000041668449e+00  1.0000000059343881e+00  1.0000000066747365e+00  1.0000000070430122e+00  1.0000000072580657e+00  1.0000000074003621e+00  1.0000000074987678e+00  1.0000000075644764e+00  1.0000000076064619e+00  1.0000000076314455e+00  1.0000000076436106e+00  1.0000000076450253e+00  1.0000000076360775e+00  1.0000000076158857e+00  1.0000000075820692e+00  1.0000000075298723e+00  1.0000000074511763e+00  1.0000000073335513e+00  1.0000000071583048e+00  1.0000000068902979e+00  1.0000000064366232e+00  1.0000000055175100e+00  1.0000000028270477e+00  9.9999996774026401e-01  8.6040508865970899e-01  6.2492720095650778e-01  3.5821066154547093e-01  7.1655381898972290e-02  -6.7974337721274575e-09  -8.4203311575678398e-09  -8.5351123005488834e-09  -7.0827780000408727e-09  -6.8919951602092557e-09  -8.1481493693746181e-09  1.0248535724841737e-01  8.0991283737666142e-01  1.0000000068254029e+00  1.0000000085004832e+00  1.0000000088820646e+00  1.0000000090498533e+00  1.0000000091419561e+00  1.0000000092085839e+00  1.0000000092556107e+00  1.0000000092846468e+00  1.0000000093035777e+00  1.0000000093164862e+00  1.0000000093255450e+00  1.0000000093319772e+00  1.0000000093364729e+00  1.0000000093394978e+00  1.0000000093413839e+00  1.0000000093423549e+00  1.0000000093425347e+00  1.0000000093419570e+00  1.0000000093405701e+00  1.0000000093382342e+00  1.0000000093347126e+00  1.0000000093296639e+00  1.0000000093226056e+00  1.0000000093127870e+00  1.0000000092989192e+00  1.0000000092787775e+00  1.0000000092484052e+00  1.0000000091998351e+00  1.0000000091152068e+00  1.0000000089811765e+00  1.0000000087571215e+00  1.0000000082233906e+00  1.0000000060099312e+00  7.2955440857165432e-01  8.9727389988497330e-02  -8.2440696550044005e-09  -6.7476339332413549e-09  -3.7188231802646766e-09  6.7735930322501647e-01  1.0000000087299412e+00  1.0000000093520607e+00  1.0000000094926302e+00  1.0000000095692647e+00  1.0000000096099386e+00  1.0000000096318986e+00  1.0000000096445298e+00  1.0000000096516761e+00  1.0000000096554020e+00  1.0000000096571715e+00  1.0000000096579051e+00  1.0000000096581352e+00  1.0000000096581507e+00  1.0000000096580881e+00  1.0000000096579964e+00  1.0000000096578947e+00  1.0000000096577950e+00  1.0000000096577073e+00  1.0000000096576378e+00  1.0000000096575878e+00  1.0000000096575528e+00  1.0000000096575248e+00  1.0000000096574937e+00  1.0000000096574493e+00  1.0000000096573776e+00  1.0000000096572372e+00  1.0000000096569199e+00  1.0000000096561914e+00  1.0000000096545947e+00  1.0000000096512798e+00  1.0000000096448405e+00  1.0000000096331640e+00  1.0000000096123887e+00  1.0000000095726609e+00  1.0000000094851633e+00  1.0000000092632468e+00  1.0000000084691270e+00  3.9052859079824120e-01  -6.5975643262414569e-09  1.0000000094430326e+00  1.0000000097096371e+00  1.0000000097757535e+00  1.0000000097956971e+00  1.0000000098014272e+00  1.0000000097997745e+00  1.0000000097952639e+00  1.0000000097901591e+00  1.0000000097853818e+00  1.0000000097811859e+00  1.0000000097775634e+00  1.0000000097744928e+00  1.0000000097719510e+00  1.0000000097699016e+00  1.0000000097682935e+00  1.0000000097670623e+00  1.0000000097661419e+00  1.0000000097654760e+00  1.0000000097650206e+00  1.0000000097647479e+00  1.0000000097646407e+00  1.0000000097646944e+00  1.0000000097649135e+00  1.0000000097653146e+00  1.0000000097659274e+00  1.0000000097667985e+00  1.0000000097679915e+00  1.0000000097695845e+00  1.0000000097716639e+00  1.0000000097743156e+00  1.0000000097776147e+00  1.0000000097816215e+00  1.0000000097863875e+00  1.0000000097919333e+00  1.0000000097980488e+00  1.0000000098038571e+00  1.0000000098072379e+00  1.0000000098036275e+00  1.0000000097812107e+00  1.0000000097129209e+00  1.0000000083682206e+00  1.0000000098824384e+00  1.0000000099262221e+00  1.0000000099169442e+00  1.0000000099039821e+00  1.0000000098898238e+00  1.0000000098758324e+00  1.0000000098630109e+00  1.0000000098519484e+00  1.0000000098428121e+00  1.0000000098354784e+00  1.0000000098296802e+00  1.0000000098251349e+00  1.0000000098215973e+00  1.0000000098188686e+00  1.0000000098167874e+00  1.0000000098152231e+00  1.0000000098140698e+00  1.0000000098132471e+00  1.0000000098126953e+00  1.0000000098123740e+00  1.0000000098122606e+00  1.0000000098123476e+00  1.0000000098126427e+00  1.0000000098131689e+00  1.0000000098139681e+00  1.0000000098151021e+00  1.0000000098166577e+00  1.0000000098187485e+00  1.0000000098215189e+00  1.0000000098251480e+00  1.0000000098298543e+00  1.0000000098358992e+00  1.0000000098435746e+00  1.0000000098531505e+00  1.0000000098647519e+00  1.0000000098781898e+00  1.0000000098928292e+00  1.0000000099075390e+00  1.0000000099206607e+00  1.0000000099300235e+00  1.0000000098322634e+00  1.0000000099343629e+00  1.0000000099610149e+00  1.0000000099509188e+00  1.0000000099370285e+00  1.0000000099213753e+00  1.0000000099056303e+00  1.0000000098910806e+00  1.0000000098784492e+00  1.0000000098679858e+00  1.0000000098596025e+00  1.0000000098530277e+00  1.0000000098479389e+00  1.0000000098440334e+00  1.0000000098410584e+00  1.0000000098388111e+00  1.0000000098371333e+00  1.0000000098359048e+00  1.0000000098350323e+00  1.0000000098344510e+00  1.0000000098341169e+00  1.0000000098340041e+00  1.0000000098341051e+00  1.0000000098344284e+00  1.0000000098349993e+00  1.0000000098358628e+00  1.0000000098370863e+00  1.0000000098387638e+00  1.0000000098410220e+00  1.0000000098440245e+00  1.0000000098479813e+00  1.0000000098531527e+00  1.0000000098598465e+00  1.0000000098683870e+00  1.0000000098790425e+00  1.0000000098918922e+00  1.0000000099066564e+00  1.0000000099225568e+00  1.0000000099382700e+00  1.0000000099520168e+00  1.0000000099617263e+00  1.0000000099254438e+00  1.0000000099420217e+00  1.0000000099676651e+00  1.0000000099585129e+00  1.0000000099453366e+00  1.0000000099299116e+00  1.0000000099140525e+00  1.0000000098991904e+00  1.0000000098861763e+00  1.0000000098753448e+00  1.0000000098666493e+00  1.0000000098598347e+00  1.0000000098545743e+00  1.0000000098505528e+00  1.0000000098475017e+00  1.0000000098452055e+00  1.0000000098434976e+00  1.0000000098422497e+00  1.0000000098413666e+00  1.0000000098407809e+00  1.0000000098404460e+00  1.0000000098403368e+00  1.0000000098404451e+00  1.0000000098407795e+00  1.0000000098413657e+00  1.0000000098422499e+00  1.0000000098434998e+00  1.0000000098452111e+00  1.0000000098475115e+00  1.0000000098505690e+00  1.0000000098545980e+00  1.0000000098598658e+00  1.0000000098666846e+00  1.0000000098753794e+00  1.0000000098862056e+00  1.0000000098992119e+00  1.0000000099140660e+00  1.0000000099299191e+00  1.0000000099453399e+00  1.0000000099585140e+00  1.0000000099676654e+00  1.0000000099420214e+00  1.0000000099254456e+00  1.0000000099617297e+00  1.0000000099520236e+00  1.0000000099382764e+00  1.0000000099225548e+00  1.0000000099066362e+00  1.0000000098918456e+00  1.0000000098789661e+00  1.0000000098682837e+00  1.0000000098597235e+00  1.0000000098530162e+00  1.0000000098478348e+00  1.0000000098438693e+00  1.0000000098408584e+00  1.0000000098385928e+00  1.0000000098369082e+00  1.0000000098356792e+00  1.0000000098348110e+00  1.0000000098342363e+00  1.0000000098339097e+00  1.0000000098338067e+00  1.0000000098339195e+00  1.0000000098342561e+00  1.0000000098348416e+00  1.0000000098357207e+00  1.0000000098369595e+00  1.0000000098386492e+00  1.0000000098409130e+00  1.0000000098439088e+00  1.0000000098478392e+00  1.0000000098529547e+00  1.0000000098595536e+00  1.0000000098679562e+00  1.0000000098784350e+00  1.0000000098910784e+00  1.0000000099056374e+00  1.0000000099213886e+00  1.0000000099370427e+00  1.0000000099509287e+00  1.0000000099610180e+00  1.0000000099343640e+00  1.0000000098322837e+00  1.0000000099300459e+00  1.0000000099207014e+00  1.0000000099075781e+00  1.0000000098928452e+00  1.0000000098781621e+00  1.0000000098646640e+00  1.0000000098529973e+00  1.0000000098433628e+00  1.0000000098356427e+00  1.0000000098295629e+00  1.0000000098248250e+00  1.0000000098211643e+00  1.0000000098183643e+00  1.0000000098162480e+00  1.0000000098146717e+00  1.0000000098135211e+00  1.0000000098127084e+00  1.0000000098121715e+00  1.0000000098118689e+00  1.0000000098117781e+00  1.0000000098118922e+00  1.0000000098122193e+00  1.0000000098127815e+00  1.0000000098136199e+00  1.0000000098147930e+00  1.0000000098163828e+00  1.0000000098184960e+00  1.0000000098212658e+00  1.0000000098248540e+00  1.0000000098294564e+00  1.0000000098353092e+00  1.0000000098426902e+00  1.0000000098518682e+00  1.0000000098629716e+00  1.0000000098758326e+00  1.0000000098898569e+00  1.0000000099040329e+00  1.0000000099169923e+00  1.0000000099262472e+00  1.0000000098824455e+00  1.0000000083689002e+00  1.0000000097132775e+00  1.0000000097815855e+00  1.0000000098038739e+00  1.0000000098073580e+00  1.0000000098038393e+00  1.0000000097978794e+00  1.0000000097916124e+00  1.0000000097859425e+00  1.0000000097810910e+00  1.0000000097770170e+00  1.0000000097736452e+00  1.0000000097709154e+00  1.0000000097687631e+00  1.0000000097671096e+00  1.0000000097658686e+00  1.0000000097649600e+00  1.0000000097643169e+00  1.0000000097638917e+00  1.0000000097636554e+00  1.0000000097635935e+00  1.0000000097637025e+00  1.0000000097639883e+00  1.0000000097644666e+00  1.0000000097651653e+00  1.0000000097661266e+00  1.0000000097674071e+00  1.0000000097690749e+00  1.0000000097712007e+00  1.0000000097738431e+00  1.0000000097770332e+00  1.0000000097807715e+00  1.0000000097850663e+00  1.0000000097899324e+00  1.0000000097951378e+00  1.0000000097997663e+00  1.0000000098015518e+00  1.0000000097959563e+00  1.0000000097760495e+00  1.0000000097100095e+00  1.0000000094432908e+00  -6.6077727389399648e-09  3.9519202952278865e-01  1.0000000084778231e+00  1.0000000092661832e+00  1.0000000094863326e+00  1.0000000095729180e+00  1.0000000096120543e+00  1.0000000096323485e+00  1.0000000096436998e+00  1.0000000096499790e+00  1.0000000096531654e+00  1.0000000096545743e+00  1.0000000096550865e+00  1.0000000096552140e+00  1.0000000096552046e+00  1.0000000096551596e+00  1.0000000096551114e+00  1.0000000096550690e+00  1.0000000096550374e+00  1.0000000096550288e+00  1.0000000096550579e+00  1.0000000096551340e+00  1.0000000096552548e+00  1.0000000096554111e+00  1.0000000096555901e+00  1.0000000096557793e+00  1.0000000096559540e+00  1.0000000096560615e+00  1.0000000096559838e+00  1.0000000096554700e+00  1.0000000096539925e+00  1.0000000096505572e+00  1.0000000096436295e+00  1.0000000096311890e+00  1.0000000096095185e+00  1.0000000095693147e+00  1.0000000094931456e+00  1.0000000093529926e+00  1.0000000087372762e+00  6.8284791111289578e-01  -3.6845933484929016e-09  -6.7954792673918781e-09  -8.2494065632224487e-09  9.5500236516102135e-02  7.3438165152654966e-01  1.0000000060674659e+00  1.0000000082313569e+00  1.0000000087576246e+00  1.0000000089775021e+00  1.0000000091097552e+00  1.0000000091945427e+00  1.0000000092429524e+00  1.0000000092725756e+00  1.0000000092918659e+00  1.0000000093050989e+00  1.0000000093144499e+00  1.0000000093211265e+00  1.0000000093258687e+00  1.0000000093291481e+00  1.0000000093312864e+00  1.0000000093325241e+00  1.0000000093330321e+00  1.0000000093328820e+00  1.0000000093320305e+00  1.0000000093303312e+00  1.0000000093275567e+00  1.0000000093233807e+00  1.0000000093173136e+00  1.0000000093086010e+00  1.0000000092960355e+00  1.0000000092776502e+00  1.0000000092495789e+00  1.0000000092035397e+00  1.0000000091375527e+00  1.0000000090457306e+00  1.0000000088790009e+00  1.0000000085008094e+00  1.0000000068571679e+00  8.1550132653385898e-01  1.0844798691520138e-01  -8.1493429138836864e-09  -6.9064757334167280e-09  -7.0978247834932846e-09  -8.5417312915736468e-09  -8.3886287108299058e-09  -6.5981466032844995e-09  7.6984750987974651e-02  3.6011277840040584e-01  6.2326831888842293e-01  8.5390165119258488e-01  1.0000000001819556e+00  1.0000000027267342e+00  1.0000000054415803e+00  1.0000000063295491e+00  1.0000000067945480e+00  1.0000000070734372e+00  1.0000000072500295e+00  1.0000000073679984e+00  1.0000000074482109e+00  1.0000000075008277e+00  1.0000000075332225e+00  1.0000000075515791e+00  1.0000000075599933e+00  1.0000000075595485e+00  1.0000000075483459e+00  1.0000000075231297e+00  1.0000000074807205e+00  1.0000000074162636e+00  1.0000000073197246e+00  1.0000000071724096e+00  1.0000000069384525e+00  1.0000000065491299e+00  1.0000000058243725e+00  1.0000000040744865e+00  9.9999998576541727e-01  8.7820060363552044e-01  6.4850793025578446e-01  3.9925638300021776e-01  1.1034196505423018e-01  -6.8851938646671281e-09  -8.3469128969646398e-09  -8.5155429870932658e-09  -7.0620382898906184e-09  -7.1075682271394207e-09  -8.5642806511602159e-09  -8.5501202560172442e-09  -8.5184747201100359e-09  -8.3374728039043345e-09  -7.8858369635807328e-09  -6.9483350369689346e-09  -1.4994771911663114e-09  1.5483959616540614e-02  8.0321149393895272e-02  1.3811256559892870e-01  1.8760581695538167e-01  2.2762359969398424e-01  2.5914396272609858e-01  2.8342594557545181e-01  3.0174799202504637e-01  3.1525118754491727e-01  3.2487606180147677e-01  3.3134500999882971e-01  3.3516437328601750e-01  3.3663497255223046e-01  3.3586128983768682e-01  3.3275447769101008e-01  3.2702998986096299e-01  3.1819827127615880e-01  3.0555011548449590e-01  2.8815123638674556e-01  2.6489451076452997e-01  2.3447253899080298e-01  1.9587562344891316e-01  1.4741010164494467e-01  9.3446386614244981e-02  2.6558131773960110e-02  -3.8942490255875170e-10  -6.8954397082564589e-09  -7.9544130279476078e-09  -8.2771333501303163e-09  -8.4262830366538351e-09  -8.5343664863517018e-09  -8.5622169220432504e-09  -7.1025900373061798e-09  -7.1053769184490319e-09  -8.5650778976085407e-09  -8.5573958657682609e-09  -8.5484276615089060e-09  -8.5404826818930204e-09  -8.5296690583576183e-09  -8.5020911413853018e-09  -8.4457425466501549e-09  -8.3627862456576631e-09  -8.2877926132792875e-09  -8.2281808786103144e-09  -8.1561364656952128e-09  -8.0887843550475541e-09  -8.0242778922863841e-09  -7.9686566598404771e-09  -7.9244227731037371e-09  -7.8895658646341283e-09  -7.8634096454045482e-09  -7.8460275473059200e-09  -7.8364866156770639e-09  -7.8333395488480596e-09  -7.8356774360143482e-09  -7.8437561526466072e-09  -7.8589332817561441e-09  -7.8826369316370167e-09  -7.9155144324594344e-09  -7.9580364245564836e-09  -8.0108525652362499e-09  -8.0738580339460856e-09  -8.1459125315390576e-09  -8.2213546207406210e-09  -8.2908130762307049e-09  -8.3327373656926608e-09  -8.3759615392035793e-09  -8.4480476804632522e-09  -8.5026904286095145e-09  -8.5330243244895263e-09  -8.5467222613211549e-09  -8.5562002967238354e-09  -8.5647265117293729e-09  -7.1070112844859967e-09  -7.1027568965321092e-09  -8.5629484401546925e-09  -8.5588240478958660e-09  -8.5539157663976617e-09  -8.5489684272866213e-09  -8.5442134499213000e-09  -8.5396640561592401e-09  -8.5367520550512927e-09  -8.5365654110033097e-09  -8.5372398049407061e-09  -8.5361161304550035e-09  -8.5331143830666991e-09  -8.5301819738548452e-09  -8.5273563205711913e-09  -8.5250900433212378e-09  -8.5234104320650027e-09  -8.5221606824771598e-09  -8.5212829985087951e-09  -8.5207342872423954e-09  -8.5204228706492681e-09  -8.5202534529439342e-09  -8.5201798129146309e-09  -8.5202219625122813e-09  -8.5204479102753617e-09  -8.5209281088897258e-09  -8.5217087447172565e-09  -8.5228412825667801e-09  -8.5244194828971893e-09  -8.5265564352104285e-09  -8.5293026450359398e-09  -8.5324772700342622e-09  -8.5352216964687241e-09  -8.5365577123984814e-09  -8.5361080071361641e-09  -8.5377720016440680e-09  -8.5419821516447855e-09  -8.5472099771328479e-09  -8.5524865438606670e-09  -8.5577319221