<?xml version="1.0"?>
<VTKFile type="UnstructuredGrid"  version="0.1"  >
<UnstructuredGrid>
<Piece  NumberOfPoints="1681" NumberOfCells="3200">
<Points>
<DataArray  type="Float64"  NumberOfComponents="3"  format="ascii">0 0 0  0.025 0 0  0.05 0 0  0.075 0 0  0.1 0 0  0.125 0 0  0.15 0 0  0.175 0 0  0.2 0 0  0.225 0 0  0.25 0 0  0.275 0 0  0.3 0 0  0.325 0 0  0.35 0 0  0.375 0 0  0.4 0 0  0.425 0 0  0.45 0 0  0.475 0 0  0.5 0 0  0.525 0 0  0.55 0 0  0.575 0 0  0.6 0 0  0.625 0 0  0.65 0 0  0.675 0 0  0.7 0 0  0.725 0 0  0.75 0 0  0.775 0 0  0.8 0 0  0.825 0 0  0.85 0 0  0.875 0 0  0.9 0 0  0.925 0 0  0.95 0 0  0.975 0 0  1 0 0  0 0.025 0  0.025 0.025 0  0.05 0.025 0  0.075 0.025 0  0.1 0.025 0  0.125 0.025 0  0.15 0.025 0  0.175 0.025 0  0.2 0.025 0  0.225 0.025 0  0.25 0.025 0  0.275 0.025 0  0.3 0.025 0  0.325 0.025 0  0.35 0.025 0  0.375 0.025 0  0.4 0.025 0  0.425 0.025 0  0.45 0.025 0  0.475 0.025 0  0.5 0.025 0  0.525 0.025 0  0.55 0.025 0  0.575 0.025 0  0.6 0.025 0  0.625 0.025 0  0.65 0.025 0  0.675 0.025 0  0.7 0.025 0  0.725 0.025 0  0.75 0.025 0  0.775 0.025 0  0.8 0.025 0  0.825 0.025 0  0.85 0.025 0  0.875 0.025 0  0.9 0.025 0  0.925 0.025 0  0.95 0.025 0  0.975 0.025 0  1 0.025 0  0 0.05 0  0.025 0.05 0  0.05 0.05 0  0.075 0.05 0  0.1 0.05 0  0.125 0.05 0  0.15 0.05 0  0.175 0.05 0  0.2 0.05 0  0.225 0.05 0  0.25 0.05 0  0.275 0.05 0  0.3 0.05 0  0.325 0.05 0  0.35 0.05 0  0.375 0.05 0  0.4 0.05 0  0.425 0.05 0  0.45 0.05 0  0.475 0.05 0  0.5 0.05 0  0.525 0.05 0  0.55 0.05 0  0.575 0.05 0  0.6 0.05 0  0.625 0.05 0  0.65 0.05 0  0.675 0.05 0  0.7 0.05 0  0.725 0.05 0  0.75 0.05 0  0.775 0.05 0  0.8 0.05 0  0.825 0.05 0  0.85 0.05 0  0.875 0.05 0  0.9 0.05 0  0.925 0.05 0  0.95 0.05 0  0.975 0.05 0  1 0.05 0  0 0.075 0  0.025 0.075 0  0.05 0.075 0  0.075 0.075 0  0.1 0.075 0  0.125 0.075 0  0.15 0.075 0  0.175 0.075 0  0.2 0.075 0  0.225 0.075 0  0.25 0.075 0  0.275 0.075 0  0.3 0.075 0  0.325 0.075 0  0.35 0.075 0  0.375 0.075 0  0.4 0.075 0  0.425 0.075 0  0.45 0.075 0  0.475 0.075 0  0.5 0.075 0  0.525 0.075 0  0.55 0.075 0  0.575 0.075 0  0.6 0.075 0  0.625 0.075 0  0.65 0.075 0  0.675 0.075 0  0.7 0.075 0  0.725 0.075 0  0.75 0.075 0  0.775 0.075 0  0.8 0.075 0  0.825 0.075 0  0.85 0.075 0  0.875 0.075 0  0.9 0.075 0  0.925 0.075 0  0.95 0.075 0  0.975 0.075 0  1 0.075 0  0 0.1 0  0.025 0.1 0  0.05 0.1 0  0.075 0.1 0  0.1 0.1 0  0.125 0.1 0  0.15 0.1 0  0.175 0.1 0  0.2 0.1 0  0.225 0.1 0  0.25 0.1 0  0.275 0.1 0  0.3 0.1 0  0.325 0.1 0  0.35 0.1 0  0.375 0.1 0  0.4 0.1 0  0.425 0.1 0  0.45 0.1 0  0.475 0.1 0  0.5 0.1 0  0.525 0.1 0  0.55 0.1 0  0.575 0.1 0  0.6 0.1 0  0.625 0.1 0  0.65 0.1 0  0.675 0.1 0  0.7 0.1 0  0.725 0.1 0  0.75 0.1 0  0.775 0.1 0  0.8 0.1 0  0.825 0.1 0  0.85 0.1 0  0.875 0.1 0  0.9 0.1 0  0.925 0.1 0  0.95 0.1 0  0.975 0.1 0  1 0.1 0  0 0.125 0  0.025 0.125 0  0.05 0.125 0  0.075 0.125 0  0.1 0.125 0  0.125 0.125 0  0.15 0.125 0  0.175 0.125 0  0.2 0.125 0  0.225 0.125 0  0.25 0.125 0  0.275 0.125 0  0.3 0.125 0  0.325 0.125 0  0.35 0.125 0  0.375 0.125 0  0.4 0.125 0  0.425 0.125 0  0.45 0.125 0  0.475 0.125 0  0.5 0.125 0  0.525 0.125 0  0.55 0.125 0  0.575 0.125 0  0.6 0.125 0  0.625 0.125 0  0.65 0.125 0  0.675 0.125 0  0.7 0.125 0  0.725 0.125 0  0.75 0.125 0  0.775 0.125 0  0.8 0.125 0  0.825 0.125 0  0.85 0.125 0  0.875 0.125 0  0.9 0.125 0  0.925 0.125 0  0.95 0.125 0  0.975 0.125 0  1 0.125 0  0 0.15 0  0.025 0.15 0  0.05 0.15 0  0.075 0.15 0  0.1 0.15 0  0.125 0.15 0  0.15 0.15 0  0.175 0.15 0  0.2 0.15 0  0.225 0.15 0  0.25 0.15 0  0.275 0.15 0  0.3 0.15 0  0.325 0.15 0  0.35 0.15 0  0.375 0.15 0  0.4 0.15 0  0.425 0.15 0  0.45 0.15 0  0.475 0.15 0  0.5 0.15 0  0.525 0.15 0  0.55 0.15 0  0.575 0.15 0  0.6 0.15 0  0.625 0.15 0  0.65 0.15 0  0.675 0.15 0  0.7 0.15 0  0.725 0.15 0  0.75 0.15 0  0.775 0.15 0  0.8 0.15 0  0.825 0.15 0  0.85 0.15 0  0.875 0.15 0  0.9 0.15 0  0.925 0.15 0  0.95 0.15 0  0.975 0.15 0  1 0.15 0  0 0.175 0  0.025 0.175 0  0.05 0.175 0  0.075 0.175 0  0.1 0.175 0  0.125 0.175 0  0.15 0.175 0  0.175 0.175 0  0.2 0.175 0  0.225 0.175 0  0.25 0.175 0  0.275 0.175 0  0.3 0.175 0  0.325 0.175 0  0.35 0.175 0  0.375 0.175 0  0.4 0.175 0  0.425 0.175 0  0.45 0.175 0  0.475 0.175 0  0.5 0.175 0  0.525 0.175 0  0.55 0.175 0  0.575 0.175 0  0.6 0.175 0  0.625 0.175 0  0.65 0.175 0  0.675 0.175 0  0.7 0.175 0  0.725 0.175 0  0.75 0.175 0  0.775 0.175 0  0.8 0.175 0  0.825 0.175 0  0.85 0.175 0  0.875 0.175 0  0.9 0.175 0  0.925 0.175 0  0.95 0.175 0  0.975 0.175 0  1 0.175 0  0 0.2 0  0.025 0.2 0  0.05 0.2 0  0.075 0.2 0  0.1 0.2 0  0.125 0.2 0  0.15 0.2 0  0.175 0.2 0  0.2 0.2 0  0.225 0.2 0  0.25 0.2 0  0.275 0.2 0  0.3 0.2 0  0.325 0.2 0  0.35 0.2 0  0.375 0.2 0  0.4 0.2 0  0.425 0.2 0  0.45 0.2 0  0.475 0.2 0  0.5 0.2 0  0.525 0.2 0  0.55 0.2 0  0.575 0.2 0  0.6 0.2 0  0.625 0.2 0  0.65 0.2 0  0.675 0.2 0  0.7 0.2 0  0.725 0.2 0  0.75 0.2 0  0.775 0.2 0  0.8 0.2 0  0.825 0.2 0  0.85 0.2 0  0.875 0.2 0  0.9 0.2 0  0.925 0.2 0  0.95 0.2 0  0.975 0.2 0  1 0.2 0  0 0.225 0  0.025 0.225 0  0.05 0.225 0  0.075 0.225 0  0.1 0.225 0  0.125 0.225 0  0.15 0.225 0  0.175 0.225 0  0.2 0.225 0  0.225 0.225 0  0.25 0.225 0  0.275 0.225 0  0.3 0.225 0  0.325 0.225 0  0.35 0.225 0  0.375 0.225 0  0.4 0.225 0  0.425 0.225 0  0.45 0.225 0  0.475 0.225 0  0.5 0.225 0  0.525 0.225 0  0.55 0.225 0  0.575 0.225 0  0.6 0.225 0  0.625 0.225 0  0.65 0.225 0  0.675 0.225 0  0.7 0.225 0  0.725 0.225 0  0.75 0.225 0  0.775 0.225 0  0.8 0.225 0  0.825 0.225 0  0.85 0.225 0  0.875 0.225 0  0.9 0.225 0  0.925 0.225 0  0.95 0.225 0  0.975 0.225 0  1 0.225 0  0 0.25 0  0.025 0.25 0  0.05 0.25 0  0.075 0.25 0  0.1 0.25 0  0.125 0.25 0  0.15 0.25 0  0.175 0.25 0  0.2 0.25 0  0.225 0.25 0  0.25 0.25 0  0.275 0.25 0  0.3 0.25 0  0.325 0.25 0  0.35 0.25 0  0.375 0.25 0  0.4 0.25 0  0.425 0.25 0  0.45 0.25 0  0.475 0.25 0  0.5 0.25 0  0.525 0.25 0  0.55 0.25 0  0.575 0.25 0  0.6 0.25 0  0.625 0.25 0  0.65 0.25 0  0.675 0.25 0  0.7 0.25 0  0.725 0.25 0  0.75 0.25 0  0.775 0.25 0  0.8 0.25 0  0.825 0.25 0  0.85 0.25 0  0.875 0.25 0  0.9 0.25 0  0.925 0.25 0  0.95 0.25 0  0.975 0.25 0  1 0.25 0  0 0.275 0  0.025 0.275 0  0.05 0.275 0  0.075 0.275 0  0.1 0.275 0  0.125 0.275 0  0.15 0.275 0  0.175 0.275 0  0.2 0.275 0  0.225 0.275 0  0.25 0.275 0  0.275 0.275 0  0.3 0.275 0  0.325 0.275 0  0.35 0.275 0  0.375 0.275 0  0.4 0.275 0  0.425 0.275 0  0.45 0.275 0  0.475 0.275 0  0.5 0.275 0  0.525 0.275 0  0.55 0.275 0  0.575 0.275 0  0.6 0.275 0  0.625 0.275 0  0.65 0.275 0  0.675 0.275 0  0.7 0.275 0  0.725 0.275 0  0.75 0.275 0  0.775 0.275 0  0.8 0.275 0  0.825 0.275 0  0.85 0.275 0  0.875 0.275 0  0.9 0.275 0  0.925 0.275 0  0.95 0.275 0  0.975 0.275 0  1 0.275 0  0 0.3 0  0.025 0.3 0  0.05 0.3 0  0.075 0.3 0  0.1 0.3 0  0.125 0.3 0  0.15 0.3 0  0.175 0.3 0  0.2 0.3 0  0.225 0.3 0  0.25 0.3 0  0.275 0.3 0  0.3 0.3 0  0.325 0.3 0  0.35 0.3 0  0.375 0.3 0  0.4 0.3 0  0.425 0.3 0  0.45 0.3 0  0.475 0.3 0  0.5 0.3 0  0.525 0.3 0  0.55 0.3 0  0.575 0.3 0  0.6 0.3 0  0.625 0.3 0  0.65 0.3 0  0.675 0.3 0  0.7 0.3 0  0.725 0.3 0  0.75 0.3 0  0.775 0.3 0  0.8 0.3 0  0.825 0.3 0  0.85 0.3 0  0.875 0.3 0  0.9 0.3 0  0.925 0.3 0  0.95 0.3 0  0.975 0.3 0  1 0.3 0  0 0.325 0  0.025 0.325 0  0.05 0.325 0  0.075 0.325 0  0.1 0.325 0  0.125 0.325 0  0.15 0.325 0  0.175 0.325 0  0.2 0.325 0  0.225 0.325 0  0.25 0.325 0  0.275 0.325 0  0.3 0.325 0  0.325 0.325 0  0.35 0.325 0  0.375 0.325 0  0.4 0.325 0  0.425 0.325 0  0.45 0.325 0  0.475 0.325 0  0.5 0.325 0  0.525 0.325 0  0.55 0.325 0  0.575 0.325 0  0.6 0.325 0  0.625 0.325 0  0.65 0.325 0  0.675 0.325 0  0.7 0.325 0  0.725 0.325 0  0.75 0.325 0  0.775 0.325 0  0.8 0.325 0  0.825 0.325 0  0.85 0.325 0  0.875 0.325 0  0.9 0.325 0  0.925 0.325 0  0.95 0.325 0  0.975 0.325 0  1 0.325 0  0 0.35 0  0.025 0.35 0  0.05 0.35 0  0.075 0.35 0  0.1 0.35 0  0.125 0.35 0  0.15 0.35 0  0.175 0.35 0  0.2 0.35 0  0.225 0.35 0  0.25 0.35 0  0.275 0.35 0  0.3 0.35 0  0.325 0.35 0  0.35 0.35 0  0.375 0.35 0  0.4 0.35 0  0.425 0.35 0  0.45 0.35 0  0.475 0.35 0  0.5 0.35 0  0.525 0.35 0  0.55 0.35 0  0.575 0.35 0  0.6 0.35 0  0.625 0.35 0  0.65 0.35 0  0.675 0.35 0  0.7 0.35 0  0.725 0.35 0  0.75 0.35 0  0.775 0.35 0  0.8 0.35 0  0.825 0.35 0  0.85 0.35 0  0.875 0.35 0  0.9 0.35 0  0.925 0.35 0  0.95 0.35 0  0.975 0.35 0  1 0.35 0  0 0.375 0  0.025 0.375 0  0.05 0.375 0  0.075 0.375 0  0.1 0.375 0  0.125 0.375 0  0.15 0.375 0  0.175 0.375 0  0.2 0.375 0  0.225 0.375 0  0.25 0.375 0  0.275 0.375 0  0.3 0.375 0  0.325 0.375 0  0.35 0.375 0  0.375 0.375 0  0.4 0.375 0  0.425 0.375 0  0.45 0.375 0  0.475 0.375 0  0.5 0.375 0  0.525 0.375 0  0.55 0.375 0  0.575 0.375 0  0.6 0.375 0  0.625 0.375 0  0.65 0.375 0  0.675 0.375 0  0.7 0.375 0  0.725 0.375 0  0.75 0.375 0  0.775 0.375 0  0.8 0.375 0  0.825 0.375 0  0.85 0.375 0  0.875 0.375 0  0.9 0.375 0  0.925 0.375 0  0.95 0.375 0  0.975 0.375 0  1 0.375 0  0 0.4 0  0.025 0.4 0  0.05 0.4 0  0.075 0.4 0  0.1 0.4 0  0.125 0.4 0  0.15 0.4 0  0.175 0.4 0  0.2 0.4 0  0.225 0.4 0  0.25 0.4 0  0.275 0.4 0  0.3 0.4 0  0.325 0.4 0  0.35 0.4 0  0.375 0.4 0  0.4 0.4 0  0.425 0.4 0  0.45 0.4 0  0.475 0.4 0  0.5 0.4 0  0.525 0.4 0  0.55 0.4 0  0.575 0.4 0  0.6 0.4 0  0.625 0.4 0  0.65 0.4 0  0.675 0.4 0  0.7 0.4 0  0.725 0.4 0  0.75 0.4 0  0.775 0.4 0  0.8 0.4 0  0.825 0.4 0  0.85 0.4 0  0.875 0.4 0  0.9 0.4 0  0.925 0.4 0  0.95 0.4 0  0.975 0.4 0  1 0.4 0  0 0.425 0  0.025 0.425 0  0.05 0.425 0  0.075 0.425 0  0.1 0.425 0  0.125 0.425 0  0.15 0.425 0  0.175 0.425 0  0.2 0.425 0  0.225 0.425 0  0.25 0.425 0  0.275 0.425 0  0.3 0.425 0  0.325 0.425 0  0.35 0.425 0  0.375 0.425 0  0.4 0.425 0  0.425 0.425 0  0.45 0.425 0  0.475 0.425 0  0.5 0.425 0  0.525 0.425 0  0.55 0.425 0  0.575 0.425 0  0.6 0.425 0  0.625 0.425 0  0.65 0.425 0  0.675 0.425 0  0.7 0.425 0  0.725 0.425 0  0.75 0.425 0  0.775 0.425 0  0.8 0.425 0  0.825 0.425 0  0.85 0.425 0  0.875 0.425 0  0.9 0.425 0  0.925 0.425 0  0.95 0.425 0  0.975 0.425 0  1 0.425 0  0 0.45 0  0.02
[...]
<PointData  Scalars="ControlVisualisation"> 
<DataArray  type="Float64"  Name="ControlVisualisation"  format="ascii">-7.4990695106450523e-09  -8.3326274333710976e-09  -8.3325558423313350e-09  -8.3326827103449679e-09  -8.3326772592657527e-09  -8.3318866007749657e-09  -8.3300404210544486e-09  -8.3273124657186537e-09  -8.3253310371790435e-09  -8.3238597112044498e-09  -8.3225647674406819e-09  -8.3210871516612129e-09  -8.3206757710790656e-09  -8.3198432321694121e-09  -8.3189386459918990e-09  -8.3187077385778602e-09  -8.3189500879733387e-09  -8.3189202359569102e-09  -8.3185939755054247e-09  -8.3185145140170642e-09  -8.3178244766961788e-09  -8.3181658796513308e-09  -8.3182951527755212e-09  -8.3188850588891083e-09  -8.3191395743608121e-09  -8.3191073590165832e-09  -8.3198278133186128e-09  -8.3202299284205874e-09  -8.3210468205754996e-09  -8.3225121145442434e-09  -8.3235743841240687e-09  -8.3247538248712657e-09  -8.3265625213956720e-09  -8.3292736618769620e-09  -8.3314408367879364e-09  -8.3325020555273137e-09  -8.3327473792239905e-09  -8.3326593738605184e-09  -8.3326282538614138e-09  -8.3327068618760861e-09  -4.9982323784117597e-09  -8.3324871919969643e-09  -9.1661256981187625e-09  -9.1660508034049406e-09  -9.1661211071935230e-09  -9.1660690194941817e-09  -9.1651406679212442e-09  -9.1628280041532313e-09  -9.1592644408826997e-09  -9.1562799294290639e-09  -9.1535551358533323e-09  -9.1504708941794630e-09  -9.1471748311776485e-09  -9.1449994993338549e-09  -9.1426935610962990e-09  -9.1404541359891365e-09  -9.1393965654742777e-09  -9.1381061927262465e-09  -9.1382260849617338e-09  -9.1374791367566241e-09  -9.1370529495279467e-09  -9.1363979500767063e-09  -9.1366229177399304e-09  -9.1375545751697031e-09  -9.1381420546851959e-09  -9.1395217195171719e-09  -9.1402379758749491e-09  -9.1424159534224096e-09  -9.1443068071932644e-09  -9.1464615766899026e-09  -9.1495444060080175e-09  -9.1522018200188921e-09  -9.1541805076349797e-09  -9.1570540632470150e-09  -9.1606531763918108e-09  -9.1639162731462613e-09  -9.1656129979904920e-09  -9.1661890984952326e-09  -9.1661927499155864e-09  -9.1661363950622674e-09  -9.1662281275285384e-09  -8.3326911599374907e-09  -8.3311988384505684e-09  -9.1651577424692347e-09  -9.1650957079262469e-09  -9.1651290193073528e-09  -9.1625396967620292e-09  -9.1503608407136975e-09  -9.1223525078268413e-09  -9.0806126548519736e-09  -9.0480392091667149e-09  -9.0157494891339725e-09  -8.9720666557861513e-09  -8.9272629418009491e-09  -8.8870239204625208e-09  -8.8494448726292783e-09  -8.8131552691201855e-09  -8.7889404248898110e-09  -8.7666481782380729e-09  -8.7526813097055732e-09  -8.7454965445283741e-09  -8.7364019099946880e-09  -8.7311170907064768e-09  -8.7321083294690486e-09  -8.7421366916710377e-09  -8.7535006743165332e-09  -8.7720265071648193e-09  -8.7919678606100529e-09  -8.8189503095362842e-09  -8.8552010467272741e-09  -8.8927624777840143e-09  -8.9362975673127375e-09  -8.9811613281871782e-09  -9.0174398874853961e-09  -9.0659898644354076e-09  -9.1176503105574124e-09  -9.1491211432420695e-09  -9.1613195955716285e-09  -9.1648564485987009e-09  -9.1653438408988222e-09  -9.1651821420803584e-09  -9.1654157007993624e-09  -8.3322178371942074e-09  -8.3236444491450780e-09  -9.1608189486796521e-09  -9.1561788377126234e-09  -9.1082783312808347e-09  -9.0273462993415807e-09  -8.8583690835637004e-09  -8.3403237793245209e-09  -5.9225728179074865e-09  2.8987178999348301e-02  9.9389017517799202e-02  1.5684748723500749e-01  2.0867880092236943e-01  2.5053972823596343e-01  2.8368146722299709e-01  3.0905103085458063e-01  3.2853650080307667e-01  3.4272694781733037e-01  3.5280862755172604e-01  3.5950433524833647e-01  3.6313290839111251e-01  3.6406639028578824e-01  3.6237860480928669e-01  3.5784014640166611e-01  3.5042387447963963e-01  3.3951970100677775e-01  3.2428682393684283e-01  3.0393387770921876e-01  2.7723013711354949e-01  2.4291347877372366e-01  1.9981936593750549e-01  1.4695872531445636e-01  8.5866727697792980e-02  1.7584056948607339e-02  -6.2144931114424964e-09  -8.3778001470940920e-09  -8.8311861797821950e-09  -9.0671108932470331e-09  -9.1556892247097738e-09  -9.1615267763134872e-09  -9.1612035086458031e-09  -8.3298372601463854e-09  -8.2954824872740769e-09  -9.1314539632231479e-09  -9.0532316614383746e-09  -8.3710990691404187e-09  1.0468839279290364e-01  3.9819092771513837e-01  6.5067424663451756e-01  8.8542575394494660e-01  9.9999999849566990e-01  1.0000000058716920e+00  1.0000000072030333e+00  1.0000000077320070e+00  1.0000000080040656e+00  1.0000000081695708e+00  1.0000000082777514e+00  1.0000000083459086e+00  1.0000000083890586e+00  1.0000000084212091e+00  1.0000000084361995e+00  1.0000000084472187e+00  1.0000000084491751e+00  1.0000000084444824e+00  1.0000000084292586e+00  1.0000000084011789e+00  1.0000000083637572e+00  1.0000000083070981e+00  1.0000000082235307e+00  1.0000000080968994e+00  1.0000000078943261e+00  1.0000000075492761e+00  1.0000000068699946e+00  1.0000000049272140e+00  9.9999999033750819e-01  8.6027300863107292e-01  6.2483674285984214e-01  3.5822188512846892e-01  7.1760779680101305e-02  -8.2460099878661055e-09  -9.0847761160812296e-09  -9.1475432011320598e-09  -8.3190957526920839e-09  -8.2161361739374292e-09  -8.9358083142782059e-09  1.0268557105379679e-01  8.0980539148776365e-01  1.0000000078284426e+00  1.0000000090313867e+00  1.0000000092889578e+00  1.0000000093991883e+00  1.0000000094594781e+00  1.0000000095029118e+00  1.0000000095333992e+00  1.0000000095517905e+00  1.0000000095636701e+00  1.0000000095722317e+00  1.0000000095783090e+00  1.0000000095824317e+00  1.0000000095847978e+00  1.0000000095870185e+00  1.0000000095881845e+00  1.0000000095886861e+00  1.0000000095889554e+00  1.0000000095886235e+00  1.0000000095877621e+00  1.0000000095860906e+00  1.0000000095838864e+00  1.0000000095806747e+00  1.0000000095760666e+00  1.0000000095695667e+00  1.0000000095605399e+00  1.0000000095474855e+00  1.0000000095278414e+00  1.0000000094962507e+00  1.0000000094412811e+00  1.0000000093535844e+00  1.0000000092057197e+00  1.0000000088439853e+00  1.0000000072239219e+00  7.2947560956846758e-01  8.9961426470757999e-02  -8.9884077731159850e-09  -8.1421946708921382e-09  -6.6395673867064296e-09  6.7726430211181854e-01  1.0000000091874353e+00  1.0000000095943429e+00  1.0000000096836834e+00  1.0000000097320474e+00  1.0000000097577928e+00  1.0000000097716204e+00  1.0000000097796922e+00  1.0000000097842421e+00  1.0000000097866903e+00  1.0000000097877788e+00  1.0000000097881361e+00  1.0000000097883288e+00  1.0000000097883941e+00  1.0000000097884350e+00  1.0000000097882096e+00  1.0000000097880342e+00  1.0000000097880959e+00  1.0000000097880632e+00  1.0000000097880777e+00  1.0000000097880088e+00  1.0000000097879409e+00  1.0000000097879058e+00  1.0000000097879409e+00  1.0000000097879473e+00  1.0000000097878896e+00  1.0000000097877075e+00  1.0000000097874664e+00  1.0000000097870305e+00  1.0000000097859478e+00  1.0000000097837221e+00  1.0000000097796358e+00  1.0000000097722892e+00  1.0000000097592772e+00  1.0000000097342745e+00  1.0000000096787982e+00  1.0000000095368451e+00  1.0000000090113466e+00  3.9050953876977063e-01  -8.0605534365753791e-09  1.0000000096553681e+00  1.0000000098202384e+00  1.0000000098615460e+00  1.0000000098738879e+00  1.0000000098774720e+00  1.0000000098764414e+00  1.0000000098736588e+00  1.0000000098704811e+00  1.0000000098675441e+00  1.0000000098650248e+00  1.0000000098627833e+00  1.0000000098608686e+00  1.0000000098592838e+00  1.0000000098580040e+00  1.0000000098570581e+00  1.0000000098562933e+00  1.0000000098556421e+00  1.0000000098551955e+00  1.0000000098549333e+00  1.0000000098547905e+00  1.0000000098547250e+00  1.0000000098548076e+00  1.0000000098549111e+00  1.0000000098551560e+00  1.0000000098555586e+00  1.0000000098561179e+00  1.0000000098568478e+00  1.0000000098578403e+00  1.0000000098590818e+00  1.0000000098607191e+00  1.0000000098627313e+00  1.0000000098651818e+00  1.0000000098681250e+00  1.0000000098715749e+00  1.0000000098753878e+00  1.0000000098790041e+00  1.0000000098810904e+00  1.0000000098788002e+00  1.0000000098647992e+00  1.0000000098221913e+00  1.0000000089766452e+00  1.0000000099277664e+00  1.0000000099546451e+00  1.0000000099489310e+00  1.0000000099409430e+00  1.0000000099322177e+00  1.0000000099235882e+00  1.0000000099156634e+00  1.0000000099087933e+00  1.0000000099031514e+00  1.0000000098986477e+00  1.0000000098951012e+00  1.0000000098922597e+00  1.0000000098900814e+00  1.0000000098883750e+00  1.0000000098870763e+00  1.0000000098861261e+00  1.0000000098854178e+00  1.0000000098848902e+00  1.0000000098845481e+00  1.0000000098843613e+00  1.0000000098842512e+00  1.0000000098843429e+00  1.0000000098845567e+00  1.0000000098848913e+00  1.0000000098853901e+00  1.0000000098860717e+00  1.0000000098870181e+00  1.0000000098883275e+00  1.0000000098900108e+00  1.0000000098922381e+00  1.0000000098951347e+00  1.0000000098988673e+00  1.0000000099036277e+00  1.0000000099095498e+00  1.0000000099167268e+00  1.0000000099250326e+00  1.0000000099340751e+00  1.0000000099431399e+00  1.0000000099512152e+00  1.0000000099569812e+00  1.0000000098968516e+00  1.0000000099597004e+00  1.0000000099760609e+00  1.0000000099698538e+00  1.0000000099613062e+00  1.0000000099516710e+00  1.0000000099419821e+00  1.0000000099330117e+00  1.0000000099251787e+00  1.0000000099186950e+00  1.0000000099135260e+00  1.0000000099095152e+00  1.0000000099063755e+00  1.0000000099039597e+00  1.0000000099021031e+00  1.0000000099006814e+00  1.0000000098996524e+00  1.0000000098989219e+00  1.0000000098984083e+00  1.0000000098980248e+00  1.0000000098978112e+00  1.0000000098977524e+00  1.0000000098977999e+00  1.0000000098980308e+00  1.0000000098984074e+00  1.0000000098989541e+00  1.0000000098996857e+00  1.0000000099007131e+00  1.0000000099021011e+00  1.0000000099039328e+00  1.0000000099063597e+00  1.0000000099095709e+00  1.0000000099136976e+00  1.0000000099189801e+00  1.0000000099255604e+00  1.0000000099334918e+00  1.0000000099426030e+00  1.0000000099524025e+00  1.0000000099620745e+00  1.0000000099705280e+00  1.0000000099764963e+00  1.0000000099542179e+00  1.0000000099644082e+00  1.0000000099801480e+00  1.0000000099745225e+00  1.0000000099664204e+00  1.0000000099569317e+00  1.0000000099471704e+00  1.0000000099380089e+00  1.0000000099299520e+00  1.0000000099232278e+00  1.0000000099178674e+00  1.0000000099136792e+00  1.0000000099104491e+00  1.0000000099079656e+00  1.0000000099060680e+00  1.0000000099046336e+00  1.0000000099035971e+00  1.0000000099028323e+00  1.0000000099022939e+00  1.0000000099019164e+00  1.0000000099016961e+00  1.0000000099016326e+00  1.0000000099017197e+00  1.0000000099019284e+00  1.0000000099023043e+00  1.0000000099028752e+00  1.0000000099036317e+00  1.0000000099046931e+00  1.0000000099061079e+00  1.0000000099079860e+00  1.0000000099104707e+00  1.0000000099137205e+00  1.0000000099179276e+00  1.0000000099232997e+00  1.0000000099299862e+00  1.0000000099380058e+00  1.0000000099471644e+00  1.0000000099569273e+00  1.0000000099664212e+00  1.0000000099745245e+00  1.0000000099801480e+00  1.0000000099644073e+00  1.0000000099542123e+00  1.0000000099764974e+00  1.0000000099705293e+00  1.0000000099620654e+00  1.0000000099523927e+00  1.0000000099425836e+00  1.0000000099334669e+00  1.0000000099254811e+00  1.0000000099188504e+00  1.0000000099135671e+00  1.0000000099094288e+00  1.0000000099062387e+00  1.0000000099038251e+00  1.0000000099019373e+00  1.0000000099005169e+00  1.0000000098994819e+00  1.0000000098987440e+00  1.0000000098981787e+00  1.0000000098977955e+00  1.0000000098975881e+00  1.0000000098975375e+00  1.0000000098976249e+00  1.0000000098978452e+00  1.0000000098982120e+00  1.0000000098987643e+00  1.0000000098995254e+00  1.0000000099005952e+00  1.0000000099020032e+00  1.0000000099038582e+00  1.0000000099063002e+00  1.0000000099094442e+00  1.0000000099135078e+00  1.0000000099186954e+00  1.0000000099251654e+00  1.0000000099329780e+00  1.0000000099419615e+00  1.0000000099516648e+00  1.0000000099613091e+00  1.0000000099698565e+00  1.0000000099760613e+00  1.0000000099597015e+00  1.0000000098968511e+00  1.0000000099569870e+00  1.0000000099512329e+00  1.0000000099431352e+00  1.0000000099340505e+00  1.0000000099249662e+00  1.0000000099166193e+00  1.0000000099093758e+00  1.0000000099033735e+00  1.0000000098985904e+00  1.0000000098948481e+00  1.0000000098919097e+00  1.0000000098897150e+00  1.0000000098879880e+00  1.0000000098866153e+00  1.0000000098856154e+00  1.0000000098849142e+00  1.0000000098844186e+00  1.0000000098840391e+00  1.0000000098838409e+00  1.0000000098837820e+00  1.0000000098838728e+00  1.0000000098840960e+00  1.0000000098844672e+00  1.0000000098849862e+00  1.0000000098857147e+00  1.0000000098867299e+00  1.0000000098880832e+00  1.0000000098897908e+00  1.0000000098920261e+00  1.0000000098948558e+00  1.0000000098984549e+00  1.0000000099030262e+00  1.0000000099086916e+00  1.0000000099155664e+00  1.0000000099235364e+00  1.0000000099322008e+00  1.0000000099409581e+00  1.0000000099489437e+00  1.0000000099546482e+00  1.0000000099277599e+00  1.0000000089783931e+00  1.0000000098224093e+00  1.0000000098649808e+00  1.0000000098788731e+00  1.0000000098810207e+00  1.0000000098787976e+00  1.0000000098750637e+00  1.0000000098711590e+00  1.0000000098676378e+00  1.0000000098646038e+00  1.0000000098620829e+00  1.0000000098599848e+00  1.0000000098583248e+00  1.0000000098570134e+00  1.0000000098559783e+00  1.0000000098551254e+00  1.0000000098545436e+00  1.0000000098541884e+00  1.0000000098538706e+00  1.0000000098537085e+00  1.0000000098537010e+00  1.0000000098538053e+00  1.0000000098539319e+00  1.0000000098542663e+00  1.0000000098547144e+00  1.0000000098553370e+00  1.0000000098561512e+00  1.0000000098572641e+00  1.0000000098585793e+00  1.0000000098601933e+00  1.0000000098621729e+00  1.0000000098644690e+00  1.0000000098671165e+00  1.0000000098701545e+00  1.0000000098734061e+00  1.0000000098763016e+00  1.0000000098774229e+00  1.0000000098739628e+00  1.0000000098616311e+00  1.0000000098203652e+00  1.0000000096554567e+00  -8.0655735146523471e-09  3.9528976723886355e-01  1.0000000090162695e+00  1.0000000095378956e+00  1.0000000096788217e+00  1.0000000097337383e+00  1.0000000097584250e+00  1.0000000097711936e+00  1.0000000097783863e+00  1.0000000097823074e+00  1.0000000097843253e+00  1.0000000097853068e+00  1.0000000097855595e+00  1.0000000097856638e+00  1.0000000097856614e+00  1.0000000097855237e+00  1.0000000097854196e+00  1.0000000097854613e+00  1.0000000097854322e+00  1.0000000097853501e+00  1.0000000097854849e+00  1.0000000097855870e+00  1.0000000097855477e+00  1.0000000097856654e+00  1.0000000097858148e+00  1.0000000097859663e+00  1.0000000097861541e+00  1.0000000097862414e+00  1.0000000097862634e+00  1.0000000097858743e+00  1.0000000097848825e+00  1.0000000097827013e+00  1.0000000097782940e+00  1.0000000097704906e+00  1.0000000097569626e+00  1.0000000097315243e+00  1.0000000096834198e+00  1.0000000095946135e+00  1.0000000091917629e+00  6.8276915951658002e-01  -6.6269298215082754e-09  -8.1665186921665599e-09  -8.9901457854221361e-09  9.5852062468721411e-02  7.3435287848102260e-01  1.0000000072362250e+00  1.0000000088432770e+00  1.0000000092027788e+00  1.0000000093486165e+00  1.0000000094348291e+00  1.0000000094899546e+00  1.0000000095214028e+00  1.0000000095409098e+00  1.0000000095532002e+00  1.0000000095616746e+00  1.0000000095676520e+00  1.0000000095717145e+00  1.0000000095745607e+00  1.0000000095766457e+00  1.0000000095781061e+00  1.0000000095789792e+00  1.0000000095791397e+00  1.0000000095791253e+00  1.0000000095784309e+00  1.0000000095774986e+00  1.0000000095756678e+00  1.0000000095728385e+00  1.0000000095691848e+00  1.0000000095639254e+00  1.0000000095560961e+00  1.0000000095441401e+00  1.0000000095258199e+00  1.0000000094959847e+00  1.0000000094537236e+00  1.0000000093944306e+00  1.0000000092844314e+00  1.0000000090264771e+00  1.0000000078329581e+00  8.1541939945878961e-01  1.0869293525387694e-01  -8.9365584322962751e-09  -8.2237097562822190e-09  -8.3273758437670110e-09  -9.1513930255890356e-09  -9.0668079215965552e-09  -8.1517080755226325e-09  7.7071798482817158e-02  3.6017736718394494e-01  6.2319373245130061e-01  8.5379542654601559e-01  9.9999998489539665e-01  1.0000000045077750e+00  1.0000000066842227e+00  1.0000000074164497e+00  1.0000000077769302e+00  1.0000000079850597e+00  1.0000000081181155e+00  1.0000000082021678e+00  1.0000000082583309e+00  1.0000000082976788e+00  1.0000000083243554e+00  1.0000000083403453e+00  1.0000000083453042e+00  1.0000000083423100e+00  1.0000000083344127e+00  1.0000000083165201e+00  1.0000000082852785e+00  1.0000000082333724e+00  1.0000000081645348e+00  1.0000000080628124e+00  1.0000000078879818e+00  1.0000000075978603e+00  1.0000000070234618e+00  1.0000000055529987e+00  9.9999999654524141e-01  8.7812710245472170e-01  6.4840548737840165e-01  3.9920872882089586e-01  1.1040979289777011e-01  -8.3007100246187011e-09  -9.0432427410115469e-09  -9.1363336464428218e-09  -8.3082669788902248e-09  -8.3322517542246643e-09  -9.1634688369854451e-09  -9.1558112655409217e-09  -9.1383635830143612e-09  -9.0403627828920339e-09  -8.7975667011557546e-09  -8.3214734170969540e-09  -6.1521203953399802e-09  1.5709478420233170e-02  8.0432677337029981e-02  1.3801944336593550e-01  1.8750629901635518e-01  2.2754203871415993e-01  2.5912726154125204e-01  2.8343295731283347e-01  3.0176923491366775e-01  3.1516146975467896e-01  3.2474966236817088e-01  3.3126509225939493e-01  3.3508129273638670e-01  3.3661541027506059e-01  3.3576125290762804e-01  3.3264549293183021e-01  3.2692375006160546e-01  3.1823626443449593e-01  3.0551011927529220e-01  2.8807509189456204e-01  2.6494413439209852e-01  2.3444894563790722e-01  1.9588098994104006e-01  1.4757966988566254e-01  9.3589989824973421e-02  2.6767920900223927e-02  -5.8219458705896207e-09  -8.2927112579311549e-09  -8.8320831898716442e-09  -9.0063972638649828e-09  -9.0888225919724264e-09  -9.1472425671458671e-09  -9.1623480272415653e-09  -8.3295374923892971e-09  -8.3310134737307832e-09  -9.1638443091389728e-09  -9.1594471156357548e-09  -9.1544463376439776e-09  -9.1499122382857347e-09  -9.1440689638379263e-09  -9.1286838024277175e-09  -9.0981270189254347e-09  -9.0545792682027047e-09  -9.0137051911553043e-09  -8.9824424279820901e-09  -8.9436525860790638e-09  -8.9080761914352120e-09  -8.8754028162117501e-09  -8.8448314476472229e-09  -8.8223650693776828e-09  -8.8075331118244065e-09  -8.7955196923461199e-09  -8.7821316168391832e-09  -8.7784208448751366e-09  -8.7777988360537122e-09  -8.7785461532024782e-09  -8.7830913134184967e-09  -8.7897465898191834e-09  -8.8031511973560492e-09  -8.8199328986558636e-09  -8.8408665916659800e-09  -8.8663073378878302e-09  -8.8999314484604357e-09  -8.9400779962346616e-09  -8.9760954039825498e-09  -9.0128462296186924e-09  -9.0383460894632798e-09  -9.0638927151144376e-09  -9.1001910722540314e-09  -9.1296418676012657e-09  -9.1462742109604370e-09  -9.1540342936747631e-09  -9.1591485277903541e-09  -9.1637879839512043e-09  -8.3319903597084063e-09  -8.3297095872900250e-09  -9.1627036173111983e-09  -9.1603838463730708e-09  -9.1577092269395371e-09  -9.1545826220329177e-09  -9.1521180281869944e-09  -9.1502791374233256e-09  -9.1485077461655786e-09  -9.1484498747572350e-09  -9.1486651294633484e-09  -9.1475846192742812e-09  -9.1459005585500368e-09  -9.1442605703978357e-09  -9.1430705963622356e-09  -9.1418028424517925e-09  -9.1409371930461213e-09  -9.1406376785261705e-09  -9.1401172993882690e-09  -9.1392949946337284e-09  -9.1393505744917278e-09  -9.1393720019950350e-09  -9.1393004970202107e-09  -9.1395667633396269e-09  -9.1395578747007364e-09  -9.1394698528936714e-09  -9.1399299378131806e-09  -9.1410251989137203e-09  -9.1417363417290256e-09  -9.1427033776787935e-09  -9.1443722823847606e-09  -9.1463148788572229e-09  -9.1476235917113006e-09  -9.1482340598700030e-09  -9.1481327062624036e-09  -9.1491302153264208e-09  -9.1514706267575192e-09  -9.1542669422045692e-09  -9.1570366995988048e-09  -9.1599719275