<?xml version="1.0"?>
<VTKFile type="UnstructuredGrid"  version="0.1"  >
<UnstructuredGrid>
<Piece  NumberOfPoints="1681" NumberOfCells="3200">
<Points>
<DataArray  type="Float64"  NumberOfComponents="3"  format="ascii">0 0 0  0.025 0 0  0.05 0 0  0.075 0 0  0.1 0 0  0.125 0 0  0.15 0 0  0.175 0 0  0.2 0 0  0.225 0 0  0.25 0 0  0.275 0 0  0.3 0 0  0.325 0 0  0.35 0 0  0.375 0 0  0.4 0 0  0.425 0 0  0.45 0 0  0.475 0 0  0.5 0 0  0.525 0 0  0.55 0 0  0.575 0 0  0.6 0 0  0.625 0 0  0.65 0 0  0.675 0 0  0.7 0 0  0.725 0 0  0.75 0 0  0.775 0 0  0.8 0 0  0.825 0 0  0.85 0 0  0.875 0 0  0.9 0 0  0.925 0 0  0.95 0 0  0.975 0 0  1 0 0  0 0.025 0  0.025 0.025 0  0.05 0.025 0  0.075 0.025 0  0.1 0.025 0  0.125 0.025 0  0.15 0.025 0  0.175 0.025 0  0.2 0.025 0  0.225 0.025 0  0.25 0.025 0  0.275 0.025 0  0.3 0.025 0  0.325 0.025 0  0.35 0.025 0  0.375 0.025 0  0.4 0.025 0  0.425 0.025 0  0.45 0.025 0  0.475 0.025 0  0.5 0.025 0  0.525 0.025 0  0.55 0.025 0  0.575 0.025 0  0.6 0.025 0  0.625 0.025 0  0.65 0.025 0  0.675 0.025 0  0.7 0.025 0  0.725 0.025 0  0.75 0.025 0  0.775 0.025 0  0.8 0.025 0  0.825 0.025 0  0.85 0.025 0  0.875 0.025 0  0.9 0.025 0  0.925 0.025 0  0.95 0.025 0  0.975 0.025 0  1 0.025 0  0 0.05 0  0.025 0.05 0  0.05 0.05 0  0.075 0.05 0  0.1 0.05 0  0.125 0.05 0  0.15 0.05 0  0.175 0.05 0  0.2 0.05 0  0.225 0.05 0  0.25 0.05 0  0.275 0.05 0  0.3 0.05 0  0.325 0.05 0  0.35 0.05 0  0.375 0.05 0  0.4 0.05 0  0.425 0.05 0  0.45 0.05 0  0.475 0.05 0  0.5 0.05 0  0.525 0.05 0  0.55 0.05 0  0.575 0.05 0  0.6 0.05 0  0.625 0.05 0  0.65 0.05 0  0.675 0.05 0  0.7 0.05 0  0.725 0.05 0  0.75 0.05 0  0.775 0.05 0  0.8 0.05 0  0.825 0.05 0  0.85 0.05 0  0.875 0.05 0  0.9 0.05 0  0.925 0.05 0  0.95 0.05 0  0.975 0.05 0  1 0.05 0  0 0.075 0  0.025 0.075 0  0.05 0.075 0  0.075 0.075 0  0.1 0.075 0  0.125 0.075 0  0.15 0.075 0  0.175 0.075 0  0.2 0.075 0  0.225 0.075 0  0.25 0.075 0  0.275 0.075 0  0.3 0.075 0  0.325 0.075 0  0.35 0.075 0  0.375 0.075 0  0.4 0.075 0  0.425 0.075 0  0.45 0.075 0  0.475 0.075 0  0.5 0.075 0  0.525 0.075 0  0.55 0.075 0  0.575 0.075 0  0.6 0.075 0  0.625 0.075 0  0.65 0.075 0  0.675 0.075 0  0.7 0.075 0  0.725 0.075 0  0.75 0.075 0  0.775 0.075 0  0.8 0.075 0  0.825 0.075 0  0.85 0.075 0  0.875 0.075 0  0.9 0.075 0  0.925 0.075 0  0.95 0.075 0  0.975 0.075 0  1 0.075 0  0 0.1 0  0.025 0.1 0  0.05 0.1 0  0.075 0.1 0  0.1 0.1 0  0.125 0.1 0  0.15 0.1 0  0.175 0.1 0  0.2 0.1 0  0.225 0.1 0  0.25 0.1 0  0.275 0.1 0  0.3 0.1 0  0.325 0.1 0  0.35 0.1 0  0.375 0.1 0  0.4 0.1 0  0.425 0.1 0  0.45 0.1 0  0.475 0.1 0  0.5 0.1 0  0.525 0.1 0  0.55 0.1 0  0.575 0.1 0  0.6 0.1 0  0.625 0.1 0  0.65 0.1 0  0.675 0.1 0  0.7 0.1 0  0.725 0.1 0  0.75 0.1 0  0.775 0.1 0  0.8 0.1 0  0.825 0.1 0  0.85 0.1 0  0.875 0.1 0  0.9 0.1 0  0.925 0.1 0  0.95 0.1 0  0.975 0.1 0  1 0.1 0  0 0.125 0  0.025 0.125 0  0.05 0.125 0  0.075 0.125 0  0.1 0.125 0  0.125 0.125 0  0.15 0.125 0  0.175 0.125 0  0.2 0.125 0  0.225 0.125 0  0.25 0.125 0  0.275 0.125 0  0.3 0.125 0  0.325 0.125 0  0.35 0.125 0  0.375 0.125 0  0.4 0.125 0  0.425 0.125 0  0.45 0.125 0  0.475 0.125 0  0.5 0.125 0  0.525 0.125 0  0.55 0.125 0  0.575 0.125 0  0.6 0.125 0  0.625 0.125 0  0.65 0.125 0  0.675 0.125 0  0.7 0.125 0  0.725 0.125 0  0.75 0.125 0  0.775 0.125 0  0.8 0.125 0  0.825 0.125 0  0.85 0.125 0  0.875 0.125 0  0.9 0.125 0  0.925 0.125 0  0.95 0.125 0  0.975 0.125 0  1 0.125 0  0 0.15 0  0.025 0.15 0  0.05 0.15 0  0.075 0.15 0  0.1 0.15 0  0.125 0.15 0  0.15 0.15 0  0.175 0.15 0  0.2 0.15 0  0.225 0.15 0  0.25 0.15 0  0.275 0.15 0  0.3 0.15 0  0.325 0.15 0  0.35 0.15 0  0.375 0.15 0  0.4 0.15 0  0.425 0.15 0  0.45 0.15 0  0.475 0.15 0  0.5 0.15 0  0.525 0.15 0  0.55 0.15 0  0.575 0.15 0  0.6 0.15 0  0.625 0.15 0  0.65 0.15 0  0.675 0.15 0  0.7 0.15 0  0.725 0.15 0  0.75 0.15 0  0.775 0.15 0  0.8 0.15 0  0.825 0.15 0  0.85 0.15 0  0.875 0.15 0  0.9 0.15 0  0.925 0.15 0  0.95 0.15 0  0.975 0.15 0  1 0.15 0  0 0.175 0  0.025 0.175 0  0.05 0.175 0  0.075 0.175 0  0.1 0.175 0  0.125 0.175 0  0.15 0.175 0  0.175 0.175 0  0.2 0.175 0  0.225 0.175 0  0.25 0.175 0  0.275 0.175 0  0.3 0.175 0  0.325 0.175 0  0.35 0.175 0  0.375 0.175 0  0.4 0.175 0  0.425 0.175 0  0.45 0.175 0  0.475 0.175 0  0.5 0.175 0  0.525 0.175 0  0.55 0.175 0  0.575 0.175 0  0.6 0.175 0  0.625 0.175 0  0.65 0.175 0  0.675 0.175 0  0.7 0.175 0  0.725 0.175 0  0.75 0.175 0  0.775 0.175 0  0.8 0.175 0  0.825 0.175 0  0.85 0.175 0  0.875 0.175 0  0.9 0.175 0  0.925 0.175 0  0.95 0.175 0  0.975 0.175 0  1 0.175 0  0 0.2 0  0.025 0.2 0  0.05 0.2 0  0.075 0.2 0  0.1 0.2 0  0.125 0.2 0  0.15 0.2 0  0.175 0.2 0  0.2 0.2 0  0.225 0.2 0  0.25 0.2 0  0.275 0.2 0  0.3 0.2 0  0.325 0.2 0  0.35 0.2 0  0.375 0.2 0  0.4 0.2 0  0.425 0.2 0  0.45 0.2 0  0.475 0.2 0  0.5 0.2 0  0.525 0.2 0  0.55 0.2 0  0.575 0.2 0  0.6 0.2 0  0.625 0.2 0  0.65 0.2 0  0.675 0.2 0  0.7 0.2 0  0.725 0.2 0  0.75 0.2 0  0.775 0.2 0  0.8 0.2 0  0.825 0.2 0  0.85 0.2 0  0.875 0.2 0  0.9 0.2 0  0.925 0.2 0  0.95 0.2 0  0.975 0.2 0  1 0.2 0  0 0.225 0  0.025 0.225 0  0.05 0.225 0  0.075 0.225 0  0.1 0.225 0  0.125 0.225 0  0.15 0.225 0  0.175 0.225 0  0.2 0.225 0  0.225 0.225 0  0.25 0.225 0  0.275 0.225 0  0.3 0.225 0  0.325 0.225 0  0.35 0.225 0  0.375 0.225 0  0.4 0.225 0  0.425 0.225 0  0.45 0.225 0  0.475 0.225 0  0.5 0.225 0  0.525 0.225 0  0.55 0.225 0  0.575 0.225 0  0.6 0.225 0  0.625 0.225 0  0.65 0.225 0  0.675 0.225 0  0.7 0.225 0  0.725 0.225 0  0.75 0.225 0  0.775 0.225 0  0.8 0.225 0  0.825 0.225 0  0.85 0.225 0  0.875 0.225 0  0.9 0.225 0  0.925 0.225 0  0.95 0.225 0  0.975 0.225 0  1 0.225 0  0 0.25 0  0.025 0.25 0  0.05 0.25 0  0.075 0.25 0  0.1 0.25 0  0.125 0.25 0  0.15 0.25 0  0.175 0.25 0  0.2 0.25 0  0.225 0.25 0  0.25 0.25 0  0.275 0.25 0  0.3 0.25 0  0.325 0.25 0  0.35 0.25 0  0.375 0.25 0  0.4 0.25 0  0.425 0.25 0  0.45 0.25 0  0.475 0.25 0  0.5 0.25 0  0.525 0.25 0  0.55 0.25 0  0.575 0.25 0  0.6 0.25 0  0.625 0.25 0  0.65 0.25 0  0.675 0.25 0  0.7 0.25 0  0.725 0.25 0  0.75 0.25 0  0.775 0.25 0  0.8 0.25 0  0.825 0.25 0  0.85 0.25 0  0.875 0.25 0  0.9 0.25 0  0.925 0.25 0  0.95 0.25 0  0.975 0.25 0  1 0.25 0  0 0.275 0  0.025 0.275 0  0.05 0.275 0  0.075 0.275 0  0.1 0.275 0  0.125 0.275 0  0.15 0.275 0  0.175 0.275 0  0.2 0.275 0  0.225 0.275 0  0.25 0.275 0  0.275 0.275 0  0.3 0.275 0  0.325 0.275 0  0.35 0.275 0  0.375 0.275 0  0.4 0.275 0  0.425 0.275 0  0.45 0.275 0  0.475 0.275 0  0.5 0.275 0  0.525 0.275 0  0.55 0.275 0  0.575 0.275 0  0.6 0.275 0  0.625 0.275 0  0.65 0.275 0  0.675 0.275 0  0.7 0.275 0  0.725 0.275 0  0.75 0.275 0  0.775 0.275 0  0.8 0.275 0  0.825 0.275 0  0.85 0.275 0  0.875 0.275 0  0.9 0.275 0  0.925 0.275 0  0.95 0.275 0  0.975 0.275 0  1 0.275 0  0 0.3 0  0.025 0.3 0  0.05 0.3 0  0.075 0.3 0  0.1 0.3 0  0.125 0.3 0  0.15 0.3 0  0.175 0.3 0  0.2 0.3 0  0.225 0.3 0  0.25 0.3 0  0.275 0.3 0  0.3 0.3 0  0.325 0.3 0  0.35 0.3 0  0.375 0.3 0  0.4 0.3 0  0.425 0.3 0  0.45 0.3 0  0.475 0.3 0  0.5 0.3 0  0.525 0.3 0  0.55 0.3 0  0.575 0.3 0  0.6 0.3 0  0.625 0.3 0  0.65 0.3 0  0.675 0.3 0  0.7 0.3 0  0.725 0.3 0  0.75 0.3 0  0.775 0.3 0  0.8 0.3 0  0.825 0.3 0  0.85 0.3 0  0.875 0.3 0  0.9 0.3 0  0.925 0.3 0  0.95 0.3 0  0.975 0.3 0  1 0.3 0  0 0.325 0  0.025 0.325 0  0.05 0.325 0  0.075 0.325 0  0.1 0.325 0  0.125 0.325 0  0.15 0.325 0  0.175 0.325 0  0.2 0.325 0  0.225 0.325 0  0.25 0.325 0  0.275 0.325 0  0.3 0.325 0  0.325 0.325 0  0.35 0.325 0  0.375 0.325 0  0.4 0.325 0  0.425 0.325 0  0.45 0.325 0  0.475 0.325 0  0.5 0.325 0  0.525 0.325 0  0.55 0.325 0  0.575 0.325 0  0.6 0.325 0  0.625 0.325 0  0.65 0.325 0  0.675 0.325 0  0.7 0.325 0  0.725 0.325 0  0.75 0.325 0  0.775 0.325 0  0.8 0.325 0  0.825 0.325 0  0.85 0.325 0  0.875 0.325 0  0.9 0.325 0  0.925 0.325 0  0.95 0.325 0  0.975 0.325 0  1 0.325 0  0 0.35 0  0.025 0.35 0  0.05 0.35 0  0.075 0.35 0  0.1 0.35 0  0.125 0.35 0  0.15 0.35 0  0.175 0.35 0  0.2 0.35 0  0.225 0.35 0  0.25 0.35 0  0.275 0.35 0  0.3 0.35 0  0.325 0.35 0  0.35 0.35 0  0.375 0.35 0  0.4 0.35 0  0.425 0.35 0  0.45 0.35 0  0.475 0.35 0  0.5 0.35 0  0.525 0.35 0  0.55 0.35 0  0.575 0.35 0  0.6 0.35 0  0.625 0.35 0  0.65 0.35 0  0.675 0.35 0  0.7 0.35 0  0.725 0.35 0  0.75 0.35 0  0.775 0.35 0  0.8 0.35 0  0.825 0.35 0  0.85 0.35 0  0.875 0.35 0  0.9 0.35 0  0.925 0.35 0  0.95 0.35 0  0.975 0.35 0  1 0.35 0  0 0.375 0  0.025 0.375 0  0.05 0.375 0  0.075 0.375 0  0.1 0.375 0  0.125 0.375 0  0.15 0.375 0  0.175 0.375 0  0.2 0.375 0  0.225 0.375 0  0.25 0.375 0  0.275 0.375 0  0.3 0.375 0  0.325 0.375 0  0.35 0.375 0  0.375 0.375 0  0.4 0.375 0  0.425 0.375 0  0.45 0.375 0  0.475 0.375 0  0.5 0.375 0  0.525 0.375 0  0.55 0.375 0  0.575 0.375 0  0.6 0.375 0  0.625 0.375 0  0.65 0.375 0  0.675 0.375 0  0.7 0.375 0  0.725 0.375 0  0.75 0.375 0  0.775 0.375 0  0.8 0.375 0  0.825 0.375 0  0.85 0.375 0  0.875 0.375 0  0.9 0.375 0  0.925 0.375 0  0.95 0.375 0  0.975 0.375 0  1 0.375 0  0 0.4 0  0.025 0.4 0  0.05 0.4 0  0.075 0.4 0  0.1 0.4 0  0.125 0.4 0  0.15 0.4 0  0.175 0.4 0  0.2 0.4 0  0.225 0.4 0  0.25 0.4 0  0.275 0.4 0  0.3 0.4 0  0.325 0.4 0  0.35 0.4 0  0.375 0.4 0  0.4 0.4 0  0.425 0.4 0  0.45 0.4 0  0.475 0.4 0  0.5 0.4 0  0.525 0.4 0  0.55 0.4 0  0.575 0.4 0  0.6 0.4 0  0.625 0.4 0  0.65 0.4 0  0.675 0.4 0  0.7 0.4 0  0.725 0.4 0  0.75 0.4 0  0.775 0.4 0  0.8 0.4 0  0.825 0.4 0  0.85 0.4 0  0.875 0.4 0  0.9 0.4 0  0.925 0.4 0  0.95 0.4 0  0.975 0.4 0  1 0.4 0  0 0.425 0  0.025 0.425 0  0.05 0.425 0  0.075 0.425 0  0.1 0.425 0  0.125 0.425 0  0.15 0.425 0  0.175 0.425 0  0.2 0.425 0  0.225 0.425 0  0.25 0.425 0  0.275 0.425 0  0.3 0.425 0  0.325 0.425 0  0.35 0.425 0  0.375 0.425 0  0.4 0.425 0  0.425 0.425 0  0.45 0.425 0  0.475 0.425 0  0.5 0.425 0  0.525 0.425 0  0.55 0.425 0  0.575 0.425 0  0.6 0.425 0  0.625 0.425 0  0.65 0.425 0  0.675 0.425 0  0.7 0.425 0  0.725 0.425 0  0.75 0.425 0  0.775 0.425 0  0.8 0.425 0  0.825 0.425 0  0.85 0.425 0  0.875 0.425 0  0.9 0.425 0  0.925 0.425 0  0.95 0.425 0  0.975 0.425 0  1 0.425 0  0 0.45 0  0.02
[...]
<PointData  Scalars="ControlVisualisation"> 
<DataArray  type="Float64"  Name="ControlVisualisation"  format="ascii">-9.6387983716389776e-09  -9.7579940290472249e-09  -9.7578435299077161e-09  -9.7575564722050883e-09  -9.7571281598856616e-09  -9.7565909881404514e-09  -9.7560050656350972e-09  -9.7554325112243786e-09  -9.7549180323326809e-09  -9.7544836110919439e-09  -9.7541329736959959e-09  -9.7538589552520656e-09  -9.7536496980958567e-09  -9.7534925827573353e-09  -9.7533762489020266e-09  -9.7532913745353656e-09  -9.7532307531651599e-09  -9.7531890552797412e-09  -9.7531625168999520e-09  -9.7531486911252296e-09  -9.7531462967956512e-09  -9.7531551475080708e-09  -9.7531761429538493e-09  -9.7532113252196194e-09  -9.7532639998382741e-09  -9.7533389233266242e-09  -9.7534425552762536e-09  -9.7535833229540225e-09  -9.7537717070419731e-09  -9.7540198004246718e-09  -9.7543398326456176e-09  -9.7547409900602624e-09  -9.7552241174955125e-09  -9.7557749931321353e-09  -9.7563576890244892e-09  -9.7569169545464610e-09  -9.7573910026134472e-09  -9.7577357822809002e-09  -9.7579407149503165e-09  -9.7580296951206898e-09  -9.2984512817002220e-09  -9.7579984339348447e-09  -9.8786121276137033e-09  -9.8784597974630438e-09  -9.8781555164313762e-09  -9.8776854666895573e-09  -9.8770813201755845e-09  -9.8764089959189538e-09  -9.8757405148001821e-09  -9.8751308371691816e-09  -9.8746095775231572e-09  -9.8741845391040905e-09  -9.8738496410089426e-09  -9.8735921958463443e-09  -9.8733978260073902e-09  -9.8732531624054301e-09  -9.8731470168162765e-09  -9.8730706295488150e-09  -9.8730174428298892e-09  -9.8729827457430444e-09  -9.8729633785806180e-09  -9.8729575533472201e-09  -9.8729647623092231e-09  -9.8729857535520473e-09  -9.8730225772403280e-09  -9.8730787011095027e-09  -9.8731591893453856e-09  -9.8732709616707389e-09  -9.8734231102696452e-09  -9.8736270910031352e-09  -9.8738964196783105e-09  -9.8742453426069203e-09  -9.8746857406998998e-09  -9.8752218632632335e-09  -9.8758425393489830e-09  -9.8765136264970734e-09  -9.8771777828749080e-09  -9.8777620517345153e-09  -9.8782053011749473e-09  -9.8784850857220023e-09  -9.8786247486485265e-09  -9.7580302767250452e-09  -9.7579007425123125e-09  -9.8784942561239692e-09  -9.8782792713463251e-09  -9.8778835498493449e-09  -9.8772872891691091e-09  -9.8765501818960623e-09  -9.8757619273118135e-09  -9.8750048798671806e-09  -9.8743329914748184e-09  -9.8737698481619880e-09  -9.8733169078780750e-09  -9.8729632268103762e-09  -9.8726928464506398e-09  -9.8724892764423886e-09  -9.8723378193506141e-09  -9.8722265236220532e-09  -9.8721462576680984e-09  -9.8720902656970595e-09  -9.8720536375375054e-09  -9.8720329956606680e-09  -9.8720263841779216e-09  -9.8720332114723098e-09  -9.8720542167446582e-09  -9.8720915140567401e-09  -9.8721487013170404e-09  -9.8722309913445771e-09  -9.8723454390888118e-09  -9.8725013725051699e-09  -9.8727108715785033e-09  -9.8729888319586009e-09  -9.8733520655242171e-09  -9.8738167102772302e-09  -9.8743936286852648e-09  -9.8750790003959460e-09  -9.8758481032295164e-09  -9.8766396369320665e-09  -9.8773644529265659e-09  -9.8779317856692404e-09  -9.8783093181991747e-09  -9.8785165102926994e-09  -9.7579587467195188e-09  -9.7577957381096532e-09  -9.8783245380687659e-09  -9.8779784216622048e-09  -9.8773896876433360e-09  -9.8766127960411222e-09  -9.8757631232667204e-09  -9.8749438804122434e-09  -9.8742208067480175e-09  -9.8736188338516524e-09  -9.8731370166554164e-09  -9.8727615947553674e-09  -9.8724746596026063e-09  -9.8722583459172510e-09  -9.8720967203343163e-09  -9.8719766151812919e-09  -9.8718879805461626e-09  -9.8718237744043128e-09  -9.8717790384221404e-09  -9.8717498919498174e-09  -9.8717333963055368e-09  -9.8717278265680668e-09  -9.8717326893901942e-09  -9.8717485955643514e-09  -9.8717772758697411e-09  -9.8718217567696967e-09  -9.8718863827941346e-09  -9.8719766726127760e-09  -9.8720997886278773e-09  -9.8722656620579476e-09  -9.8724877691782071e-09  -9.8727831566537330e-09  -9.8731715208100198e-09  -9.8736732523619982e-09  -9.8743011586218446e-09  -9.8750607403064766e-09  -9.8758875885494173e-09  -9.8767578443924974e-09  -9.8775067233025521e-09  -9.8780663080259685e-09  -9.8783963557327808e-09  -9.7578500486266732e-09  -9.7579080228260234e-09  -9.8782430112951667e-09  -9.8770276276494238e-09  -9.8749215986573260e-09  -9.8724027746816509e-09  -9.8699574220334145e-09  -9.8679700492827308e-09  -9.8665061253435696e-09  -9.8654876624818197e-09  -9.8647957573005815e-09  -9.8643289759979985e-09  -9.8640140646109513e-09  -9.8638007752781813e-09  -9.8636548780559727e-09  -9.8635528576592412e-09  -9.8634794929264917e-09  -9.8634269578359862e-09  -9.8633908628738867e-09  -9.8633666131691734e-09  -9.8633501949004095e-09  -9.8633396555209346e-09  -9.8633346784109445e-09  -9.8633357053532878e-09  -9.8633440994105635e-09  -9.8633636076878750e-09  -9.8634006861587081e-09  -9.8634628544944609e-09  -9.8635602316848972e-09  -9.8637107326107539e-09  -9.8639447591984664e-09  -9.8643101523596521e-09  -9.8648783281847105e-09  -9.8657509426236744e-09  -9.8670552540967726e-09  -9.8689298577013779e-09  -9.8712976626020099e-09  -9.8741299743189385e-09  -9.8761305663746801e-09  -9.8772701746585740e-09  -9.8781329468564136e-09  -9.7577938061180289e-09  -9.7461721886986006e-09  -9.8713032595781272e-09  -9.8582250615537836e-09  -9.8397149045140148e-09  -9.8050011588643473e-09  -9.7584157620130280e-09  -9.7047992309654371e-09  -9.6536789941092566e-09  -9.6118808245240146e-09  -9.5818765206366985e-09  -9.5624311532913558e-09  -9.5508534237674833e-09  -9.5444469015194773e-09  -9.5411066417728344e-09  -9.5393797688166464e-09  -9.5384067783497433e-09  -9.5378991618551600e-09  -9.5377458101660538e-09  -9.5376569559231804e-09  -9.5373773250390392e-09  -9.5368667984623674e-09  -9.5361587038508726e-09  -9.5352456556622469e-09  -9.5341168828318486e-09  -9.5329085104841245e-09  -9.5319192372119685e-09  -9.5313857472172511e-09  -9.5316055847173574e-09  -9.5334367364151527e-09  -9.5385209615436121e-09  -9.5493177320414287e-09  -9.5689883600206181e-09  -9.6006843978503145e-09  -9.6456809858551421e-09  -9.7009504944888540e-09  -9.7565528932368860e-09  -9.8062096338083615e-09  -9.8339151693213286e-09  -9.8625929454441047e-09  -9.8759749530427190e-09  -9.7563109278492568e-09  -9.7316127125767581e-09  -9.7928748620041106e-09  6.5471168674739552e-02  2.6541684012520689e-01  3.8950588733216801e-01  4.8641184180117297e-01  5.4798903262220078e-01  5.8627696857800549e-01  6.0862043970404389e-01  6.2113993641077114e-01  6.2782143328080520e-01  6.3117091980921236e-01  6.3268314840819051e-01  6.3322586943453152e-01  6.3329230392965430e-01  6.3315890346649395e-01  6.3297937511086388e-01  6.3283902391920488e-01  6.3278513401700986e-01  6.3284420209213654e-01  6.3303123190493549e-01  6.3335392658974377e-01  6.3381387736971406e-01  6.3440489962793922e-01  6.3510802359531437e-01  6.3588155261169521e-01  6.3664279329174445e-01  6.3723555831863465e-01  6.3737455863796577e-01  6.3655056188595627e-01  6.3387314741576950e-01  6.2782252670846272e-01  6.1587461980101688e-01  5.9403544699668276e-01  5.5619933162995150e-01  4.9471961307634477e-01  3.9688087335162098e-01  2.6823646271591384e-01  5.0935772376051576e-02  -9.8066834328801296e-09  -9.7439657930189200e-09  9.8790876784449277e-01  8.8792071000422912e-01  1.0000000095285935e+00  1.0000000097219628e+00  1.0000000097565125e+00  1.0000000097717079e+00  1.0000000097774213e+00  1.0000000097800770e+00  1.0000000097809243e+00  1.0000000097808746e+00  1.0000000097803883e+00  1.0000000097797248e+00  1.0000000097790254e+00  1.0000000097783743e+00  1.0000000097778194e+00  1.0000000097773851e+00  1.0000000097770745e+00  1.0000000097768627e+00  1.0000000097767303e+00  1.0000000097766892e+00  1.0000000097767536e+00  1.0000000097769222e+00  1.0000000097771908e+00  1.0000000097775603e+00  1.0000000097780304e+00  1.0000000097785882e+00  1.0000000097792139e+00  1.0000000097799011e+00  1.0000000097806367e+00  1.0000000097813555e+00  1.0000000097819188e+00  1.0000000097820965e+00  1.0000000097815220e+00  1.0000000097796091e+00  1.0000000097753792e+00  1.0000000097669099e+00  1.0000000097498742e+00  1.0000000097056876e+00  1.0000000095487622e+00  1.0000000082667462e+00  3.5061348466370179e-01  1.0000000099218924e+00  1.0000000099481292e+00  1.0000000099422819e+00  1.0000000099353883e+00  1.0000000099303237e+00  1.0000000099264190e+00  1.0000000099236102e+00  1.0000000099217028e+00  1.0000000099204145e+00  1.0000000099195347e+00  1.0000000099189170e+00  1.0000000099184700e+00  1.0000000099181379e+00  1.0000000099178863e+00  1.0000000099176942e+00  1.0000000099175488e+00  1.0000000099174411e+00  1.0000000099173656e+00  1.0000000099173185e+00  1.0000000099172979e+00  1.0000000099173030e+00  1.0000000099173332e+00  1.0000000099173887e+00  1.0000000099174708e+00  1.0000000099175814e+00  1.0000000099177240e+00  1.0000000099179043e+00  1.0000000099181314e+00  1.0000000099184199e+00  1.0000000099187931e+00  1.0000000099192909e+00  1.0000000099199815e+00  1.0000000099209780e+00  1.0000000099224602e+00  1.0000000099246871e+00  1.0000000099279669e+00  1.0000000099325166e+00  1.0000000099382400e+00  1.0000000099446145e+00  1.0000000099506305e+00  1.0000000098844928e+00  1.0000000099612849e+00  1.0000000099769977e+00  1.0000000099719102e+00  1.0000000099658610e+00  1.0000000099601967e+00  1.0000000099555884e+00  1.0000000099522075e+00  1.0000000099498996e+00  1.0000000099483894e+00  1.0000000099474198e+00  1.0000000099467956e+00  1.0000000099463859e+00  1.0000000099461093e+00  1.0000000099459161e+00  1.0000000099457778e+00  1.0000000099456772e+00  1.0000000099456046e+00  1.0000000099455535e+00  1.0000000099455206e+00  1.0000000099455038e+00  1.0000000099455015e+00  1.0000000099455135e+00  1.0000000099455399e+00  1.0000000099455817e+00  1.0000000099456410e+00  1.0000000099457216e+00  1.0000000099458295e+00  1.0000000099459754e+00  1.0000000099461768e+00  1.0000000099464637e+00  1.0000000099468878e+00  1.0000000099475348e+00  1.0000000099485429e+00  1.0000000099501170e+00  1.0000000099525255e+00  1.0000000099560395e+00  1.0000000099607871e+00  1.0000000099665405e+00  1.0000000099725321e+00  1.0000000099773774e+00  1.0000000099551190e+00  1.0000000099663411e+00  1.0000000099814863e+00  1.0000000099771660e+00  1.0000000099716677e+00  1.0000000099662227e+00  1.0000000099616466e+00  1.0000000099582269e+00  1.0000000099558699e+00  1.0000000099543280e+00  1.0000000099533455e+00  1.0000000099527213e+00  1.0000000099523185e+00  1.0000000099520510e+00  1.0000000099518669e+00  1.0000000099517361e+00  1.0000000099516413e+00  1.0000000099515725e+00  1.0000000099515236e+00  1.0000000099514910e+00  1.0000000099514725e+00  1.0000000099514670e+00  1.0000000099514736e+00  1.0000000099514930e+00  1.0000000099515256e+00  1.0000000099515738e+00  1.0000000099516415e+00  1.0000000099517345e+00  1.0000000099518636e+00  1.0000000099520463e+00  1.0000000099523132e+00  1.0000000099527155e+00  1.0000000099533399e+00  1.0000000099543227e+00  1.0000000099558650e+00  1.0000000099582225e+00  1.0000000099616435e+00  1.0000000099662207e+00  1.0000000099716670e+00  1.0000000099771658e+00  1.0000000099814861e+00  1.0000000099663404e+00  1.0000000099551236e+00  1.0000000099773836e+00  1.0000000099725375e+00  1.0000000099665338e+00  1.0000000099607660e+00  1.0000000099560089e+00  1.0000000099524897e+00  1.0000000099500777e+00  1.0000000099485007e+00  1.0000000099474899e+00  1.0000000099468398e+00  1.0000000099464126e+00  1.0000000099461215e+00  1.0000000099459154e+00  1.0000000099457642e+00  1.0000000099456514e+00  1.0000000099455673e+00  1.0000000099455058e+00  1.0000000099454633e+00  1.0000000099454376e+00  1.0000000099454269e+00  1.0000000099454307e+00  1.0000000099454487e+00  1.0000000099454824e+00  1.0000000099455337e+00  1.0000000099456068e+00  1.0000000099457080e+00  1.0000000099458475e+00  1.0000000099460424e+00  1.0000000099463218e+00  1.0000000099467345e+00  1.0000000099473620e+00  1.0000000099483346e+00  1.0000000099498483e+00  1.0000000099521607e+00  1.0000000099555486e+00  1.0000000099601696e+00  1.0000000099658513e+00  1.0000000099719146e+00  1.0000000099770028e+00  1.0000000099612865e+00  1.0000000098844990e+00  1.0000000099507051e+00  1.0000000099446864e+00  1.0000000099382442e+00  1.0000000099324595e+00  1.0000000099278694e+00  1.0000000099245607e+00  1.0000000099223103e+00  1.0000000099208075e+00  1.0000000099197934e+00  1.0000000099190864e+00  1.0000000099185731e+00  1.0000000099181838e+00  1.0000000099178790e+00  1.0000000099176349e+00  1.0000000099174395e+00  1.0000000099172850e+00  1.0000000099171666e+00  1.0000000099170805e+00  1.0000000099170239e+00  1.0000000099169948e+00  1.0000000099169919e+00  1.0000000099170152e+00  1.0000000099170658e+00  1.0000000099171462e+00  1.0000000099172601e+00  1.0000000099174136e+00  1.0000000099176156e+00  1.0000000099178796e+00  1.0000000099182260e+00  1.0000000099186890e+00  1.0000000099193236e+00  1.0000000099202206e+00  1.0000000099215280e+00  1.0000000099234592e+00  1.0000000099262978e+00  1.0000000099302486e+00  1.0000000099353790e+00  1.0000000099422872e+00  1.0000000099481521e+00  1.0000000099219157e+00  3.5478871724080502e-01  1.0000000083721803e+00  1.0000000095524180e+00  1.0000000097064223e+00  1.0000000097498203e+00  1.0000000097665347e+00  1.0000000097747008e+00  1.0000000097787209e+00  1.0000000097804949e+00  1.0000000097809698e+00  1.0000000097807020e+00  1.0000000097800386e+00  1.0000000097791970e+00  1.0000000097782988e+00  1.0000000097774309e+00  1.0000000097766728e+00  1.0000000097760624e+00  1.0000000097755879e+00  1.0000000097752275e+00  1.0000000097749728e+00  1.0000000097748156e+00  1.0000000097747461e+00  1.0000000097747648e+00  1.0000000097748838e+00  1.0000000097751160e+00  1.0000000097754731e+00  1.0000000097759703e+00  1.0000000097766091e+00  1.0000000097773585e+00  1.0000000097781609e+00  1.0000000097789363e+00  1.0000000097795314e+00  1.0000000097796642e+00  1.0000000097788930e+00  1.0000000097763726e+00  1.0000000097707900e+00  1.0000000097559860e+00  1.0000000097207247e+00  1.0000000095339638e+00  8.9576546428201498e-01  9.8826335254022935e-01  -9.7420677540876881e-09  -9.7920213914119175e-09  6.3874635913065941e-02  2.7554519983437276e-01  4.0170625572791274e-01  4.9640323527285496e-01  5.5598965463901262e-01  5.9240705112442527e-01  6.1318159548341988e-01  6.2426959465763943e-01  6.2959681842964488e-01  6.3165110105481270e-01  6.3193532886925030e-01  6.3133178144761581e-01  6.3034506673207902e-01  6.2925641397523313e-01  6.2821835398289838e-01  6.2731082543193117e-01  6.2657345361238870e-01  6.2602354332892773e-01  6.2566601273716160e-01  6.2549879013631671e-01  6.2551464943055546e-01  6.2570008201787575e-01  6.2603075860925594e-01  6.2646218305000423e-01  6.2691230837328893e-01  6.2723071347243953e-01  6.2714447852193411e-01  6.2616514580750360e-01  6.2343294420097728e-01  6.1746919992975591e-01  6.0580258785393848e-01  5.8451453820027066e-01  5.4763071004492869e-01  4.8793472297936180e-01  3.9409543803758407e-01  2.7249000212052837e-01  7.8629832612427550e-02  -9.7838897151869994e-09  -9.7302658492751446e-09  -9.7558102160071299e-09  -9.8722497339834027e-09  -9.8511340962377689e-09  -9.8190103736901261e-09  -9.7888919862451191e-09  -9.7361318426525667e-09  -9.6794570075718528e-09  -9.6265574467656307e-09  -9.5866444154216435e-09  -9.5613082330256121e-09  -9.5479300451903374e-09  -9.5425613919535896e-09  -9.5418038121248157e-09  -9.5433707781240810e-09  -9.5460300669636335e-09  -9.5489885347681313e-09  -9.5516069839540814e-09  -9.5536560427756885e-09  -9.5552533242130140e-09  -9.5564704439801202e-09  -9.5572325595811053e-09  -9.5575006526124175e-09  -9.5573256511114970e-09  -9.5567559491942780e-09  -9.5558329148792233e-09  -9.5546659240978388e-09  -9.5534315387916934e-09  -9.5523856280369334e-09  -9.5521238107095420e-09  -9.5539353488066803e-09  -9.5599191335983195e-09  -9.5730137051944462e-09  -9.5968315141640559e-09  -9.6341122698294622e-09  -9.6835522619935891e-09  -9.7384438174554384e-09  -9.7881623373243779e-09  -9.8266178410584976e-09  -9.8487907746192737e-09  -9.8663841652522589e-09  -9.7463278639179387e-09  -9.7542362211290847e-09  -9.8735821073146676e-09  -9.8700080451616718e-09  -9.8676123214973586e-09  -9.8650931576485240e-09  -9.8629529713266066e-09  -9.8620086060867079e-09  -9.8616934653612005e-09  -9.8617995803948681e-09  -9.8621102151331233e-09  -9.8625010844621237e-09  -9.8629007637146076e-09  -9.8632724432461352e-09  -9.8635997912215636e-09  -9.8638778567266028e-09  -9.8641058059047118e-09  -9.8642848365801746e-09  -9.8644195161586403e-09  -9.8645157631620612e-09  -9.8645771423423368e-09  -9.8646044306791485e-09  -9.8645975121809493e-09  -9.8645559928474438e-09  -9.8644785067458864e-09  -9.8643625663233891e-09  -9.8642048597283337e-09  -9.8640010257612648e-09  -9.8637455705789043e-09  -9.8634334564787222e-09  -9.8630628494827670e-09  -9.8626377739017212e-09  -9.8621737199782316e-09  -9.8617114969751245e-09  -9.8613399460728870e-09  -9.8612246008084386e-09  -9.8616246202078407e-09  -9.8628984781166865e-09  -9.8653294995721724e-09  -9.8691028011767838e-09  -9.8736106370281557e-09  -9.7549618377046887e-09  -9.7540473592989628e-09  -9.8738604611599079e-09  -9.8721412253607316e-09  -9.8709549560975826e-09  -9.8702318593041378e-09  -9.8700367920041663e-09  -9.8702439458937572e-09  -9.8705969588965402e-09  -9.8710122958059694e-09  -9.8714151402045755e-09  -9.8717776402399174e-09  -9.8720905021203978e-09  -9.8723541856817545e-09  -9.8725727151960866e-09  -9.8727508652643933e-09  -9.8728928799709439e-09  -9.8730024870336967e-09  -9.8730833193814293e-09  -9.8731386972827114e-09  -9.8731710697405454e-09  -9.8731818422540088e-09  -9.8731715578325577e-09  -9.8731399801286882e-09  -9.8730860154644702e-09  -9.8730076722102313e-09  -9.8729020713393188e-09  -9.8727654115569157e-09  -9.8725930083237360e-09  -9.8723795972628321e-09  -9.8721198281074293e-09  -9.8718089977059132e-09  -9.8714450503919760e-09  -9.8710336443611969e-09  -9.8705981308254485e-09  -9.8701958659699150e-09  -9.8699402048857497e-09  -9.8700072675393622e-09  -9.8705859565687677e-09  -9.8716916113432468e-09  -9.8734566060878989e-09  -9.7539116374636907e-09  -9.7543435700535583e-09  -9.8741729164880920e-09  -9.8730819924355555e-09  -9.8725863041315180e-09  -9.8722591785151571e-09  -9.8721132675400203e-09  -9.8721487398350398e-09  -9.8723075452134932e-09  -9.8725289432200849e-09  -9.8727652814287743e-09  -9.8729922852049840e-09  -9.8731975711289848e-09  -9.8733765989202739e-09  -9.8735287011636131e-09  -9.8736549797809534e-09  -9.8737571755907389e-09  -9.8738372093688385e-09  -9.8738970158962490e-09  -9.8739383792229417e-09  -9.8739627151277248e-09  -9.8739709244847449e-09  -9.8739633707294277e-09  -9.8739398942048176e-09  -9.8738998125706281e-09  -9.8738419208880547e-09  -9.8737645269411276e-09  -9.8736655308532765e-09  -9.8735425890696033e-09  -9.8733934317958746e-09  -9.8732164090850269e-09  -9.8730114465969637e-09  -9.8727818287469682e-09  -9.8725373517187894e-09  -9.8722991374849501e-09  -9.8721053534714060e-09  -9.8720138326638140e-09  -9.8720918270046248e-09  -9.8723776299281409e-09  -9.8728412690283470e-09  -9.8739454576976613e-09  -9.7540394213741305e-09  -9.7548010111224192e-09  -9.8747480007247225e-09  -9.8739740711627993e-09  -9.8737414882270311e-09  -9.8735701440752104e-09  -9.8734764915158597e-09  -9.8734707656886289e-09  -9.8735339677062005e-09  -9.8736392047929827e-09  -9.8737643302977983e-09  -9.8738933562756484e-09  -9.8740162180662928e-09  -9.8741275315098776e-09  -9.8742248204915056e-09  -9.8743073258659493e-09  -9.8743752077567622e-09  -9.8744290883408089e-09  -9.8744697946934085e-09  -9.8744981773198686e-09  -9.8745149584310392e-09  -9.8745206253505018e-09  -9.8745153817792428e-09  -9.8744991341771804e-09  -9.8744714944638962e-09  -9.8744318041367583e-09  -9.8743791920258479e-09  -9.8743126800896800e-09  -9.8742313608739837e-09  -9.8741346900531891e-09  -9.8740229489487869e-09  -9.8738979639129407