<?xml version="1.0"?>
<VTKFile type="UnstructuredGrid"  version="0.1"  >
<UnstructuredGrid>
<Piece  NumberOfPoints="1681" NumberOfCells="3200">
<Points>
<DataArray  type="Float64"  NumberOfComponents="3"  format="ascii">0 0 0  0.025 0 0  0.05 0 0  0.075 0 0  0.1 0 0  0.125 0 0  0.15 0 0  0.175 0 0  0.2 0 0  0.225 0 0  0.25 0 0  0.275 0 0  0.3 0 0  0.325 0 0  0.35 0 0  0.375 0 0  0.4 0 0  0.425 0 0  0.45 0 0  0.475 0 0  0.5 0 0  0.525 0 0  0.55 0 0  0.575 0 0  0.6 0 0  0.625 0 0  0.65 0 0  0.675 0 0  0.7 0 0  0.725 0 0  0.75 0 0  0.775 0 0  0.8 0 0  0.825 0 0  0.85 0 0  0.875 0 0  0.9 0 0  0.925 0 0  0.95 0 0  0.975 0 0  1 0 0  0 0.025 0  0.025 0.025 0  0.05 0.025 0  0.075 0.025 0  0.1 0.025 0  0.125 0.025 0  0.15 0.025 0  0.175 0.025 0  0.2 0.025 0  0.225 0.025 0  0.25 0.025 0  0.275 0.025 0  0.3 0.025 0  0.325 0.025 0  0.35 0.025 0  0.375 0.025 0  0.4 0.025 0  0.425 0.025 0  0.45 0.025 0  0.475 0.025 0  0.5 0.025 0  0.525 0.025 0  0.55 0.025 0  0.575 0.025 0  0.6 0.025 0  0.625 0.025 0  0.65 0.025 0  0.675 0.025 0  0.7 0.025 0  0.725 0.025 0  0.75 0.025 0  0.775 0.025 0  0.8 0.025 0  0.825 0.025 0  0.85 0.025 0  0.875 0.025 0  0.9 0.025 0  0.925 0.025 0  0.95 0.025 0  0.975 0.025 0  1 0.025 0  0 0.05 0  0.025 0.05 0  0.05 0.05 0  0.075 0.05 0  0.1 0.05 0  0.125 0.05 0  0.15 0.05 0  0.175 0.05 0  0.2 0.05 0  0.225 0.05 0  0.25 0.05 0  0.275 0.05 0  0.3 0.05 0  0.325 0.05 0  0.35 0.05 0  0.375 0.05 0  0.4 0.05 0  0.425 0.05 0  0.45 0.05 0  0.475 0.05 0  0.5 0.05 0  0.525 0.05 0  0.55 0.05 0  0.575 0.05 0  0.6 0.05 0  0.625 0.05 0  0.65 0.05 0  0.675 0.05 0  0.7 0.05 0  0.725 0.05 0  0.75 0.05 0  0.775 0.05 0  0.8 0.05 0  0.825 0.05 0  0.85 0.05 0  0.875 0.05 0  0.9 0.05 0  0.925 0.05 0  0.95 0.05 0  0.975 0.05 0  1 0.05 0  0 0.075 0  0.025 0.075 0  0.05 0.075 0  0.075 0.075 0  0.1 0.075 0  0.125 0.075 0  0.15 0.075 0  0.175 0.075 0  0.2 0.075 0  0.225 0.075 0  0.25 0.075 0  0.275 0.075 0  0.3 0.075 0  0.325 0.075 0  0.35 0.075 0  0.375 0.075 0  0.4 0.075 0  0.425 0.075 0  0.45 0.075 0  0.475 0.075 0  0.5 0.075 0  0.525 0.075 0  0.55 0.075 0  0.575 0.075 0  0.6 0.075 0  0.625 0.075 0  0.65 0.075 0  0.675 0.075 0  0.7 0.075 0  0.725 0.075 0  0.75 0.075 0  0.775 0.075 0  0.8 0.075 0  0.825 0.075 0  0.85 0.075 0  0.875 0.075 0  0.9 0.075 0  0.925 0.075 0  0.95 0.075 0  0.975 0.075 0  1 0.075 0  0 0.1 0  0.025 0.1 0  0.05 0.1 0  0.075 0.1 0  0.1 0.1 0  0.125 0.1 0  0.15 0.1 0  0.175 0.1 0  0.2 0.1 0  0.225 0.1 0  0.25 0.1 0  0.275 0.1 0  0.3 0.1 0  0.325 0.1 0  0.35 0.1 0  0.375 0.1 0  0.4 0.1 0  0.425 0.1 0  0.45 0.1 0  0.475 0.1 0  0.5 0.1 0  0.525 0.1 0  0.55 0.1 0  0.575 0.1 0  0.6 0.1 0  0.625 0.1 0  0.65 0.1 0  0.675 0.1 0  0.7 0.1 0  0.725 0.1 0  0.75 0.1 0  0.775 0.1 0  0.8 0.1 0  0.825 0.1 0  0.85 0.1 0  0.875 0.1 0  0.9 0.1 0  0.925 0.1 0  0.95 0.1 0  0.975 0.1 0  1 0.1 0  0 0.125 0  0.025 0.125 0  0.05 0.125 0  0.075 0.125 0  0.1 0.125 0  0.125 0.125 0  0.15 0.125 0  0.175 0.125 0  0.2 0.125 0  0.225 0.125 0  0.25 0.125 0  0.275 0.125 0  0.3 0.125 0  0.325 0.125 0  0.35 0.125 0  0.375 0.125 0  0.4 0.125 0  0.425 0.125 0  0.45 0.125 0  0.475 0.125 0  0.5 0.125 0  0.525 0.125 0  0.55 0.125 0  0.575 0.125 0  0.6 0.125 0  0.625 0.125 0  0.65 0.125 0  0.675 0.125 0  0.7 0.125 0  0.725 0.125 0  0.75 0.125 0  0.775 0.125 0  0.8 0.125 0  0.825 0.125 0  0.85 0.125 0  0.875 0.125 0  0.9 0.125 0  0.925 0.125 0  0.95 0.125 0  0.975 0.125 0  1 0.125 0  0 0.15 0  0.025 0.15 0  0.05 0.15 0  0.075 0.15 0  0.1 0.15 0  0.125 0.15 0  0.15 0.15 0  0.175 0.15 0  0.2 0.15 0  0.225 0.15 0  0.25 0.15 0  0.275 0.15 0  0.3 0.15 0  0.325 0.15 0  0.35 0.15 0  0.375 0.15 0  0.4 0.15 0  0.425 0.15 0  0.45 0.15 0  0.475 0.15 0  0.5 0.15 0  0.525 0.15 0  0.55 0.15 0  0.575 0.15 0  0.6 0.15 0  0.625 0.15 0  0.65 0.15 0  0.675 0.15 0  0.7 0.15 0  0.725 0.15 0  0.75 0.15 0  0.775 0.15 0  0.8 0.15 0  0.825 0.15 0  0.85 0.15 0  0.875 0.15 0  0.9 0.15 0  0.925 0.15 0  0.95 0.15 0  0.975 0.15 0  1 0.15 0  0 0.175 0  0.025 0.175 0  0.05 0.175 0  0.075 0.175 0  0.1 0.175 0  0.125 0.175 0  0.15 0.175 0  0.175 0.175 0  0.2 0.175 0  0.225 0.175 0  0.25 0.175 0  0.275 0.175 0  0.3 0.175 0  0.325 0.175 0  0.35 0.175 0  0.375 0.175 0  0.4 0.175 0  0.425 0.175 0  0.45 0.175 0  0.475 0.175 0  0.5 0.175 0  0.525 0.175 0  0.55 0.175 0  0.575 0.175 0  0.6 0.175 0  0.625 0.175 0  0.65 0.175 0  0.675 0.175 0  0.7 0.175 0  0.725 0.175 0  0.75 0.175 0  0.775 0.175 0  0.8 0.175 0  0.825 0.175 0  0.85 0.175 0  0.875 0.175 0  0.9 0.175 0  0.925 0.175 0  0.95 0.175 0  0.975 0.175 0  1 0.175 0  0 0.2 0  0.025 0.2 0  0.05 0.2 0  0.075 0.2 0  0.1 0.2 0  0.125 0.2 0  0.15 0.2 0  0.175 0.2 0  0.2 0.2 0  0.225 0.2 0  0.25 0.2 0  0.275 0.2 0  0.3 0.2 0  0.325 0.2 0  0.35 0.2 0  0.375 0.2 0  0.4 0.2 0  0.425 0.2 0  0.45 0.2 0  0.475 0.2 0  0.5 0.2 0  0.525 0.2 0  0.55 0.2 0  0.575 0.2 0  0.6 0.2 0  0.625 0.2 0  0.65 0.2 0  0.675 0.2 0  0.7 0.2 0  0.725 0.2 0  0.75 0.2 0  0.775 0.2 0  0.8 0.2 0  0.825 0.2 0  0.85 0.2 0  0.875 0.2 0  0.9 0.2 0  0.925 0.2 0  0.95 0.2 0  0.975 0.2 0  1 0.2 0  0 0.225 0  0.025 0.225 0  0.05 0.225 0  0.075 0.225 0  0.1 0.225 0  0.125 0.225 0  0.15 0.225 0  0.175 0.225 0  0.2 0.225 0  0.225 0.225 0  0.25 0.225 0  0.275 0.225 0  0.3 0.225 0  0.325 0.225 0  0.35 0.225 0  0.375 0.225 0  0.4 0.225 0  0.425 0.225 0  0.45 0.225 0  0.475 0.225 0  0.5 0.225 0  0.525 0.225 0  0.55 0.225 0  0.575 0.225 0  0.6 0.225 0  0.625 0.225 0  0.65 0.225 0  0.675 0.225 0  0.7 0.225 0  0.725 0.225 0  0.75 0.225 0  0.775 0.225 0  0.8 0.225 0  0.825 0.225 0  0.85 0.225 0  0.875 0.225 0  0.9 0.225 0  0.925 0.225 0  0.95 0.225 0  0.975 0.225 0  1 0.225 0  0 0.25 0  0.025 0.25 0  0.05 0.25 0  0.075 0.25 0  0.1 0.25 0  0.125 0.25 0  0.15 0.25 0  0.175 0.25 0  0.2 0.25 0  0.225 0.25 0  0.25 0.25 0  0.275 0.25 0  0.3 0.25 0  0.325 0.25 0  0.35 0.25 0  0.375 0.25 0  0.4 0.25 0  0.425 0.25 0  0.45 0.25 0  0.475 0.25 0  0.5 0.25 0  0.525 0.25 0  0.55 0.25 0  0.575 0.25 0  0.6 0.25 0  0.625 0.25 0  0.65 0.25 0  0.675 0.25 0  0.7 0.25 0  0.725 0.25 0  0.75 0.25 0  0.775 0.25 0  0.8 0.25 0  0.825 0.25 0  0.85 0.25 0  0.875 0.25 0  0.9 0.25 0  0.925 0.25 0  0.95 0.25 0  0.975 0.25 0  1 0.25 0  0 0.275 0  0.025 0.275 0  0.05 0.275 0  0.075 0.275 0  0.1 0.275 0  0.125 0.275 0  0.15 0.275 0  0.175 0.275 0  0.2 0.275 0  0.225 0.275 0  0.25 0.275 0  0.275 0.275 0  0.3 0.275 0  0.325 0.275 0  0.35 0.275 0  0.375 0.275 0  0.4 0.275 0  0.425 0.275 0  0.45 0.275 0  0.475 0.275 0  0.5 0.275 0  0.525 0.275 0  0.55 0.275 0  0.575 0.275 0  0.6 0.275 0  0.625 0.275 0  0.65 0.275 0  0.675 0.275 0  0.7 0.275 0  0.725 0.275 0  0.75 0.275 0  0.775 0.275 0  0.8 0.275 0  0.825 0.275 0  0.85 0.275 0  0.875 0.275 0  0.9 0.275 0  0.925 0.275 0  0.95 0.275 0  0.975 0.275 0  1 0.275 0  0 0.3 0  0.025 0.3 0  0.05 0.3 0  0.075 0.3 0  0.1 0.3 0  0.125 0.3 0  0.15 0.3 0  0.175 0.3 0  0.2 0.3 0  0.225 0.3 0  0.25 0.3 0  0.275 0.3 0  0.3 0.3 0  0.325 0.3 0  0.35 0.3 0  0.375 0.3 0  0.4 0.3 0  0.425 0.3 0  0.45 0.3 0  0.475 0.3 0  0.5 0.3 0  0.525 0.3 0  0.55 0.3 0  0.575 0.3 0  0.6 0.3 0  0.625 0.3 0  0.65 0.3 0  0.675 0.3 0  0.7 0.3 0  0.725 0.3 0  0.75 0.3 0  0.775 0.3 0  0.8 0.3 0  0.825 0.3 0  0.85 0.3 0  0.875 0.3 0  0.9 0.3 0  0.925 0.3 0  0.95 0.3 0  0.975 0.3 0  1 0.3 0  0 0.325 0  0.025 0.325 0  0.05 0.325 0  0.075 0.325 0  0.1 0.325 0  0.125 0.325 0  0.15 0.325 0  0.175 0.325 0  0.2 0.325 0  0.225 0.325 0  0.25 0.325 0  0.275 0.325 0  0.3 0.325 0  0.325 0.325 0  0.35 0.325 0  0.375 0.325 0  0.4 0.325 0  0.425 0.325 0  0.45 0.325 0  0.475 0.325 0  0.5 0.325 0  0.525 0.325 0  0.55 0.325 0  0.575 0.325 0  0.6 0.325 0  0.625 0.325 0  0.65 0.325 0  0.675 0.325 0  0.7 0.325 0  0.725 0.325 0  0.75 0.325 0  0.775 0.325 0  0.8 0.325 0  0.825 0.325 0  0.85 0.325 0  0.875 0.325 0  0.9 0.325 0  0.925 0.325 0  0.95 0.325 0  0.975 0.325 0  1 0.325 0  0 0.35 0  0.025 0.35 0  0.05 0.35 0  0.075 0.35 0  0.1 0.35 0  0.125 0.35 0  0.15 0.35 0  0.175 0.35 0  0.2 0.35 0  0.225 0.35 0  0.25 0.35 0  0.275 0.35 0  0.3 0.35 0  0.325 0.35 0  0.35 0.35 0  0.375 0.35 0  0.4 0.35 0  0.425 0.35 0  0.45 0.35 0  0.475 0.35 0  0.5 0.35 0  0.525 0.35 0  0.55 0.35 0  0.575 0.35 0  0.6 0.35 0  0.625 0.35 0  0.65 0.35 0  0.675 0.35 0  0.7 0.35 0  0.725 0.35 0  0.75 0.35 0  0.775 0.35 0  0.8 0.35 0  0.825 0.35 0  0.85 0.35 0  0.875 0.35 0  0.9 0.35 0  0.925 0.35 0  0.95 0.35 0  0.975 0.35 0  1 0.35 0  0 0.375 0  0.025 0.375 0  0.05 0.375 0  0.075 0.375 0  0.1 0.375 0  0.125 0.375 0  0.15 0.375 0  0.175 0.375 0  0.2 0.375 0  0.225 0.375 0  0.25 0.375 0  0.275 0.375 0  0.3 0.375 0  0.325 0.375 0  0.35 0.375 0  0.375 0.375 0  0.4 0.375 0  0.425 0.375 0  0.45 0.375 0  0.475 0.375 0  0.5 0.375 0  0.525 0.375 0  0.55 0.375 0  0.575 0.375 0  0.6 0.375 0  0.625 0.375 0  0.65 0.375 0  0.675 0.375 0  0.7 0.375 0  0.725 0.375 0  0.75 0.375 0  0.775 0.375 0  0.8 0.375 0  0.825 0.375 0  0.85 0.375 0  0.875 0.375 0  0.9 0.375 0  0.925 0.375 0  0.95 0.375 0  0.975 0.375 0  1 0.375 0  0 0.4 0  0.025 0.4 0  0.05 0.4 0  0.075 0.4 0  0.1 0.4 0  0.125 0.4 0  0.15 0.4 0  0.175 0.4 0  0.2 0.4 0  0.225 0.4 0  0.25 0.4 0  0.275 0.4 0  0.3 0.4 0  0.325 0.4 0  0.35 0.4 0  0.375 0.4 0  0.4 0.4 0  0.425 0.4 0  0.45 0.4 0  0.475 0.4 0  0.5 0.4 0  0.525 0.4 0  0.55 0.4 0  0.575 0.4 0  0.6 0.4 0  0.625 0.4 0  0.65 0.4 0  0.675 0.4 0  0.7 0.4 0  0.725 0.4 0  0.75 0.4 0  0.775 0.4 0  0.8 0.4 0  0.825 0.4 0  0.85 0.4 0  0.875 0.4 0  0.9 0.4 0  0.925 0.4 0  0.95 0.4 0  0.975 0.4 0  1 0.4 0  0 0.425 0  0.025 0.425 0  0.05 0.425 0  0.075 0.425 0  0.1 0.425 0  0.125 0.425 0  0.15 0.425 0  0.175 0.425 0  0.2 0.425 0  0.225 0.425 0  0.25 0.425 0  0.275 0.425 0  0.3 0.425 0  0.325 0.425 0  0.35 0.425 0  0.375 0.425 0  0.4 0.425 0  0.425 0.425 0  0.45 0.425 0  0.475 0.425 0  0.5 0.425 0  0.525 0.425 0  0.55 0.425 0  0.575 0.425 0  0.6 0.425 0  0.625 0.425 0  0.65 0.425 0  0.675 0.425 0  0.7 0.425 0  0.725 0.425 0  0.75 0.425 0  0.775 0.425 0  0.8 0.425 0  0.825 0.425 0  0.85 0.425 0  0.875 0.425 0  0.9 0.425 0  0.925 0.425 0  0.95 0.425 0  0.975 0.425 0  1 0.425 0  0 0.45 0  0.02
[...]
<PointData  Scalars="ControlVisualisation"> 
<DataArray  type="Float64"  Name="ControlVisualisation"  format="ascii">-5.5927977222485132e-09  -7.1083806325455821e-09  -7.1082689955243867e-09  -7.1085083956281534e-09  -7.1084720441056340e-09  -7.1070845694697091e-09  -7.1035952123908069e-09  -7.0987287889611845e-09  -7.0948688132652345e-09  -7.0921536824255992e-09  -7.0898096626364625e-09  -7.0877491555816202e-09  -7.0860839691452276e-09  -7.0847684033633437e-09  -7.0837365419089431e-09  -7.0829828057579628e-09  -7.0824918275573308e-09  -7.0822094813188744e-09  -7.0820681320777609e-09  -7.0820156967071538e-09  -7.0820265076745763e-09  -7.0820967900992846e-09  -7.0822473196887171e-09  -7.0825250381635811e-09  -7.0829982665120130e-09  -7.0837280866345663e-09  -7.0847392397839694e-09  -7.0860305801320890e-09  -7.0876521187609264e-09  -7.0895201748866827e-09  -7.0917401718722368e-09  -7.0935807528979802e-09  -7.0970445220973681e-09  -7.1019969422574657e-09  -7.1060661256328602e-09  -7.1081095717449959e-09  -7.1085874534250275e-09  -7.1084004933736573e-09  -7.1083399366973805e-09  -7.1085333723997866e-09  -5.4036112523276793e-10  -7.1081822992645149e-09  -8.5691054133858893e-09  -8.5689396516941770e-09  -8.5691135266236801e-09  -8.5689974170838618e-09  -8.5674052402080452e-09  -8.5631350947735391e-09  -8.5568790401305512e-09  -8.5516272652419415e-09  -8.5464845235294187e-09  -8.5409534959648197e-09  -8.5354935785382880e-09  -8.5307242455260789e-09  -8.5266908920575341e-09  -8.5233811223217885e-09  -8.5208277983147572e-09  -8.5190027019982889e-09  -8.5177941287988550e-09  -8.5170730556718075e-09  -8.5167426549228588e-09  -8.5167542581326227e-09  -8.5170953272933140e-09  -8.5177895065341491e-09  -8.5189114104921441e-09  -8.5205888154529220e-09  -8.5229629970879547e-09  -8.5260863145873160e-09  -8.5298852935087208e-09  -8.5343667642402409e-09  -8.5395417246558505e-09  -8.5449742689154259e-09  -8.5479578309954018e-09  -8.5524807440897263e-09  -8.5590237995343089e-09  -8.5649657974825800e-09  -8.5681534475786152e-09  -8.5691915817744685e-09  -8.5691672036767872e-09  -8.5690509993982065e-09  -8.5692479817682942e-09  -7.1085091747864299e-09  -7.1056426907071473e-09  -8.5673538639715464e-09  -8.5671852078176767e-09  -8.5673046029001906e-09  -8.5624536926472046e-09  -8.5404568016845408e-09  -8.4881617319066656e-09  -8.4111861071586706e-09  -8.3559880309285627e-09  -8.2972797431103122e-09  -8.2139040128927042e-09  -8.1313951904234922e-09  -8.0543613587147439e-09  -7.9836008431791877e-09  -7.9212849726216304e-09  -7.8707016236476435e-09  -7.8321504279192798e-09  -7.8042392497656590e-09  -7.7854624057554764e-09  -7.7748223791662202e-09  -7.7718774147883820e-09  -7.7764702359140917e-09  -7.7886940586551088e-09  -7.8092118869471019e-09  -7.8393985397874780e-09  -7.8808007209499311e-09  -7.9334260436521746e-09  -7.9950273307512898e-09  -8.0657367618011580e-09  -8.1489076262004242e-09  -8.2374246304196821e-09  -8.2961854768591160e-09  -8.3826182406232952e-09  -8.4805996292026170e-09  -8.5381539828594789e-09  -8.5605026222640046e-09  -8.5668547285834741e-09  -8.5676285883938388e-09  -8.5673011484290954e-09  -8.5677958553273869e-09  -7.1076306035333561e-09  -7.0914384975653515e-09  -8.5593490253928445e-09  -8.5508208208327926e-09  -8.4624169856555902e-09  -8.3150291478853629e-09  -8.0027955468532353e-09  -6.9788842665809829e-09  -7.4659515036406379e-10  2.8872704052182327e-02  9.9162964706269827e-02  1.5684821106884708e-01  2.0875932378660245e-01  2.5044587474855257e-01  2.8362302871727785e-01  3.0924459787257796e-01  3.2860359873944189e-01  3.4283797115793546e-01  3.5289838958356740e-01  3.5949561021545834e-01  3.6311397587657185e-01  3.6403102272832977e-01  3.6233237088342463e-01  3.5791717903921999e-01  3.5049258619596085e-01  3.3955891139963673e-01  3.2439100672452797e-01  3.0403024388178296e-01  2.7731962825110673e-01  2.4298935611288580e-01  1.9982711531597286e-01  1.4678870803757757e-01  8.5577091099942867e-02  1.7519953622204806e-02  -1.7591696689839919e-09  -7.0672228056889069e-09  -7.9517529909467560e-09  -8.3881793332236147e-09  -8.5500730727829841e-09  -8.5607058808336795e-09  -8.5601761680493383e-09  -7.1032598114189422e-09  -7.0379512571837130e-09  -8.5062146858104189e-09  -8.3651041160630278e-09  -7.0406572928275342e-09  1.0461243187000205e-01  3.9827691943557186e-01  6.5074556264787264e-01  8.8555310047484381e-01  9.9999999003235174e-01  1.0000000041670376e+00  1.0000000059345311e+00  1.0000000066748616e+00  1.0000000070431283e+00  1.0000000072581752e+00  1.0000000074004651e+00  1.0000000074988684e+00  1.0000000075645763e+00  1.0000000076065596e+00  1.0000000076315450e+00  1.0000000076437092e+00  1.0000000076451234e+00  1.0000000076361746e+00  1.0000000076159832e+00  1.0000000075821689e+00  1.0000000075299733e+00  1.0000000074512791e+00  1.0000000073336575e+00  1.0000000071584167e+00  1.0000000068904193e+00  1.0000000064367596e+00  1.0000000055176717e+00  1.0000000028272844e+00  9.9999996774260169e-01  8.6040490881956555e-01  6.2492707046790474e-01  3.5821063790472679e-01  7.1655506550835135e-02  -6.7976101123050996e-09  -8.4204116318398270e-09  -8.5351864417782787e-09  -7.0829276596341045e-09  -6.8921555060085412e-09  -8.1482449315327535e-09  1.0248563844869243e-01  8.0991275928077255e-01  1.0000000068255237e+00  1.0000000085005467e+00  1.0000000088821137e+00  1.0000000090498953e+00  1.0000000091419943e+00  1.0000000092086194e+00  1.0000000092556438e+00  1.0000000092846788e+00  1.0000000093036090e+00  1.0000000093165171e+00  1.0000000093255752e+00  1.0000000093320074e+00  1.0000000093365029e+00  1.0000000093395278e+00  1.0000000093414136e+00  1.0000000093423846e+00  1.0000000093425645e+00  1.0000000093419867e+00  1.0000000093405998e+00  1.0000000093382642e+00  1.0000000093347428e+00  1.0000000093296941e+00  1.0000000093226362e+00  1.0000000093128181e+00  1.0000000092989507e+00  1.0000000092788099e+00  1.0000000092484391e+00  1.0000000091998706e+00  1.0000000091152459e+00  1.0000000089812211e+00  1.0000000087571757e+00  1.0000000082234650e+00  1.0000000060100758e+00  7.2955433621530397e-01  8.9727720873101185e-02  -8.2441595936257252e-09  -6.7478025286184087e-09  -3.7191768213520295e-09  6.7735921845914948e-01  1.0000000087299965e+00  1.0000000093520900e+00  1.0000000094926533e+00  1.0000000095692845e+00  1.0000000096099564e+00  1.0000000096319155e+00  1.0000000096445461e+00  1.0000000096516919e+00  1.0000000096554178e+00  1.0000000096571871e+00  1.0000000096579207e+00  1.0000000096581507e+00  1.0000000096581663e+00  1.0000000096581037e+00  1.0000000096580119e+00  1.0000000096579102e+00  1.0000000096578106e+00  1.0000000096577228e+00  1.0000000096576533e+00  1.0000000096576034e+00  1.0000000096575683e+00  1.0000000096575403e+00  1.0000000096575092e+00  1.0000000096574648e+00  1.0000000096573931e+00  1.0000000096572528e+00  1.0000000096569357e+00  1.0000000096562072e+00  1.0000000096546104e+00  1.0000000096512958e+00  1.0000000096448567e+00  1.0000000096331809e+00  1.0000000096124062e+00  1.0000000095726802e+00  1.0000000094851866e+00  1.0000000092632799e+00  1.0000000084691931e+00  3.9052859299743720e-01  -6.5977414927209827e-09  1.0000000094430581e+00  1.0000000097096506e+00  1.0000000097757640e+00  1.0000000097957067e+00  1.0000000098014363e+00  1.0000000097997839e+00  1.0000000097952735e+00  1.0000000097901689e+00  1.0000000097853918e+00  1.0000000097811961e+00  1.0000000097775739e+00  1.0000000097745034e+00  1.0000000097719617e+00  1.0000000097699124e+00  1.0000000097683044e+00  1.0000000097670732e+00  1.0000000097661528e+00  1.0000000097654871e+00  1.0000000097650317e+00  1.0000000097647588e+00  1.0000000097646515e+00  1.0000000097647053e+00  1.0000000097649246e+00  1.0000000097653257e+00  1.0000000097659383e+00  1.0000000097668094e+00  1.0000000097680024e+00  1.0000000097695954e+00  1.0000000097716746e+00  1.0000000097743262e+00  1.0000000097776252e+00  1.0000000097816317e+00  1.0000000097863975e+00  1.0000000097919428e+00  1.0000000097980581e+00  1.0000000098038662e+00  1.0000000098072468e+00  1.0000000098036368e+00  1.0000000097812209e+00  1.0000000097129342e+00  1.0000000083682943e+00  1.0000000098824440e+00  1.0000000099262254e+00  1.0000000099169479e+00  1.0000000099039867e+00  1.0000000098898292e+00  1.0000000098758381e+00  1.0000000098630173e+00  1.0000000098519555e+00  1.0000000098428194e+00  1.0000000098354860e+00  1.0000000098296882e+00  1.0000000098251431e+00  1.0000000098216055e+00  1.0000000098188770e+00  1.0000000098167958e+00  1.0000000098152317e+00  1.0000000098140784e+00  1.0000000098132560e+00  1.0000000098127040e+00  1.0000000098123827e+00  1.0000000098122692e+00  1.0000000098123563e+00  1.0000000098126514e+00  1.0000000098131778e+00  1.0000000098139767e+00  1.0000000098151107e+00  1.0000000098166661e+00  1.0000000098187569e+00  1.0000000098215271e+00  1.0000000098251562e+00  1.0000000098298623e+00  1.0000000098359068e+00  1.0000000098435819e+00  1.0000000098531574e+00  1.0000000098647581e+00  1.0000000098781954e+00  1.0000000098928341e+00  1.0000000099075432e+00  1.0000000099206645e+00  1.0000000099300268e+00  1.0000000098322712e+00  1.0000000099343660e+00  1.0000000099610169e+00  1.0000000099509212e+00  1.0000000099370316e+00  1.0000000099213788e+00  1.0000000099056348e+00  1.0000000098910857e+00  1.0000000098784549e+00  1.0000000098679920e+00  1.0000000098596089e+00  1.0000000098530346e+00  1.0000000098479460e+00  1.0000000098440407e+00  1.0000000098410657e+00  1.0000000098388186e+00  1.0000000098371411e+00  1.0000000098359123e+00  1.0000000098350401e+00  1.0000000098344588e+00  1.0000000098341246e+00  1.0000000098340118e+00  1.0000000098341129e+00  1.0000000098344362e+00  1.0000000098350070e+00  1.0000000098358703e+00  1.0000000098370940e+00  1.0000000098387714e+00  1.0000000098410293e+00  1.0000000098440318e+00  1.0000000098479884e+00  1.0000000098531596e+00  1.0000000098598529e+00  1.0000000098683932e+00  1.0000000098790480e+00  1.0000000098918973e+00  1.0000000099066608e+00  1.0000000099225606e+00  1.0000000099382729e+00  1.0000000099520190e+00  1.0000000099617281e+00  1.0000000099254474e+00  1.0000000099420245e+00  1.0000000099676667e+00  1.0000000099585149e+00  1.0000000099453390e+00  1.0000000099299149e+00  1.0000000099140565e+00  1.0000000098991952e+00  1.0000000098861817e+00  1.0000000098753508e+00  1.0000000098666555e+00  1.0000000098598412e+00  1.0000000098545809e+00  1.0000000098505597e+00  1.0000000098475088e+00  1.0000000098452126e+00  1.0000000098435049e+00  1.0000000098422572e+00  1.0000000098413742e+00  1.0000000098407882e+00  1.0000000098404533e+00  1.0000000098403441e+00  1.0000000098404525e+00  1.0000000098407869e+00  1.0000000098413733e+00  1.0000000098422572e+00  1.0000000098435071e+00  1.0000000098452182e+00  1.0000000098475186e+00  1.0000000098505759e+00  1.0000000098546047e+00  1.0000000098598723e+00  1.0000000098666908e+00  1.0000000098753854e+00  1.0000000098862110e+00  1.0000000098992168e+00  1.0000000099140700e+00  1.0000000099299224e+00  1.0000000099453423e+00  1.0000000099585160e+00  1.0000000099676669e+00  1.0000000099420243e+00  1.0000000099254491e+00  1.0000000099617314e+00  1.0000000099520259e+00  1.0000000099382793e+00  1.0000000099225586e+00  1.0000000099066406e+00  1.0000000098918507e+00  1.0000000098789716e+00  1.0000000098682900e+00  1.0000000098597299e+00  1.0000000098530231e+00  1.0000000098478419e+00  1.0000000098438766e+00  1.0000000098408657e+00  1.0000000098386004e+00  1.0000000098369159e+00  1.0000000098356867e+00  1.0000000098348187e+00  1.0000000098342441e+00  1.0000000098339175e+00  1.0000000098338144e+00  1.0000000098339272e+00  1.0000000098342638e+00  1.0000000098348494e+00  1.0000000098357282e+00  1.0000000098369672e+00  1.0000000098386568e+00  1.0000000098409203e+00  1.0000000098439161e+00  1.0000000098478463e+00  1.0000000098529616e+00  1.0000000098595601e+00  1.0000000098679624e+00  1.0000000098784405e+00  1.0000000098910835e+00  1.0000000099056419e+00  1.0000000099213922e+00  1.0000000099370459e+00  1.0000000099509312e+00  1.0000000099610200e+00  1.0000000099343671e+00  1.0000000098322914e+00  1.0000000099300492e+00  1.0000000099207051e+00  1.0000000099075823e+00  1.0000000098928501e+00  1.0000000098781678e+00  1.0000000098646702e+00  1.0000000098530042e+00  1.0000000098433701e+00  1.0000000098356503e+00  1.0000000098295709e+00  1.0000000098248332e+00  1.0000000098211725e+00  1.0000000098183728e+00  1.0000000098162565e+00  1.0000000098146804e+00  1.0000000098135300e+00  1.0000000098127173e+00  1.0000000098121802e+00  1.0000000098118775e+00  1.0000000098117867e+00  1.0000000098119008e+00  1.0000000098122279e+00  1.0000000098127904e+00  1.0000000098136286e+00  1.0000000098148016e+00  1.0000000098163913e+00  1.0000000098185045e+00  1.0000000098212740e+00  1.0000000098248623e+00  1.0000000098294644e+00  1.0000000098353168e+00  1.0000000098426975e+00  1.0000000098518753e+00  1.0000000098629780e+00  1.0000000098758384e+00  1.0000000098898623e+00  1.0000000099040376e+00  1.0000000099169961e+00  1.0000000099262505e+00  1.0000000098824511e+00  1.0000000083689733e+00  1.0000000097132908e+00  1.0000000097815958e+00  1.0000000098038833e+00  1.0000000098073669e+00  1.0000000098038486e+00  1.0000000097978889e+00  1.0000000097916222e+00  1.0000000097859525e+00  1.0000000097811013e+00  1.0000000097770274e+00  1.0000000097736557e+00  1.0000000097709261e+00  1.0000000097687738e+00  1.0000000097671204e+00  1.0000000097658794e+00  1.0000000097649711e+00  1.0000000097643280e+00  1.0000000097639028e+00  1.0000000097636663e+00  1.0000000097636044e+00  1.0000000097637134e+00  1.0000000097639994e+00  1.0000000097644777e+00  1.0000000097651762e+00  1.0000000097661375e+00  1.0000000097674180e+00  1.0000000097690858e+00  1.0000000097712114e+00  1.0000000097738537e+00  1.0000000097770436e+00  1.0000000097807817e+00  1.0000000097850763e+00  1.0000000097899422e+00  1.0000000097951474e+00  1.0000000097997757e+00  1.0000000098015611e+00  1.0000000097959658e+00  1.0000000097760600e+00  1.0000000097100228e+00  1.0000000094433166e+00  -6.6079496367771465e-09  3.9519204202042157e-01  1.0000000084778893e+00  1.0000000092662165e+00  1.0000000094863559e+00  1.0000000095729376e+00  1.0000000096120720e+00  1.0000000096323653e+00  1.0000000096437160e+00  1.0000000096499950e+00  1.0000000096531814e+00  1.0000000096545900e+00  1.0000000096551023e+00  1.0000000096552297e+00  1.0000000096552202e+00  1.0000000096551753e+00  1.0000000096551271e+00  1.0000000096550845e+00  1.0000000096550530e+00  1.0000000096550443e+00  1.0000000096550734e+00  1.0000000096551496e+00  1.0000000096552704e+00  1.0000000096554267e+00  1.0000000096556056e+00  1.0000000096557948e+00  1.0000000096559696e+00  1.0000000096560770e+00  1.0000000096559993e+00  1.0000000096554857e+00  1.0000000096540083e+00  1.0000000096505732e+00  1.0000000096436459e+00  1.0000000096312058e+00  1.0000000096095363e+00  1.0000000095693344e+00  1.0000000094931687e+00  1.0000000093530219e+00  1.0000000087373313e+00  6.8284783382776726e-01  -3.6849482735297680e-09  -6.7956457497421981e-09  -8.2494964810511296e-09  9.5500582574623835e-02  7.3438156890465944e-01  1.0000000060676093e+00  1.0000000082314309e+00  1.0000000087576786e+00  1.0000000089775472e+00  1.0000000091097949e+00  1.0000000091945787e+00  1.0000000092429862e+00  1.0000000092726078e+00  1.0000000092918975e+00  1.0000000093051300e+00  1.0000000093144805e+00  1.0000000093211567e+00  1.0000000093258989e+00  1.0000000093291781e+00  1.0000000093313162e+00  1.0000000093325538e+00  1.0000000093330619e+00  1.0000000093329118e+00  1.0000000093320602e+00  1.0000000093303609e+00  1.0000000093275867e+00  1.0000000093234112e+00  1.0000000093173442e+00  1.0000000093086321e+00  1.0000000092960670e+00  1.0000000092776826e+00  1.0000000092496126e+00  1.0000000092035755e+00  1.0000000091375914e+00  1.0000000090457732e+00  1.0000000088790504e+00  1.0000000085008736e+00  1.0000000068572890e+00  8.1550124848836247e-01  1.0844826419920549e-01  -8.1494379625456702e-09  -6.9066353337577824e-09  -7.0979735371048688e-09  -8.5418050388373692e-09  -8.3887110474480498e-09  -6.5983357296506928e-09  7.6984833106338399e-02  3.6011276665956060e-01  6.2326819598635008e-01  8.5390150599258019e-01  1.0000000001801237e+00  1.0000000027269418e+00  1.0000000054417197e+00  1.0000000063296755e+00  1.0000000067946637e+00  1.0000000070735477e+00  1.0000000072501332e+00  1.0000000073680992e+00  1.0000000074483100e+00  1.0000000075009254e+00  1.0000000075333180e+00  1.0000000075516728e+00  1.0000000075600870e+00  1.0000000075596429e+00  1.0000000075484408e+00  1.0000000075232252e+00  1.0000000074808182e+00  1.0000000074163664e+00  1.0000000073198303e+00  1.0000000071725164e+00  1.0000000069385691e+00  1.0000000065492585e+00  1.0000000058245178e+00  1.0000000040746611e+00  9.9999998576674121e-01  8.7820045326609886e-01  6.4850783055466432e-01  3.9925635681861626e-01  1.1034205849197226e-01  -6.8853645783407742e-09  -8.3469971299654309e-09  -8.5156181882677903e-09  -7.0621892883492593e-09  -7.1077164957257663e-09  -8.5643532486461277e-09  -8.5501935311520198e-09  -8.5185498374224389e-09  -8.3375579488633154e-09  -7.8859484279343843e-09  -6.9485069689820612e-09  -1.5000311681681032e-09  1.5484212004306110e-02  8.0321318985868570e-02  1.3811254400766057e-01  1.8760572861204211e-01  2.2762357373901573e-01  2.5914396368018711e-01  2.8342589876477031e-01  3.0174790490439074e-01  3.1525111401902683e-01  3.2487600924520044e-01  3.3134496161682286e-01  3.3516434891131497e-01  3.3663496521997233e-01  3.3586129081183208e-01  3.3275443116450493e-01  3.2702991287709388e-01  3.1819819844308384e-01  3.0555006774327181e-01  2.8815120373739089e-01  2.6489446729718136e-01  2.3447248264772802e-01  1.9587557511938958e-01  1.4741012886553204e-01  9.3446461402524161e-02  2.6558367743025321e-02  -3.9004245236624474e-10  -6.8956092712036431e-09  -7.9545188875031385e-09  -8.2772216621783409e-09  -8.4263631583691748e-09  -8.5344406510541188e-09  -8.5622896167666786e-09  -7.1027386634712304e-09  -7.1055253173056012e-09  -8.5651504271256652e-09  -8.5574688936266733e-09  -8.5485011939449610e-09  -8.5405566876044647e-09  -8.5297436659376440e-09  -8.5021675027673090e-09  -8.4458221068090972e-09  -8.3628698819536141e-09  -8.2878804509606283e-09  -8.2282723651162948e-09  -8.1562326576534912e-09  -8.0888834280870481e-09  -8.0243805874202175e-09  -7.9687642105236939e-09  -7.9245326558318323e-09  -7.8896758597399077e-09  -7.8635215643379987e-09  -7.8461429216050664e-09  -7.8366015242297047e-09  -7.8334533906052237e-09  -7.8357913629696298e-09  -7.8438697720489952e-09  -7.8590465198503918e-09  -7.8827479646578688e-09  -7.9156236322693814e-09  -7.9581439848256202e-09  -8.0109573492036436e-09  -8.0739587040180365e-09  -8.1460074165382931e-09  -8.2214459185996750e-09  -8.2909004643763677e-09  -8.3328226468836233e-09  -8.3760438511618214e-09  -8.4481264095347831e-09  -8.5027661403332770e-09  -8.5330983805637348e-09  -8.5467955470525608e-09  -8.5562731901127267e-09  -8.5647989925646502e-09  -7.1071595633482846e-09  -7.1029053938254471e-09  -8.5630210645085176e-09  -8.5588968899559868e-09  -8.5539888402875205e-09  -8.5490419847191032e-09  -8.5442871554476643e-09  -8.5397376876204230e-09  -8.5368258666623645e-09  -8.5366391431081567e-09  -8.5373136259469664e-09  -8.5361903032092794e-09  -8.5331887084808413e-09  -8.5302564563897758e-09  -8.5274308450953236e-09  -8.5251648002162960e-09  -8.5234853301387728e-09  -8.5222353416852002e-09  -8.5213578816777796e-09  -8.5208095111084991e-09  -8.5204979180645751e-09  -8.5203284106408911e-09  -8.5202547499721179e-09  -8.5202968135552335e-09  -8.5205228074386821e-09  -8.5210031930151629e-09  -8.5217837927003601e-09  -8.5229160325434502e-09  -8.5244941171722557e-09  -8.5266310335980572e-09  -8.5293770161331231e-09  -8.5325511928985108e-09  -8.5352954403607393e-09  -8.5366315871286385e-09  -8.5361819711818923e-09  -8.5378457713009163e-09  -8.5420556437613062e-09  -8.5472832312661711e-09  -8.5525596338751893e-09  -8.5578047373