<?xml version="1.0"?>
<VTKFile type="UnstructuredGrid"  version="0.1"  >
<UnstructuredGrid>
<Piece  NumberOfPoints="1681" NumberOfCells="3200">
<Points>
<DataArray  type="Float64"  NumberOfComponents="3"  format="ascii">0 0 0  0.025 0 0  0.05 0 0  0.075 0 0  0.1 0 0  0.125 0 0  0.15 0 0  0.175 0 0  0.2 0 0  0.225 0 0  0.25 0 0  0.275 0 0  0.3 0 0  0.325 0 0  0.35 0 0  0.375 0 0  0.4 0 0  0.425 0 0  0.45 0 0  0.475 0 0  0.5 0 0  0.525 0 0  0.55 0 0  0.575 0 0  0.6 0 0  0.625 0 0  0.65 0 0  0.675 0 0  0.7 0 0  0.725 0 0  0.75 0 0  0.775 0 0  0.8 0 0  0.825 0 0  0.85 0 0  0.875 0 0  0.9 0 0  0.925 0 0  0.95 0 0  0.975 0 0  1 0 0  0 0.025 0  0.025 0.025 0  0.05 0.025 0  0.075 0.025 0  0.1 0.025 0  0.125 0.025 0  0.15 0.025 0  0.175 0.025 0  0.2 0.025 0  0.225 0.025 0  0.25 0.025 0  0.275 0.025 0  0.3 0.025 0  0.325 0.025 0  0.35 0.025 0  0.375 0.025 0  0.4 0.025 0  0.425 0.025 0  0.45 0.025 0  0.475 0.025 0  0.5 0.025 0  0.525 0.025 0  0.55 0.025 0  0.575 0.025 0  0.6 0.025 0  0.625 0.025 0  0.65 0.025 0  0.675 0.025 0  0.7 0.025 0  0.725 0.025 0  0.75 0.025 0  0.775 0.025 0  0.8 0.025 0  0.825 0.025 0  0.85 0.025 0  0.875 0.025 0  0.9 0.025 0  0.925 0.025 0  0.95 0.025 0  0.975 0.025 0  1 0.025 0  0 0.05 0  0.025 0.05 0  0.05 0.05 0  0.075 0.05 0  0.1 0.05 0  0.125 0.05 0  0.15 0.05 0  0.175 0.05 0  0.2 0.05 0  0.225 0.05 0  0.25 0.05 0  0.275 0.05 0  0.3 0.05 0  0.325 0.05 0  0.35 0.05 0  0.375 0.05 0  0.4 0.05 0  0.425 0.05 0  0.45 0.05 0  0.475 0.05 0  0.5 0.05 0  0.525 0.05 0  0.55 0.05 0  0.575 0.05 0  0.6 0.05 0  0.625 0.05 0  0.65 0.05 0  0.675 0.05 0  0.7 0.05 0  0.725 0.05 0  0.75 0.05 0  0.775 0.05 0  0.8 0.05 0  0.825 0.05 0  0.85 0.05 0  0.875 0.05 0  0.9 0.05 0  0.925 0.05 0  0.95 0.05 0  0.975 0.05 0  1 0.05 0  0 0.075 0  0.025 0.075 0  0.05 0.075 0  0.075 0.075 0  0.1 0.075 0  0.125 0.075 0  0.15 0.075 0  0.175 0.075 0  0.2 0.075 0  0.225 0.075 0  0.25 0.075 0  0.275 0.075 0  0.3 0.075 0  0.325 0.075 0  0.35 0.075 0  0.375 0.075 0  0.4 0.075 0  0.425 0.075 0  0.45 0.075 0  0.475 0.075 0  0.5 0.075 0  0.525 0.075 0  0.55 0.075 0  0.575 0.075 0  0.6 0.075 0  0.625 0.075 0  0.65 0.075 0  0.675 0.075 0  0.7 0.075 0  0.725 0.075 0  0.75 0.075 0  0.775 0.075 0  0.8 0.075 0  0.825 0.075 0  0.85 0.075 0  0.875 0.075 0  0.9 0.075 0  0.925 0.075 0  0.95 0.075 0  0.975 0.075 0  1 0.075 0  0 0.1 0  0.025 0.1 0  0.05 0.1 0  0.075 0.1 0  0.1 0.1 0  0.125 0.1 0  0.15 0.1 0  0.175 0.1 0  0.2 0.1 0  0.225 0.1 0  0.25 0.1 0  0.275 0.1 0  0.3 0.1 0  0.325 0.1 0  0.35 0.1 0  0.375 0.1 0  0.4 0.1 0  0.425 0.1 0  0.45 0.1 0  0.475 0.1 0  0.5 0.1 0  0.525 0.1 0  0.55 0.1 0  0.575 0.1 0  0.6 0.1 0  0.625 0.1 0  0.65 0.1 0  0.675 0.1 0  0.7 0.1 0  0.725 0.1 0  0.75 0.1 0  0.775 0.1 0  0.8 0.1 0  0.825 0.1 0  0.85 0.1 0  0.875 0.1 0  0.9 0.1 0  0.925 0.1 0  0.95 0.1 0  0.975 0.1 0  1 0.1 0  0 0.125 0  0.025 0.125 0  0.05 0.125 0  0.075 0.125 0  0.1 0.125 0  0.125 0.125 0  0.15 0.125 0  0.175 0.125 0  0.2 0.125 0  0.225 0.125 0  0.25 0.125 0  0.275 0.125 0  0.3 0.125 0  0.325 0.125 0  0.35 0.125 0  0.375 0.125 0  0.4 0.125 0  0.425 0.125 0  0.45 0.125 0  0.475 0.125 0  0.5 0.125 0  0.525 0.125 0  0.55 0.125 0  0.575 0.125 0  0.6 0.125 0  0.625 0.125 0  0.65 0.125 0  0.675 0.125 0  0.7 0.125 0  0.725 0.125 0  0.75 0.125 0  0.775 0.125 0  0.8 0.125 0  0.825 0.125 0  0.85 0.125 0  0.875 0.125 0  0.9 0.125 0  0.925 0.125 0  0.95 0.125 0  0.975 0.125 0  1 0.125 0  0 0.15 0  0.025 0.15 0  0.05 0.15 0  0.075 0.15 0  0.1 0.15 0  0.125 0.15 0  0.15 0.15 0  0.175 0.15 0  0.2 0.15 0  0.225 0.15 0  0.25 0.15 0  0.275 0.15 0  0.3 0.15 0  0.325 0.15 0  0.35 0.15 0  0.375 0.15 0  0.4 0.15 0  0.425 0.15 0  0.45 0.15 0  0.475 0.15 0  0.5 0.15 0  0.525 0.15 0  0.55 0.15 0  0.575 0.15 0  0.6 0.15 0  0.625 0.15 0  0.65 0.15 0  0.675 0.15 0  0.7 0.15 0  0.725 0.15 0  0.75 0.15 0  0.775 0.15 0  0.8 0.15 0  0.825 0.15 0  0.85 0.15 0  0.875 0.15 0  0.9 0.15 0  0.925 0.15 0  0.95 0.15 0  0.975 0.15 0  1 0.15 0  0 0.175 0  0.025 0.175 0  0.05 0.175 0  0.075 0.175 0  0.1 0.175 0  0.125 0.175 0  0.15 0.175 0  0.175 0.175 0  0.2 0.175 0  0.225 0.175 0  0.25 0.175 0  0.275 0.175 0  0.3 0.175 0  0.325 0.175 0  0.35 0.175 0  0.375 0.175 0  0.4 0.175 0  0.425 0.175 0  0.45 0.175 0  0.475 0.175 0  0.5 0.175 0  0.525 0.175 0  0.55 0.175 0  0.575 0.175 0  0.6 0.175 0  0.625 0.175 0  0.65 0.175 0  0.675 0.175 0  0.7 0.175 0  0.725 0.175 0  0.75 0.175 0  0.775 0.175 0  0.8 0.175 0  0.825 0.175 0  0.85 0.175 0  0.875 0.175 0  0.9 0.175 0  0.925 0.175 0  0.95 0.175 0  0.975 0.175 0  1 0.175 0  0 0.2 0  0.025 0.2 0  0.05 0.2 0  0.075 0.2 0  0.1 0.2 0  0.125 0.2 0  0.15 0.2 0  0.175 0.2 0  0.2 0.2 0  0.225 0.2 0  0.25 0.2 0  0.275 0.2 0  0.3 0.2 0  0.325 0.2 0  0.35 0.2 0  0.375 0.2 0  0.4 0.2 0  0.425 0.2 0  0.45 0.2 0  0.475 0.2 0  0.5 0.2 0  0.525 0.2 0  0.55 0.2 0  0.575 0.2 0  0.6 0.2 0  0.625 0.2 0  0.65 0.2 0  0.675 0.2 0  0.7 0.2 0  0.725 0.2 0  0.75 0.2 0  0.775 0.2 0  0.8 0.2 0  0.825 0.2 0  0.85 0.2 0  0.875 0.2 0  0.9 0.2 0  0.925 0.2 0  0.95 0.2 0  0.975 0.2 0  1 0.2 0  0 0.225 0  0.025 0.225 0  0.05 0.225 0  0.075 0.225 0  0.1 0.225 0  0.125 0.225 0  0.15 0.225 0  0.175 0.225 0  0.2 0.225 0  0.225 0.225 0  0.25 0.225 0  0.275 0.225 0  0.3 0.225 0  0.325 0.225 0  0.35 0.225 0  0.375 0.225 0  0.4 0.225 0  0.425 0.225 0  0.45 0.225 0  0.475 0.225 0  0.5 0.225 0  0.525 0.225 0  0.55 0.225 0  0.575 0.225 0  0.6 0.225 0  0.625 0.225 0  0.65 0.225 0  0.675 0.225 0  0.7 0.225 0  0.725 0.225 0  0.75 0.225 0  0.775 0.225 0  0.8 0.225 0  0.825 0.225 0  0.85 0.225 0  0.875 0.225 0  0.9 0.225 0  0.925 0.225 0  0.95 0.225 0  0.975 0.225 0  1 0.225 0  0 0.25 0  0.025 0.25 0  0.05 0.25 0  0.075 0.25 0  0.1 0.25 0  0.125 0.25 0  0.15 0.25 0  0.175 0.25 0  0.2 0.25 0  0.225 0.25 0  0.25 0.25 0  0.275 0.25 0  0.3 0.25 0  0.325 0.25 0  0.35 0.25 0  0.375 0.25 0  0.4 0.25 0  0.425 0.25 0  0.45 0.25 0  0.475 0.25 0  0.5 0.25 0  0.525 0.25 0  0.55 0.25 0  0.575 0.25 0  0.6 0.25 0  0.625 0.25 0  0.65 0.25 0  0.675 0.25 0  0.7 0.25 0  0.725 0.25 0  0.75 0.25 0  0.775 0.25 0  0.8 0.25 0  0.825 0.25 0  0.85 0.25 0  0.875 0.25 0  0.9 0.25 0  0.925 0.25 0  0.95 0.25 0  0.975 0.25 0  1 0.25 0  0 0.275 0  0.025 0.275 0  0.05 0.275 0  0.075 0.275 0  0.1 0.275 0  0.125 0.275 0  0.15 0.275 0  0.175 0.275 0  0.2 0.275 0  0.225 0.275 0  0.25 0.275 0  0.275 0.275 0  0.3 0.275 0  0.325 0.275 0  0.35 0.275 0  0.375 0.275 0  0.4 0.275 0  0.425 0.275 0  0.45 0.275 0  0.475 0.275 0  0.5 0.275 0  0.525 0.275 0  0.55 0.275 0  0.575 0.275 0  0.6 0.275 0  0.625 0.275 0  0.65 0.275 0  0.675 0.275 0  0.7 0.275 0  0.725 0.275 0  0.75 0.275 0  0.775 0.275 0  0.8 0.275 0  0.825 0.275 0  0.85 0.275 0  0.875 0.275 0  0.9 0.275 0  0.925 0.275 0  0.95 0.275 0  0.975 0.275 0  1 0.275 0  0 0.3 0  0.025 0.3 0  0.05 0.3 0  0.075 0.3 0  0.1 0.3 0  0.125 0.3 0  0.15 0.3 0  0.175 0.3 0  0.2 0.3 0  0.225 0.3 0  0.25 0.3 0  0.275 0.3 0  0.3 0.3 0  0.325 0.3 0  0.35 0.3 0  0.375 0.3 0  0.4 0.3 0  0.425 0.3 0  0.45 0.3 0  0.475 0.3 0  0.5 0.3 0  0.525 0.3 0  0.55 0.3 0  0.575 0.3 0  0.6 0.3 0  0.625 0.3 0  0.65 0.3 0  0.675 0.3 0  0.7 0.3 0  0.725 0.3 0  0.75 0.3 0  0.775 0.3 0  0.8 0.3 0  0.825 0.3 0  0.85 0.3 0  0.875 0.3 0  0.9 0.3 0  0.925 0.3 0  0.95 0.3 0  0.975 0.3 0  1 0.3 0  0 0.325 0  0.025 0.325 0  0.05 0.325 0  0.075 0.325 0  0.1 0.325 0  0.125 0.325 0  0.15 0.325 0  0.175 0.325 0  0.2 0.325 0  0.225 0.325 0  0.25 0.325 0  0.275 0.325 0  0.3 0.325 0  0.325 0.325 0  0.35 0.325 0  0.375 0.325 0  0.4 0.325 0  0.425 0.325 0  0.45 0.325 0  0.475 0.325 0  0.5 0.325 0  0.525 0.325 0  0.55 0.325 0  0.575 0.325 0  0.6 0.325 0  0.625 0.325 0  0.65 0.325 0  0.675 0.325 0  0.7 0.325 0  0.725 0.325 0  0.75 0.325 0  0.775 0.325 0  0.8 0.325 0  0.825 0.325 0  0.85 0.325 0  0.875 0.325 0  0.9 0.325 0  0.925 0.325 0  0.95 0.325 0  0.975 0.325 0  1 0.325 0  0 0.35 0  0.025 0.35 0  0.05 0.35 0  0.075 0.35 0  0.1 0.35 0  0.125 0.35 0  0.15 0.35 0  0.175 0.35 0  0.2 0.35 0  0.225 0.35 0  0.25 0.35 0  0.275 0.35 0  0.3 0.35 0  0.325 0.35 0  0.35 0.35 0  0.375 0.35 0  0.4 0.35 0  0.425 0.35 0  0.45 0.35 0  0.475 0.35 0  0.5 0.35 0  0.525 0.35 0  0.55 0.35 0  0.575 0.35 0  0.6 0.35 0  0.625 0.35 0  0.65 0.35 0  0.675 0.35 0  0.7 0.35 0  0.725 0.35 0  0.75 0.35 0  0.775 0.35 0  0.8 0.35 0  0.825 0.35 0  0.85 0.35 0  0.875 0.35 0  0.9 0.35 0  0.925 0.35 0  0.95 0.35 0  0.975 0.35 0  1 0.35 0  0 0.375 0  0.025 0.375 0  0.05 0.375 0  0.075 0.375 0  0.1 0.375 0  0.125 0.375 0  0.15 0.375 0  0.175 0.375 0  0.2 0.375 0  0.225 0.375 0  0.25 0.375 0  0.275 0.375 0  0.3 0.375 0  0.325 0.375 0  0.35 0.375 0  0.375 0.375 0  0.4 0.375 0  0.425 0.375 0  0.45 0.375 0  0.475 0.375 0  0.5 0.375 0  0.525 0.375 0  0.55 0.375 0  0.575 0.375 0  0.6 0.375 0  0.625 0.375 0  0.65 0.375 0  0.675 0.375 0  0.7 0.375 0  0.725 0.375 0  0.75 0.375 0  0.775 0.375 0  0.8 0.375 0  0.825 0.375 0  0.85 0.375 0  0.875 0.375 0  0.9 0.375 0  0.925 0.375 0  0.95 0.375 0  0.975 0.375 0  1 0.375 0  0 0.4 0  0.025 0.4 0  0.05 0.4 0  0.075 0.4 0  0.1 0.4 0  0.125 0.4 0  0.15 0.4 0  0.175 0.4 0  0.2 0.4 0  0.225 0.4 0  0.25 0.4 0  0.275 0.4 0  0.3 0.4 0  0.325 0.4 0  0.35 0.4 0  0.375 0.4 0  0.4 0.4 0  0.425 0.4 0  0.45 0.4 0  0.475 0.4 0  0.5 0.4 0  0.525 0.4 0  0.55 0.4 0  0.575 0.4 0  0.6 0.4 0  0.625 0.4 0  0.65 0.4 0  0.675 0.4 0  0.7 0.4 0  0.725 0.4 0  0.75 0.4 0  0.775 0.4 0  0.8 0.4 0  0.825 0.4 0  0.85 0.4 0  0.875 0.4 0  0.9 0.4 0  0.925 0.4 0  0.95 0.4 0  0.975 0.4 0  1 0.4 0  0 0.425 0  0.025 0.425 0  0.05 0.425 0  0.075 0.425 0  0.1 0.425 0  0.125 0.425 0  0.15 0.425 0  0.175 0.425 0  0.2 0.425 0  0.225 0.425 0  0.25 0.425 0  0.275 0.425 0  0.3 0.425 0  0.325 0.425 0  0.35 0.425 0  0.375 0.425 0  0.4 0.425 0  0.425 0.425 0  0.45 0.425 0  0.475 0.425 0  0.5 0.425 0  0.525 0.425 0  0.55 0.425 0  0.575 0.425 0  0.6 0.425 0  0.625 0.425 0  0.65 0.425 0  0.675 0.425 0  0.7 0.425 0  0.725 0.425 0  0.75 0.425 0  0.775 0.425 0  0.8 0.425 0  0.825 0.425 0  0.85 0.425 0  0.875 0.425 0  0.9 0.425 0  0.925 0.425 0  0.95 0.425 0  0.975 0.425 0  1 0.425 0  0 0.45 0  0.02
[...]
<PointData  Scalars="ControlVisualisation"> 
<DataArray  type="Float64"  Name="ControlVisualisation"  format="ascii">3.4408817991268479e-07  2.2614749671756615e-07  2.2627274689454105e-07  2.2623050014678612e-07  2.2611103245749281e-07  2.2607398747037854e-07  2.2632890883898274e-07  2.2708049479355736e-07  2.2783331307736881e-07  2.2907362785327460e-07  2.3119905818411135e-07  2.3417406943137909e-07  2.3763067421850782e-07  2.4121183309939408e-07  2.4462927916494264e-07  2.4767627272301052e-07  2.5021408131137132e-07  2.5215850329004846e-07  2.5346296268695266e-07  2.5410464457793338e-07  2.5407504700257015e-07  2.5337499297363399e-07  2.5201458248684838e-07  2.5001856447601594e-07  2.4743598021479705e-07  2.4435456552870635e-07  2.4091953376951701e-07  2.3734553244589801e-07  2.3392126161467478e-07  2.3102524172789831e-07  2.2894591934353268e-07  2.2811456802251964e-07  2.2725062768680780e-07  2.2640401952439191e-07  2.2607966314172205e-07  2.2606522626439274e-07  2.2615894209135778e-07  2.2623964643653858e-07  2.2618952923971316e-07  2.2607346228971864e-07  6.9812378127285135e-07  2.2620287250807012e-07  1.0819788063020068e-07  1.0831964369104109e-07  1.0828350089154067e-07  1.0821917757967747e-07  1.0875281427449075e-07  1.1153573985182140e-07  1.1827630653732291e-07  1.2499630745776794e-07  1.3276243723388936e-07  1.4567253557867787e-07  1.6362508184767477e-07  1.8738477102242038e-07  2.1715919803745653e-07  2.5303349948628947e-07  2.9428546059275701e-07  3.3893268638016891e-07  3.8326844837497926e-07  4.2179112576135437e-07  4.4809614616727328e-07  4.5688956055313602e-07  4.4623371817173300e-07  4.1848336593723195e-07  3.7915828295089806e-07  3.3463163284743509e-07  2.9022534736730835e-07  2.4946637070635452e-07  2.1415522447259091e-07  1.8485104662363222e-07  1.6155148872843659e-07  1.4391246540631511e-07  1.3286637637610082e-07  1.2109136978125062e-07  1.1194500335125100e-07  1.0882798283700583e-07  1.0814468491899901e-07  1.0815968249701316e-07  1.0828948132433270e-07  1.0828566816598298e-07  1.0815252241912371e-07  2.2608071316835700e-07  2.2708446695530413e-07  1.0882255264662668e-07  1.0884243469128379e-07  1.1054076678937583e-07  1.1859664082828789e-07  1.3183281798661033e-07  1.6976440569340904e-07  3.6627028272384262e-07  6.1394842271642311e-02  1.9264900355640635e-01  3.1570804689172816e-01  4.4004646691919286e-01  5.4707511757086302e-01  6.3613081313109887e-01  7.0893388042783645e-01  7.6664028896856362e-01  8.1044191575902669e-01  8.4204719976497688e-01  8.6307854054498689e-01  8.7476663770249252e-01  8.7786714524806475e-01  8.7261981688362056e-01  8.5873390409102279e-01  8.3540698678385095e-01  8.0137538609435000e-01  7.5501070788737445e-01  6.9463406180734721e-01  6.1910071749810480e-01  5.2740260259089855e-01  4.1824149803937383e-01  2.9389837181236178e-01  1.6973555247569092e-01  4.0262510843461156e-02  3.4351428616241615e-07  1.7421605312870000e-07  1.2879534915906244e-07  1.1099483374399536e-07  1.0860299570719131e-07  1.0879437203606132e-07  1.0865302263968145e-07  2.2639446782637692e-07  2.3049417197427846e-07  1.1080371048151934e-07  1.1458153587022701e-07  1.3426644755552420e-07  3.4564139041435510e-07  2.1310028036483972e-01  5.3625604272384497e-01  8.7684374753146199e-01  9.9999917606673949e-01  9.9999969891815821e-01  9.9999980195677973e-01  9.9999984514815565e-01  9.9999986814554720e-01  9.9999988230971026e-01  9.9999989160389025e-01  9.9999989792618549e-01  9.9999990225273849e-01  9.9999990514832937e-01  9.9999990695486296e-01  9.9999990787436499e-01  9.9999990800993777e-01  9.9999990738398969e-01  9.9999990594116028e-01  9.9999990353899115e-01  9.9999989992271965e-01  9.9999989467114203e-01  9.9999988708540555e-01  9.9999987594637429e-01  9.9999985890111664e-01  9.9999983066875464e-01  9.9999977652096272e-01  9.9999963240598166e-01  9.9999876911932295e-01  8.3607615944299796e-01  4.9619259937099169e-01  1.5980899767242651e-01  3.6017977423012743e-07  1.3166082619792373e-07  1.0991690687611048e-07  1.1054083600610025e-07  2.2768699449212275e-07  2.4269962296496955e-07  1.1622765922446891e-07  1.9001303509270491e-07  2.5301114314284967e-01  9.6926762696874180e-01  9.9999979264340932e-01  9.9999990123828220e-01  9.9999993008932253e-01  9.9999994419278049e-01  9.9999995341739567e-01  9.9999995947475750e-01  9.9999996328503105e-01  9.9999996587012085e-01  9.9999996771798561e-01  9.9999996907336619e-01  9.9999997007606722e-01  9.9999997081034775e-01  9.9999997133116436e-01  9.9999997167517563e-01  9.9999997186618383e-01  9.9999997191770262e-01  9.9999997183413392e-01  9.9999997161110199e-01  9.9999997123508100e-01  9.9999997068210655e-01  9.9999996991490914e-01  9.9999996887691289e-01  9.9999996747963771e-01  9.9999996557593041e-01  9.9999996290180215e-01  9.9999995894105842e-01  9.9999995260045205e-01  9.9999994138288817e-01  9.9999992141632843e-01  9.9999988004747842e-01  9.9999972942209781e-01  8.8013092765452261e-01  2.2810594943985274e-01  1.9174979992683461e-07  1.1527522926917529e-07  2.3208380162674196e-07  2.4549708099595374e-07  1.9960870967261629e-07  8.1122458769402295e-01  9.9999989210862050e-01  9.9999995166224653e-01  9.9999996797044821e-01  9.9999997663134810e-01  9.9999998108643151e-01  9.9999998362587661e-01  9.9999998515779953e-01  9.9999998609757745e-01  9.9999998668846801e-01  9.9999998707788795e-01  9.9999998734967277e-01  9.9999998754882269e-01  9.9999998769896836e-01  9.9999998781210542e-01  9.9999998789463151e-01  9.9999998795011469e-01  9.9999998798067435e-01  9.9999998798752010e-01  9.9999998797114975e-01  9.9999998793139688e-01  9.9999998786739619e-01  9.9999998777739230e-01  9.9999998765818321e-01  9.9999998750377028e-01  9.9999998730247130e-01  9.9999998703132764e-01  9.9999998664602963e-01  9.9999998606423435e-01  9.9999998514088662e-01  9.9999998363142406e-01  9.9999998109602584e-01  9.9999997654984274e-01  9.9999996719662809e-01  9.9999994319130592e-01  9.9999985240714373e-01  6.2251876740645740e-01  1.6524247939506253e-07  2.7082036818394474e-07  1.2890289763060846e-05  9.9999983141645443e-01  9.9999997006722363e-01  9.9999998571262227e-01  9.9999999099480852e-01  9.9999999327347855e-01  9.9999999429294506e-01  9.9999999474675993e-01  9.9999999492911640e-01  9.9999999497053371e-01  9.9999999493501823e-01  9.9999999486136237e-01  9.9999999477597590e-01  9.9999999469507606e-01  9.9999999462665112e-01  9.9999999457297217e-01  9.9999999453315513e-01  9.9999999450503607e-01  9.9999999448629462e-01  9.9999999447507515e-01  9.9999999447024968e-01  9.9999999447152121e-01  9.9999999447945176e-01  9.9999999449545096e-01  9.9999999452169752e-01  9.9999999456089916e-01  9.9999999461573685e-01  9.9999999468780576e-01  9.9999999477587687e-01  9.9999999487350422e-01  9.9999999496639658e-01  9.9999999503020631e-01  9.9999999502710502e-01  9.9999999489215985e-01  9.9999999449174071e-01  9.9999999352436209e-01  9.9999999122990457e-01  9.9999998515750532e-01  9.9999996303480432e-01  9.9999869729570956e-01  2.7108876411006070e-07  9.9999998688224623e-01  9.9999999797267114e-01  1.0000000004636271e+00  1.0000000012712380e+00  1.0000000012904704e+00  1.0000000009898928e+00  1.0000000005647731e+00  1.0000000001116800e+00  9.9999999967959563e-01  9.9999999928970795e-01  9.9999999894855995e-01  9.9999999865635292e-01  9.9999999841137444e-01  9.9999999821080743e-01  9.9999999805073458e-01  9.9999999792640115e-01  9.9999999783278970e-01  9.9999999776518611e-01  9.9999999771963155e-01  9.9999999769319814e-01  9.9999999768412706e-01  9.9999999769188863e-01  9.9999999771720116e-01  9.9999999776202719e-01  9.9999999782953475e-01  9.9999999792398575e-01  9.9999999805050288e-01  9.9999999821467478e-01  9.9999999842201981e-01  9.9999999867743250e-01  9.9999999898480418e-01  9.9999999934675732e-01  9.9999999976351817e-01  1.0000000002288818e+00  1.0000000007219016e+00  1.0000000011948957e+00  1.0000000015537105e+00  1.0000000016095196e+00  1.0000000008984513e+00  9.9999999797002925e-01  9.9999994783586332e-01  1.0000000047423294e+00  1.0000000067144614e+00  1.0000000062800958e+00  1.0000000056344536e+00  1.0000000048857676e+00  1.0000000040986916e+00  1.0000000033292846e+00  1.0000000026177469e+00  1.0000000019863311e+00  1.0000000014427037e+00  1.0000000009846119e+00  1.0000000006047063e+00  1.0000000002940519e+00  1.0000000000437248e+00  9.9999999984536858e-01  9.9999999969136932e-01  9.9999999957498797e-01  9.9999999949051410e-01  9.9999999943340512e-01  9.9999999940038331e-01  9.9999999938948958e-01  9.9999999940010853e-01  9.9999999943297713e-01  9.9999999949018581e-01  9.9999999957516705e-01  9.9999999969265929e-01  9.9999999984863364e-01  1.0000000000501801e+00  1.0000000003053635e+00  1.0000000006230594e+00  1.0000000010126850e+00  1.0000000014835098e+00  1.0000000020429134e+00  1.0000000026929312e+00  1.0000000034254255e+00  1.0000000042172572e+00  1.0000000050270210e+00  1.0000000057954181e+00  1.0000000064459504e+00  1.0000000068851682e+00  1.0000000025697362e+00  1.0000000070378072e+00  1.0000000082366236e+00  1.0000000077591900e+00  1.0000000070780355e+00  1.0000000062721743e+00  1.0000000054138880e+00  1.0000000045684416e+00  1.0000000037822889e+00  1.0000000030827514e+00  1.0000000024805289e+00  1.0000000019744799e+00  1.0000000015567949e+00  1.0000000012169599e+00  1.0000000009441361e+00  1.0000000007282952e+00  1.0000000005606284e+00  1.0000000004336598e+00  1.0000000003412690e+00  1.0000000002786988e+00  1.0000000002425593e+00  1.0000000002308291e+00  1.0000000002428548e+00  1.0000000002793514e+00  1.0000000003424045e+00  1.0000000004354757e+00  1.0000000005634069e+00  1.0000000007324283e+00  1.0000000009501591e+00  1.0000000012255863e+00  1.0000000015689350e+00  1.0000000019912123e+00  1.0000000025030193e+00  1.0000000031121097e+00  1.0000000038193604e+00  1.0000000046136204e+00  1.0000000054663802e+00  1.0000000063292167e+00  1.0000000071360631e+00  1.0000000078100477e+00  1.0000000082697988e+00  1.0000000066412265e+00  1.0000000073800361e+00  1.0000000085333940e+00  1.0000000080977312e+00  1.0000000074497182e+00  1.0000000066562762e+00  1.0000000057944860e+00  1.0000000049347071e+00  1.0000000041288508e+00  1.0000000034084671e+00  1.0000000027867304e+00  1.0000000022637843e+00  1.0000000018321735e+00  1.0000000014811332e+00  1.0000000011993253e+00  1.0000000009762320e+00  1.0000000008026944e+00  1.0000000006710406e+00  1.0000000005750680e+00  1.0000000005099985e+00  1.0000000004724434e+00  1.0000000004603808e+00  1.0000000004731409e+00  1.0000000005113994e+00  1.0000000005771796e+00  1.0000000006738599e+00  1.0000000008061944e+00  1.0000000009803467e+00  1.0000000012039356e+00  1.0000000014860595e+00  1.0000000018371773e+00  1.0000000022685860e+00  1.0000000027910452e+00  1.0000000034120546e+00  1.0000000041315733e+00  1.0000000049365645e+00  1.0000000057956107e+00  1.0000000066568804e+00  1.0000000074500128e+00  1.0000000080978726e+00  1.0000000085334613e+00  1.0000000073800848e+00  1.0000000066409207e+00  1.0000000082691189e+00  1.0000000078078142e+00  1.0000000071310575e+00  1.0000000063199876e+00  1.0000000054514300e+00  1.0000000045916735e+00  1.0000000037896344e+00  1.0000000030744578e+00  1.0000000024578377e+00  1.0000000019391468e+00  1.0000000015105841e+00  1.0000000011613634e+00  1.0000000008803340e+00  1.0000000006572605e+00  1.0000000004832783e+00  1.0000000003509744e+00  1.0000000002543521e+00  1.0000000001887841e+00  1.0000000001509808e+00  1.0000000001389682e+00  1.0000000001520764e+00  1.0000000001909297e+00  1.0000000002574421e+00  1.0000000003548151e+00  1.0000000004875438e+00  1.0000000006614367e+00  1.0000000008836560e+00  1.0000000011627614e+00  1.0000000015086639e+00  1.0000000019322501e+00  1.0000000024441957e+00  1.0000000030524414e+00  1.0000000037580874e+00  1.0000000045501893e+00  1.0000000054010842e+00  1.0000000062640035e+00  1.0000000070734760e+00  1.0000000077571580e+00  1.0000000082360680e+00  1.0000000070376709e+00  1.0000000025677589e+00  1.0000000068821102e+00  1.0000000064374353e+00  1.0000000057791503e+00  1.0000000050003865e+00  1.0000000041775814e+00  1.0000000033704532e+00  1.0000000026213647e+00  1.0000000019547168e+00  1.0000000013796584e+00  1.0000000008944532e+00  1.0000000004913794e+00  1.0000000001606566e+00  9.9999999989260013e-01  9.9999999967844821e-01  9.9999999951055096e-01  9.9999999938238515e-01  9.9999999928856076e-01  9.9999999922484384e-01  9.9999999918818294e-01  9.9999999917672622e-01  9.9999999918982685e-01  9.9999999922803751e-01  9.9999999929309313e-01  9.9999999938788187e-01  9.9999999951640017e-01  9.9999999968370068e-01  9.9999999989584076e-01  1.0000000001598770e+00  1.0000000004838949e+00  1.0000000008769390e+00  1.0000000013483843e+00  1.0000000019059734e+00  1.0000000025518836e+00  1.0000000032778062e+00  1.0000000040606161e+00  1.0000000048593873e+00  1.0000000056177232e+00  1.0000000062709884e+00  1.0000000067110710e+00  1.0000000047413884e+00  9.9999994775890411e-01  9.9999999793627925e-01  1.0000000008506593e+00  1.0000000015474273e+00  1.0000000014731036e+00  1.0000000010912109e+00  1.0000000005912917e+00  1.0000000000693037e+00  9.9999999957541963e-01  9.9999999913237436e-01  9.9999999874636480e-01  9.9999999841591836e-01  9.9999999813726204e-01  9.9999999790620797e-01  9.9999999771840697e-01  9.9999999756938263e-01  9.9999999745474066e-01  9.9999999737046819e-01  9.9999999731320177e-01  9.9999999728041855e-01  9.9999999727054589e-01  9.9999999728301237e-01  9.9999999731825029e-01  9.9999999737766376e-01  9.9999999746354473e-01  9.9999999757892610e-01  9.9999999772734094e-01  9.9999999791249350e-01  9.9999999813793905e-01  9.9999999840681775e-01  9.9999999872199041e-01  9.9999999908610016e-01  9.9999999950013940e-01  9.9999999995779032e-01  1.0000000004366099e+00  1.0000000008857610e+00  1.0000000012071402e+00  1.0000000012047381e+00  1.0000000004099834e+00  9.9999999793243333e-01  9.9999998686348934e-01  2.7064008499808733e-07  9.9999856285532662e-01  9.9999996240147926e-01  9.9999998477809526e-01  9.9999999090669800e-01  9.9999999319642796e-01  9.9999999413477725e-01  9.9999999449526134e-01  9.9999999458892530e-01  9.9999999455444710e-01  9.9999999445539212e-01  9.9999999432582898e-01  9.9999999418817942e-01  9.9999999405737861e-01  9.9999999394200056e-01  9.9999999384585170e-01  9.9999999376976401e-01  9.9999999371304493e-01  9.9999999367445347e-01  9.9999999365278947e-01  9.9999999364720804e-01  9.9999999365735870e-01  9.9999999368341319e-01  9.9999999372600623e-01  9.9999999378606053e-01  9.9999999386443916e-01  9.9999999396127326e-01  9.9999999407492579e-01  9.9999999420038321e-01  9.9999999432719122e-01  9.9999999443807286e-01  9.9999999450759081e-01  9.9999999450055854e-01  9.9999999435423947e-01  9.9999999393423034e-01  9.9999999293807418e-01  9.9999999066015099e-01  9.9999998537694657e-01  9.9999996955665860e-01  9.9999982731244341e-01  1.0190284638274585e-05  2.6932403446872696e-07  1.6335118116394051e-07  5.9074731020258386e-01  9.9999984636784478e-01  9.9999994081214161e-01  9.9999996552484438e-01  9.9999997516871297e-01  9.9999997978959798e-01  9.9999998233584653e-01  9.9999998383899680e-01  9.9999998473827956e-01  9.9999998527229816e-01  9.9999998558985281e-01  9.9999998578186755e-01  9.9999998590106864e-01  9.9999998597725892e-01  9.9999998602726770e-01  9.9999998606067120e-01  9.9999998608296103e-01  9.9999998609724872e-01  9.9999998610512097e-01  9.9999998610700980e-01  9.9999998610228535e-01  9.9999998608914198e-01  9.9999998606421947e-01  9.9999998602177498e-01  9.9999998595191930e-01  9.9999998583758709e-01  9.9999998564821679e-01  9.9999998533039425e-01  9.9999998479096031e-01  9.9999998387420330e-01  9.9999998234220189e-01  9.9999997977737742e-01  9.9999997523474515e-01  9.9999996651560696e-01  9.9999994987202312e-01  9.9999988708391585e-01  7.6851598118123909e-01  1.9626337955427794e-07  2.4537400779168978e-07  2.3081245237410612e-07  1.1466593332042626e-07  1.8941601684093273e-07  1.9933599296385415e-01  8.0781226143962270e-01  9.9999969188176785e-01  9.9999986900086568e-01  9.9999991322588022e-01  9.9999993410810273e-01  9.9999994653164770e-01  9.9999995342088011e-01  9.9999995756885129e-01  9.9999996024886917e-01  9.9999996207444442e-01  9.9999996335945707e-01  9.9999996427860294e-01  9.9999996493642429e-01  9.9999996539858271e-01  9.9999996570721894e-01  9.9999996588880447e-01  9.9999996595806329e-01  9.9999996591974682e-01  9.9999996576916006e-01  9.9999996549170977e-01  9.9999996506131561e-01  9.9999996443697692e-01  9.9999996355558574e-01  9.9999996231833899e-01  9.9999996055931739e-01  9.9999995798985908e-01  9.9999995402972663e-01  9.9999994746816367e-01  9.9999993826847344e-01  9.9999992378608804e-01  9.9999989119893395e-01  9.9999976273796032e-01  8.8826386001473956e-01  2.2049222119677392e-01  1.8644152532919998e-07  1.1546995590825195e-07  2.4109402401691571e-07  2.2693975211154677e-07  1.0978192354063239e-07  1.1027220718254572e-07  1.3165824950865705e-07  3.2855409176702034e-07  1.1140877489849967e-01  4.0570370654176269e-01  6.9441808706765773e-01  9.5786894200621941e-01  9.9999938734945426e-01  9.9999968336712752e-01  9.9999977047435284e-01  9.9999981149992323e-01  9.9999983489235011e-01  9.9999984956808141e-01  9.9999985929294943e-01  9.9999986589749379e-01  9.9999987037915539e-01  9.9999987331753371e-01  9.9999987506009902e-01  9.9999987579840688e-01  9.9999987560553261e-01  9.9999987445084149e-01  9.9999987219294539e-01  9.9999986855359291e-01  9.9999986305513011e-01  9.9999985487052234e-01  9.9999984249299789e-01  9.9999982283008226e-01  9.9999978909652043e-01  9.9999971970903512e-01  9.9999951485401695e-01  9.9999601169094809e-01  7.2496137730079013e-01  4.5138659201717346e-01  1.5412866514366494e-01  3.0970856507718696e-07  1.3386531312052481e-07  1.1475842059185259e-07  1.1024379696969201e-07  2.2937367616653223e-07  2.2611377606461180e-07  1.0832618554124917e-07  1.0887683958399252e-07  1.0953363860302392e-07  1.1245100246295347e-07  1.2881012165993588e-07  1.6688305417852793e-07  2.7210893285979838e-07  1.4235284229125946e-06  5.7741314716315287e-02  1.4572608804330375e-01  2.1767127659859881e-01  2.8900711201029061e-01  3.5009795567677404e-01  3.9737466994177389e-01  4.3421075681767918e-01  4.6269233609152854e-01  4.8366308743723796e-01  4.9782261528253946e-01  5.0611036330197390e-01  5.0934524306317319e-01  5.0783242883735147e-01  5.0139443765551972e-01  4.8939700321425345e-01  4.7082838562907137e-01  4.4463056073602236e-01  4.0974820723297828e-01  3.6472802478315314e-01  3.0734635566821050e-01  2.3638348030900591e-01  1.5706398013419270e-01  7.8300048299059566e-02  2.8203474701220121e-06  2.7448874335476250e-07  1.6178301359602588e-07  1.3169040957845043e-07  1.1981119653287212e-07  1.1144888045326850e-07  1.0901041354932379e-07  1.0848271663780483e-07  2.2650618623291841e-07  2.2608920827000408e-07  1.0812920264837174e-07  1.0842203425217425e-07  1.0883419125941736e-07  1.0920248930861640e-07  1.0953681841139883e-07  1.1035281057927249e-07  1.1282682766719916e-07  1.1886591047974614e-07  1.2756713568257341e-07  1.3506302027794308e-07  1.4405881934089549e-07  1.5541184661300001e-07  1.6766169008211333e-07  1.8006016134639120e-07  1.9180912212393607e-07  2.0232873397966361e-07  2.1107614780845966e-07  2.1763975937438283e-07  2.2174048890786386e-07  2.2323743972563534e-07  2.2207829116223908e-07  2.1828880220132491e-07  2.1199189207795039e-07  2.0343014104012485e-07  1.9299984587609768e-07  1.8126033558692620e-07  1.6888316310976284e-07  1.5659745257506658e-07  1.4509440148483686e-07  1.3527565474551688e-07  1.2766409092316621e-07  1.2359615698049665e-07  1.1843055448728397e-07  1.1273679662243302e-07  1.1022909026656726e-07  1.0929498599189001e-07  1.0887481109411059e-07  1.0847322094383654e-07  1.0815347371588106e-07  2.2606655076556653e-07  2.2618140834933060e-07  1.0819222750649305e-07  1.0836112518711329e-07  1.0859290036254886e-07  1.0883697742804100e-07  1.0906775723336646e-07  1.0931753496978634e-07  1.0956826925006909e-07  1.097051929