<?xml version="1.0"?>
<VTKFile type="UnstructuredGrid"  version="0.1"  >
<UnstructuredGrid>
<Piece  NumberOfPoints="1681" NumberOfCells="3200">
<Points>
<DataArray  type="Float64"  NumberOfComponents="3"  format="ascii">0 0 0  0.025 0 0  0.05 0 0  0.075 0 0  0.1 0 0  0.125 0 0  0.15 0 0  0.175 0 0  0.2 0 0  0.225 0 0  0.25 0 0  0.275 0 0  0.3 0 0  0.325 0 0  0.35 0 0  0.375 0 0  0.4 0 0  0.425 0 0  0.45 0 0  0.475 0 0  0.5 0 0  0.525 0 0  0.55 0 0  0.575 0 0  0.6 0 0  0.625 0 0  0.65 0 0  0.675 0 0  0.7 0 0  0.725 0 0  0.75 0 0  0.775 0 0  0.8 0 0  0.825 0 0  0.85 0 0  0.875 0 0  0.9 0 0  0.925 0 0  0.95 0 0  0.975 0 0  1 0 0  0 0.025 0  0.025 0.025 0  0.05 0.025 0  0.075 0.025 0  0.1 0.025 0  0.125 0.025 0  0.15 0.025 0  0.175 0.025 0  0.2 0.025 0  0.225 0.025 0  0.25 0.025 0  0.275 0.025 0  0.3 0.025 0  0.325 0.025 0  0.35 0.025 0  0.375 0.025 0  0.4 0.025 0  0.425 0.025 0  0.45 0.025 0  0.475 0.025 0  0.5 0.025 0  0.525 0.025 0  0.55 0.025 0  0.575 0.025 0  0.6 0.025 0  0.625 0.025 0  0.65 0.025 0  0.675 0.025 0  0.7 0.025 0  0.725 0.025 0  0.75 0.025 0  0.775 0.025 0  0.8 0.025 0  0.825 0.025 0  0.85 0.025 0  0.875 0.025 0  0.9 0.025 0  0.925 0.025 0  0.95 0.025 0  0.975 0.025 0  1 0.025 0  0 0.05 0  0.025 0.05 0  0.05 0.05 0  0.075 0.05 0  0.1 0.05 0  0.125 0.05 0  0.15 0.05 0  0.175 0.05 0  0.2 0.05 0  0.225 0.05 0  0.25 0.05 0  0.275 0.05 0  0.3 0.05 0  0.325 0.05 0  0.35 0.05 0  0.375 0.05 0  0.4 0.05 0  0.425 0.05 0  0.45 0.05 0  0.475 0.05 0  0.5 0.05 0  0.525 0.05 0  0.55 0.05 0  0.575 0.05 0  0.6 0.05 0  0.625 0.05 0  0.65 0.05 0  0.675 0.05 0  0.7 0.05 0  0.725 0.05 0  0.75 0.05 0  0.775 0.05 0  0.8 0.05 0  0.825 0.05 0  0.85 0.05 0  0.875 0.05 0  0.9 0.05 0  0.925 0.05 0  0.95 0.05 0  0.975 0.05 0  1 0.05 0  0 0.075 0  0.025 0.075 0  0.05 0.075 0  0.075 0.075 0  0.1 0.075 0  0.125 0.075 0  0.15 0.075 0  0.175 0.075 0  0.2 0.075 0  0.225 0.075 0  0.25 0.075 0  0.275 0.075 0  0.3 0.075 0  0.325 0.075 0  0.35 0.075 0  0.375 0.075 0  0.4 0.075 0  0.425 0.075 0  0.45 0.075 0  0.475 0.075 0  0.5 0.075 0  0.525 0.075 0  0.55 0.075 0  0.575 0.075 0  0.6 0.075 0  0.625 0.075 0  0.65 0.075 0  0.675 0.075 0  0.7 0.075 0  0.725 0.075 0  0.75 0.075 0  0.775 0.075 0  0.8 0.075 0  0.825 0.075 0  0.85 0.075 0  0.875 0.075 0  0.9 0.075 0  0.925 0.075 0  0.95 0.075 0  0.975 0.075 0  1 0.075 0  0 0.1 0  0.025 0.1 0  0.05 0.1 0  0.075 0.1 0  0.1 0.1 0  0.125 0.1 0  0.15 0.1 0  0.175 0.1 0  0.2 0.1 0  0.225 0.1 0  0.25 0.1 0  0.275 0.1 0  0.3 0.1 0  0.325 0.1 0  0.35 0.1 0  0.375 0.1 0  0.4 0.1 0  0.425 0.1 0  0.45 0.1 0  0.475 0.1 0  0.5 0.1 0  0.525 0.1 0  0.55 0.1 0  0.575 0.1 0  0.6 0.1 0  0.625 0.1 0  0.65 0.1 0  0.675 0.1 0  0.7 0.1 0  0.725 0.1 0  0.75 0.1 0  0.775 0.1 0  0.8 0.1 0  0.825 0.1 0  0.85 0.1 0  0.875 0.1 0  0.9 0.1 0  0.925 0.1 0  0.95 0.1 0  0.975 0.1 0  1 0.1 0  0 0.125 0  0.025 0.125 0  0.05 0.125 0  0.075 0.125 0  0.1 0.125 0  0.125 0.125 0  0.15 0.125 0  0.175 0.125 0  0.2 0.125 0  0.225 0.125 0  0.25 0.125 0  0.275 0.125 0  0.3 0.125 0  0.325 0.125 0  0.35 0.125 0  0.375 0.125 0  0.4 0.125 0  0.425 0.125 0  0.45 0.125 0  0.475 0.125 0  0.5 0.125 0  0.525 0.125 0  0.55 0.125 0  0.575 0.125 0  0.6 0.125 0  0.625 0.125 0  0.65 0.125 0  0.675 0.125 0  0.7 0.125 0  0.725 0.125 0  0.75 0.125 0  0.775 0.125 0  0.8 0.125 0  0.825 0.125 0  0.85 0.125 0  0.875 0.125 0  0.9 0.125 0  0.925 0.125 0  0.95 0.125 0  0.975 0.125 0  1 0.125 0  0 0.15 0  0.025 0.15 0  0.05 0.15 0  0.075 0.15 0  0.1 0.15 0  0.125 0.15 0  0.15 0.15 0  0.175 0.15 0  0.2 0.15 0  0.225 0.15 0  0.25 0.15 0  0.275 0.15 0  0.3 0.15 0  0.325 0.15 0  0.35 0.15 0  0.375 0.15 0  0.4 0.15 0  0.425 0.15 0  0.45 0.15 0  0.475 0.15 0  0.5 0.15 0  0.525 0.15 0  0.55 0.15 0  0.575 0.15 0  0.6 0.15 0  0.625 0.15 0  0.65 0.15 0  0.675 0.15 0  0.7 0.15 0  0.725 0.15 0  0.75 0.15 0  0.775 0.15 0  0.8 0.15 0  0.825 0.15 0  0.85 0.15 0  0.875 0.15 0  0.9 0.15 0  0.925 0.15 0  0.95 0.15 0  0.975 0.15 0  1 0.15 0  0 0.175 0  0.025 0.175 0  0.05 0.175 0  0.075 0.175 0  0.1 0.175 0  0.125 0.175 0  0.15 0.175 0  0.175 0.175 0  0.2 0.175 0  0.225 0.175 0  0.25 0.175 0  0.275 0.175 0  0.3 0.175 0  0.325 0.175 0  0.35 0.175 0  0.375 0.175 0  0.4 0.175 0  0.425 0.175 0  0.45 0.175 0  0.475 0.175 0  0.5 0.175 0  0.525 0.175 0  0.55 0.175 0  0.575 0.175 0  0.6 0.175 0  0.625 0.175 0  0.65 0.175 0  0.675 0.175 0  0.7 0.175 0  0.725 0.175 0  0.75 0.175 0  0.775 0.175 0  0.8 0.175 0  0.825 0.175 0  0.85 0.175 0  0.875 0.175 0  0.9 0.175 0  0.925 0.175 0  0.95 0.175 0  0.975 0.175 0  1 0.175 0  0 0.2 0  0.025 0.2 0  0.05 0.2 0  0.075 0.2 0  0.1 0.2 0  0.125 0.2 0  0.15 0.2 0  0.175 0.2 0  0.2 0.2 0  0.225 0.2 0  0.25 0.2 0  0.275 0.2 0  0.3 0.2 0  0.325 0.2 0  0.35 0.2 0  0.375 0.2 0  0.4 0.2 0  0.425 0.2 0  0.45 0.2 0  0.475 0.2 0  0.5 0.2 0  0.525 0.2 0  0.55 0.2 0  0.575 0.2 0  0.6 0.2 0  0.625 0.2 0  0.65 0.2 0  0.675 0.2 0  0.7 0.2 0  0.725 0.2 0  0.75 0.2 0  0.775 0.2 0  0.8 0.2 0  0.825 0.2 0  0.85 0.2 0  0.875 0.2 0  0.9 0.2 0  0.925 0.2 0  0.95 0.2 0  0.975 0.2 0  1 0.2 0  0 0.225 0  0.025 0.225 0  0.05 0.225 0  0.075 0.225 0  0.1 0.225 0  0.125 0.225 0  0.15 0.225 0  0.175 0.225 0  0.2 0.225 0  0.225 0.225 0  0.25 0.225 0  0.275 0.225 0  0.3 0.225 0  0.325 0.225 0  0.35 0.225 0  0.375 0.225 0  0.4 0.225 0  0.425 0.225 0  0.45 0.225 0  0.475 0.225 0  0.5 0.225 0  0.525 0.225 0  0.55 0.225 0  0.575 0.225 0  0.6 0.225 0  0.625 0.225 0  0.65 0.225 0  0.675 0.225 0  0.7 0.225 0  0.725 0.225 0  0.75 0.225 0  0.775 0.225 0  0.8 0.225 0  0.825 0.225 0  0.85 0.225 0  0.875 0.225 0  0.9 0.225 0  0.925 0.225 0  0.95 0.225 0  0.975 0.225 0  1 0.225 0  0 0.25 0  0.025 0.25 0  0.05 0.25 0  0.075 0.25 0  0.1 0.25 0  0.125 0.25 0  0.15 0.25 0  0.175 0.25 0  0.2 0.25 0  0.225 0.25 0  0.25 0.25 0  0.275 0.25 0  0.3 0.25 0  0.325 0.25 0  0.35 0.25 0  0.375 0.25 0  0.4 0.25 0  0.425 0.25 0  0.45 0.25 0  0.475 0.25 0  0.5 0.25 0  0.525 0.25 0  0.55 0.25 0  0.575 0.25 0  0.6 0.25 0  0.625 0.25 0  0.65 0.25 0  0.675 0.25 0  0.7 0.25 0  0.725 0.25 0  0.75 0.25 0  0.775 0.25 0  0.8 0.25 0  0.825 0.25 0  0.85 0.25 0  0.875 0.25 0  0.9 0.25 0  0.925 0.25 0  0.95 0.25 0  0.975 0.25 0  1 0.25 0  0 0.275 0  0.025 0.275 0  0.05 0.275 0  0.075 0.275 0  0.1 0.275 0  0.125 0.275 0  0.15 0.275 0  0.175 0.275 0  0.2 0.275 0  0.225 0.275 0  0.25 0.275 0  0.275 0.275 0  0.3 0.275 0  0.325 0.275 0  0.35 0.275 0  0.375 0.275 0  0.4 0.275 0  0.425 0.275 0  0.45 0.275 0  0.475 0.275 0  0.5 0.275 0  0.525 0.275 0  0.55 0.275 0  0.575 0.275 0  0.6 0.275 0  0.625 0.275 0  0.65 0.275 0  0.675 0.275 0  0.7 0.275 0  0.725 0.275 0  0.75 0.275 0  0.775 0.275 0  0.8 0.275 0  0.825 0.275 0  0.85 0.275 0  0.875 0.275 0  0.9 0.275 0  0.925 0.275 0  0.95 0.275 0  0.975 0.275 0  1 0.275 0  0 0.3 0  0.025 0.3 0  0.05 0.3 0  0.075 0.3 0  0.1 0.3 0  0.125 0.3 0  0.15 0.3 0  0.175 0.3 0  0.2 0.3 0  0.225 0.3 0  0.25 0.3 0  0.275 0.3 0  0.3 0.3 0  0.325 0.3 0  0.35 0.3 0  0.375 0.3 0  0.4 0.3 0  0.425 0.3 0  0.45 0.3 0  0.475 0.3 0  0.5 0.3 0  0.525 0.3 0  0.55 0.3 0  0.575 0.3 0  0.6 0.3 0  0.625 0.3 0  0.65 0.3 0  0.675 0.3 0  0.7 0.3 0  0.725 0.3 0  0.75 0.3 0  0.775 0.3 0  0.8 0.3 0  0.825 0.3 0  0.85 0.3 0  0.875 0.3 0  0.9 0.3 0  0.925 0.3 0  0.95 0.3 0  0.975 0.3 0  1 0.3 0  0 0.325 0  0.025 0.325 0  0.05 0.325 0  0.075 0.325 0  0.1 0.325 0  0.125 0.325 0  0.15 0.325 0  0.175 0.325 0  0.2 0.325 0  0.225 0.325 0  0.25 0.325 0  0.275 0.325 0  0.3 0.325 0  0.325 0.325 0  0.35 0.325 0  0.375 0.325 0  0.4 0.325 0  0.425 0.325 0  0.45 0.325 0  0.475 0.325 0  0.5 0.325 0  0.525 0.325 0  0.55 0.325 0  0.575 0.325 0  0.6 0.325 0  0.625 0.325 0  0.65 0.325 0  0.675 0.325 0  0.7 0.325 0  0.725 0.325 0  0.75 0.325 0  0.775 0.325 0  0.8 0.325 0  0.825 0.325 0  0.85 0.325 0  0.875 0.325 0  0.9 0.325 0  0.925 0.325 0  0.95 0.325 0  0.975 0.325 0  1 0.325 0  0 0.35 0  0.025 0.35 0  0.05 0.35 0  0.075 0.35 0  0.1 0.35 0  0.125 0.35 0  0.15 0.35 0  0.175 0.35 0  0.2 0.35 0  0.225 0.35 0  0.25 0.35 0  0.275 0.35 0  0.3 0.35 0  0.325 0.35 0  0.35 0.35 0  0.375 0.35 0  0.4 0.35 0  0.425 0.35 0  0.45 0.35 0  0.475 0.35 0  0.5 0.35 0  0.525 0.35 0  0.55 0.35 0  0.575 0.35 0  0.6 0.35 0  0.625 0.35 0  0.65 0.35 0  0.675 0.35 0  0.7 0.35 0  0.725 0.35 0  0.75 0.35 0  0.775 0.35 0  0.8 0.35 0  0.825 0.35 0  0.85 0.35 0  0.875 0.35 0  0.9 0.35 0  0.925 0.35 0  0.95 0.35 0  0.975 0.35 0  1 0.35 0  0 0.375 0  0.025 0.375 0  0.05 0.375 0  0.075 0.375 0  0.1 0.375 0  0.125 0.375 0  0.15 0.375 0  0.175 0.375 0  0.2 0.375 0  0.225 0.375 0  0.25 0.375 0  0.275 0.375 0  0.3 0.375 0  0.325 0.375 0  0.35 0.375 0  0.375 0.375 0  0.4 0.375 0  0.425 0.375 0  0.45 0.375 0  0.475 0.375 0  0.5 0.375 0  0.525 0.375 0  0.55 0.375 0  0.575 0.375 0  0.6 0.375 0  0.625 0.375 0  0.65 0.375 0  0.675 0.375 0  0.7 0.375 0  0.725 0.375 0  0.75 0.375 0  0.775 0.375 0  0.8 0.375 0  0.825 0.375 0  0.85 0.375 0  0.875 0.375 0  0.9 0.375 0  0.925 0.375 0  0.95 0.375 0  0.975 0.375 0  1 0.375 0  0 0.4 0  0.025 0.4 0  0.05 0.4 0  0.075 0.4 0  0.1 0.4 0  0.125 0.4 0  0.15 0.4 0  0.175 0.4 0  0.2 0.4 0  0.225 0.4 0  0.25 0.4 0  0.275 0.4 0  0.3 0.4 0  0.325 0.4 0  0.35 0.4 0  0.375 0.4 0  0.4 0.4 0  0.425 0.4 0  0.45 0.4 0  0.475 0.4 0  0.5 0.4 0  0.525 0.4 0  0.55 0.4 0  0.575 0.4 0  0.6 0.4 0  0.625 0.4 0  0.65 0.4 0  0.675 0.4 0  0.7 0.4 0  0.725 0.4 0  0.75 0.4 0  0.775 0.4 0  0.8 0.4 0  0.825 0.4 0  0.85 0.4 0  0.875 0.4 0  0.9 0.4 0  0.925 0.4 0  0.95 0.4 0  0.975 0.4 0  1 0.4 0  0 0.425 0  0.025 0.425 0  0.05 0.425 0  0.075 0.425 0  0.1 0.425 0  0.125 0.425 0  0.15 0.425 0  0.175 0.425 0  0.2 0.425 0  0.225 0.425 0  0.25 0.425 0  0.275 0.425 0  0.3 0.425 0  0.325 0.425 0  0.35 0.425 0  0.375 0.425 0  0.4 0.425 0  0.425 0.425 0  0.45 0.425 0  0.475 0.425 0  0.5 0.425 0  0.525 0.425 0  0.55 0.425 0  0.575 0.425 0  0.6 0.425 0  0.625 0.425 0  0.65 0.425 0  0.675 0.425 0  0.7 0.425 0  0.725 0.425 0  0.75 0.425 0  0.775 0.425 0  0.8 0.425 0  0.825 0.425 0  0.85 0.425 0  0.875 0.425 0  0.9 0.425 0  0.925 0.425 0  0.95 0.425 0  0.975 0.425 0  1 0.425 0  0 0.45 0  0.02
[...]
<PointData  Scalars="ControlVisualisation"> 
<DataArray  type="Float64"  Name="ControlVisualisation"  format="ascii">-9.6388180377235083e-09  -9.7580026012863200e-09  -9.7578521281261902e-09  -9.7575651152999387e-09  -9.7571368634641023e-09  -9.7565997611547621e-09  -9.7560139097303002e-09  -9.7554414226740566e-09  -9.7549270041983091e-09  -9.7544926357830929e-09  -9.7541420431982549e-09  -9.7538680621706253e-09  -9.7536588350148809e-09  -9.7535017430697336e-09  -9.7533854272682440e-09  -9.7533005654768127e-09  -9.7532399530434019e-09  -9.7531982614437402e-09  -9.7531717267082573e-09  -9.7531579024561974e-09  -9.7531555082702192e-09  -9.7531643571921485e-09  -9.7531853488659371e-09  -9.7532205256896959e-09  -9.7532731929015355e-09  -9.7533481059692726e-09  -9.7534517236973181e-09  -9.7535924717037494e-09  -9.7537808300002895e-09  -9.7540288904785971e-09  -9.7543488818269722e-09  -9.7547499902286561e-09  -9.7552330604195981e-09  -9.7557838710094359e-09  -9.7563664960655576e-09  -9.7569256892895186e-09  -9.7573996709406729e-09  -9.7577443978159570e-09  -9.7579492963748669e-09  -9.7580382605651282e-09  -9.2985723225775213e-09  -9.7580070058886783e-09  -9.8786150947008908e-09  -9.8784627879121048e-09  -9.8781585485485454e-09  -9.8776885563745962e-09  -9.8770844768859252e-09  -9.8764122219519831e-09  -9.8757438074090001e-09  -9.8751341905906655e-09  -9.8746129848899197e-09  -9.8741879934892184e-09  -9.8738531352204529e-09  -9.8735957229478197e-09  -9.8734013790427463e-09  -9.8732567354121836e-09  -9.8731506043555064e-09  -9.8730742267779149e-09  -9.8730210471609187e-09  -9.8729863546297927e-09  -9.8729669896034940e-09  -9.8729611646010333e-09  -9.8729683719749207e-09  -9.8729893596746656e-09  -9.8730261779871674e-09  -9.8730822945578777e-09  -9.8731627728446092e-09  -9.8732745317022429e-09  -9.8734266616120769e-09  -9.8736306172442534e-09  -9.8738999138006788e-09  -9.8742487970986784e-09  -9.8746891478365555e-09  -9.8752252156637565e-09  -9.8758458297887052e-09  -9.8765168489292184e-09  -9.8771809340726409e-09  -9.8777651347138243e-09  -9.8782083271174035e-09  -9.8784880720783324e-09  -9.8786277131466453e-09  -9.7580388421317327e-09  -9.7579093362842954e-09  -9.8784972450069671e-09  -9.8782822929720632e-09  -9.8778866241315198e-09  -9.8772904350340251e-09  -9.8765534089475842e-09  -9.8757652362024047e-09  -9.8750082662317131e-09  -9.8743364484697458e-09  -9.8737733679380677e-09  -9.8733204825368720e-09  -9.8729668482482766e-09  -9.8726965064444543e-09  -9.8724929668954120e-09  -9.8723415324018031e-09  -9.8722302526497726e-09  -9.8721499973091919e-09  -9.8720940128096470e-09  -9.8720573897144466e-09  -9.8720367504448941e-09  -9.8720301394069459e-09  -9.8720369648878084e-09  -9.8720579658850889e-09  -9.8720952569571866e-09  -9.8721524363118984e-09  -9.8722347159594633e-09  -9.8723491494734552e-09  -9.8725050628286965e-09  -9.8727145338428640e-09  -9.8729924573154251e-09  -9.8733556448599776e-09  -9.8738202348308635e-09  -9.8743970903058374e-09  -9.8750823914695565e-09  -9.8758514159737650e-09  -9.8766428653116781e-09  -9.8773675969073002e-09  -9.8779348564801502e-09  -9.8783123356232208e-09  -9.8785194944874858e-09  -9.7579673264608625e-09  -9.7578043627724066e-09  -9.8783275638067233e-09  -9.8779814954653048e-09  -9.8773928301162159e-09  -9.8766160217061570e-09  -9.8757664331059140e-09  -9.8749472695459632e-09  -9.8742242694706330e-09  -9.8736223639187903e-09  -9.8731406067589857e-09  -9.8727652370665784e-09  -9.8724783465249002e-09  -9.8722620697841012e-09  -9.8721004731910925e-09  -9.8719803882679396e-09  -9.8718917655455511e-09  -9.8718275667914185e-09  -9.8717828363167652e-09  -9.8717536943466969e-09  -9.8717372015892601e-09  -9.8717316321827963e-09  -9.8717364927167105e-09  -9.8717523946217257e-09  -9.8717810688761718e-09  -9.8718255427057266e-09  -9.8718901613760425e-09  -9.8719804412931302e-09  -9.8721035416205543e-09  -9.8722693902212252e-09  -9.8724914622251911e-09  -9.8727868047280568e-09  -9.8731751155149434e-09  -9.8736767866203494e-09  -9.8743046270909996e-09  -9.8750641366854615e-09  -9.8758909063602300e-09  -9.8767610707722096e-09  -9.8775098596980881e-09  -9.8780693694627564e-09  -9.8783993669559137e-09  -9.7578586531143474e-09  -9.7579166439549106e-09  -9.8782460570458656e-09  -9.8770308030861459e-09  -9.8749249003440128e-09  -9.8724061871583033e-09  -9.8699609443255245e-09  -9.8679736989600712e-09  -9.8665099203020207e-09  -9.8654915995452381e-09  -9.8647998151552988e-09  -9.8643331293553993e-09  -9.8640182927727268e-09  -9.8638050625318340e-09  -9.8636592106653777e-09  -9.8635572191547643e-09  -9.8634838670525086e-09  -9.8634313370321420e-09  -9.8633952499064755e-09  -9.8633710087543497e-09  -9.8633545965590884e-09  -9.8633440588393579e-09  -9.8633390789379559e-09  -9.8633400992617409e-09  -9.8633484822644492e-09  -9.8633679768193786e-09  -9.8634050442074308e-09  -9.8634672018704675e-09  -9.8635645582761497e-09  -9.8637150206987042e-09  -9.8639489871233573e-09  -9.8643142989285074e-09  -9.8648823716675171e-09  -9.8657548613235476e-09  -9.8670590430421287e-09  -9.8689335387099823e-09  -9.8713012599141588e-09  -9.8741334402822143e-09  -9.8761338810416770e-09  -9.8772733549431172e-09  -9.8781359975762230e-09  -9.7578024332005552e-09  -9.7461807708406027e-09  -9.8713067334672690e-09  -9.8582297802197112e-09  -9.8397207514937908e-09  -9.8050086692479761e-09  -9.7584241807043115e-09  -9.7048082407036024e-09  -9.6536898667617079e-09  -9.6118950140524949e-09  -9.5818943342165465e-09  -9.5624522107442524e-09  -9.5508773211506819e-09  -9.5444732340536556e-09  -9.5411348263996918e-09  -9.5394088921793497e-09  -9.5384358869336457e-09  -9.5379281853084032e-09  -9.5377753973124706e-09  -9.5376872890127935e-09  -9.5374079926199515e-09  -9.5368974689095829e-09  -9.5361892456463368e-09  -9.5352759148546841e-09  -9.5341465388089948e-09  -9.5329374840370652e-09  -9.5319479595924708e-09  -9.5314144110054685e-09  -9.5316334125783776e-09  -9.5334626421650440e-09  -9.5385441868117770e-09  -9.5493379188015839e-09  -9.5690053742355486e-09  -9.6006983459327794e-09  -9.6456930659732495e-09  -9.7009621505408841e-09  -9.7565634654454852e-09  -9.8062172627683360e-09  -9.8339207022405396e-09  -9.8625967400458111e-09  -9.8759780005957684e-09  -9.7563194768874313e-09  -9.7316252223605022e-09  -9.7928838678298605e-09  6.5471135163241490e-02  2.6541655737414904e-01  3.8950594337127026e-01  4.8641206178919200e-01  5.4798919488578279e-01  5.8627707637191329e-01  6.0862054161089352e-01  6.2114004406086476e-01  6.2782153290277021e-01  6.3117101717407709e-01  6.3268324529916353e-01  6.3322595200936183e-01  6.3329236388879540e-01  6.3315895193819383e-01  6.3297940031978173e-01  6.3283902522731650e-01  6.3278513587521212e-01  6.3284420306020439e-01  6.3303121885632252e-01  6.3335391056244406e-01  6.3381386586919053e-01  6.3440490011027473e-01  6.3510803111110703e-01  6.3588156924948913e-01  6.3664282850932574e-01  6.3723561737654566e-01  6.3737463198920608e-01  6.3655064316767340e-01  6.3387323521109484e-01  6.2782260774887977e-01  6.1587469447349674e-01  5.9403553710896173e-01  5.5619947450090879e-01  4.9471981691234135e-01  3.9688094109090383e-01  2.6823613335706703e-01  5.0935477149085646e-02  -9.8066922615272814e-09  -9.7439756181185144e-09  9.8790703167973770e-01  8.8792112829413250e-01  1.0000000095285664e+00  1.0000000097219510e+00  1.0000000097565018e+00  1.0000000097716981e+00  1.0000000097774124e+00  1.0000000097800685e+00  1.0000000097809163e+00  1.0000000097808666e+00  1.0000000097803803e+00  1.0000000097797166e+00  1.0000000097790169e+00  1.0000000097783657e+00  1.0000000097778106e+00  1.0000000097773762e+00  1.0000000097770656e+00  1.0000000097768538e+00  1.0000000097767214e+00  1.0000000097766804e+00  1.0000000097767447e+00  1.0000000097769133e+00  1.0000000097771820e+00  1.0000000097775517e+00  1.0000000097780217e+00  1.0000000097785795e+00  1.0000000097792052e+00  1.0000000097798925e+00  1.0000000097806283e+00  1.0000000097813471e+00  1.0000000097819106e+00  1.0000000097820883e+00  1.0000000097815138e+00  1.0000000097796005e+00  1.0000000097753698e+00  1.0000000097668995e+00  1.0000000097498623e+00  1.0000000097056729e+00  1.0000000095487347e+00  1.0000000082666718e+00  3.5061351446560446e-01  1.0000000099218911e+00  1.0000000099481279e+00  1.0000000099422808e+00  1.0000000099353872e+00  1.0000000099303226e+00  1.0000000099264177e+00  1.0000000099236088e+00  1.0000000099217015e+00  1.0000000099204132e+00  1.0000000099195334e+00  1.0000000099189157e+00  1.0000000099184687e+00  1.0000000099181365e+00  1.0000000099178850e+00  1.0000000099176929e+00  1.0000000099175474e+00  1.0000000099174398e+00  1.0000000099173643e+00  1.0000000099173172e+00  1.0000000099172965e+00  1.0000000099173016e+00  1.0000000099173318e+00  1.0000000099173874e+00  1.0000000099174695e+00  1.0000000099175801e+00  1.0000000099177226e+00  1.0000000099179029e+00  1.0000000099181301e+00  1.0000000099184185e+00  1.0000000099187918e+00  1.0000000099192896e+00  1.0000000099199802e+00  1.0000000099209767e+00  1.0000000099224589e+00  1.0000000099246857e+00  1.0000000099279656e+00  1.0000000099325155e+00  1.0000000099382391e+00  1.0000000099446138e+00  1.0000000099506299e+00  1.0000000098844903e+00  1.0000000099612847e+00  1.0000000099769975e+00  1.0000000099719100e+00  1.0000000099658606e+00  1.0000000099601962e+00  1.0000000099555877e+00  1.0000000099522068e+00  1.0000000099498989e+00  1.0000000099483888e+00  1.0000000099474191e+00  1.0000000099467949e+00  1.0000000099463853e+00  1.0000000099461086e+00  1.0000000099459154e+00  1.0000000099457771e+00  1.0000000099456765e+00  1.0000000099456039e+00  1.0000000099455528e+00  1.0000000099455200e+00  1.0000000099455031e+00  1.0000000099455009e+00  1.0000000099455129e+00  1.0000000099455393e+00  1.0000000099455810e+00  1.0000000099456403e+00  1.0000000099457209e+00  1.0000000099458288e+00  1.0000000099459747e+00  1.0000000099461761e+00  1.0000000099464630e+00  1.0000000099468871e+00  1.0000000099475341e+00  1.0000000099485422e+00  1.0000000099501163e+00  1.0000000099525248e+00  1.0000000099560389e+00  1.0000000099607866e+00  1.0000000099665400e+00  1.0000000099725319e+00  1.0000000099773771e+00  1.0000000099551187e+00  1.0000000099663409e+00  1.0000000099814863e+00  1.0000000099771658e+00  1.0000000099716675e+00  1.0000000099662223e+00  1.0000000099616462e+00  1.0000000099582262e+00  1.0000000099558692e+00  1.0000000099543274e+00  1.0000000099533448e+00  1.0000000099527206e+00  1.0000000099523179e+00  1.0000000099520503e+00  1.0000000099518662e+00  1.0000000099517354e+00  1.0000000099516406e+00  1.0000000099515718e+00  1.0000000099515229e+00  1.0000000099514903e+00  1.0000000099514721e+00  1.0000000099514665e+00  1.0000000099514732e+00  1.0000000099514925e+00  1.0000000099515252e+00  1.0000000099515733e+00  1.0000000099516408e+00  1.0000000099517339e+00  1.0000000099518629e+00  1.0000000099520456e+00  1.0000000099523125e+00  1.0000000099527149e+00  1.0000000099533393e+00  1.0000000099543220e+00  1.0000000099558644e+00  1.0000000099582218e+00  1.0000000099616431e+00  1.0000000099662203e+00  1.0000000099716668e+00  1.0000000099771655e+00  1.0000000099814861e+00  1.0000000099663402e+00  1.0000000099551234e+00  1.0000000099773834e+00  1.0000000099725372e+00  1.0000000099665334e+00  1.0000000099607655e+00  1.0000000099560082e+00  1.0000000099524891e+00  1.0000000099500770e+00  1.0000000099485000e+00  1.0000000099474893e+00  1.0000000099468391e+00  1.0000000099464119e+00  1.0000000099461208e+00  1.0000000099459148e+00  1.0000000099457635e+00  1.0000000099456507e+00  1.0000000099455666e+00  1.0000000099455051e+00  1.0000000099454627e+00  1.0000000099454369e+00  1.0000000099454263e+00  1.0000000099454300e+00  1.0000000099454480e+00  1.0000000099454818e+00  1.0000000099455331e+00  1.0000000099456061e+00  1.0000000099457074e+00  1.0000000099458468e+00  1.0000000099460418e+00  1.0000000099463211e+00  1.0000000099467339e+00  1.0000000099473614e+00  1.0000000099483339e+00  1.0000000099498476e+00  1.0000000099521600e+00  1.0000000099555479e+00  1.0000000099601691e+00  1.0000000099658508e+00  1.0000000099719144e+00  1.0000000099770026e+00  1.0000000099612862e+00  1.0000000098844968e+00  1.0000000099507045e+00  1.0000000099446857e+00  1.0000000099382433e+00  1.0000000099324584e+00  1.0000000099278681e+00  1.0000000099245594e+00  1.0000000099223090e+00  1.0000000099208064e+00  1.0000000099197923e+00  1.0000000099190853e+00  1.0000000099185720e+00  1.0000000099181827e+00  1.0000000099178779e+00  1.0000000099176338e+00  1.0000000099174384e+00  1.0000000099172839e+00  1.0000000099171658e+00  1.0000000099170796e+00  1.0000000099170230e+00  1.0000000099169939e+00  1.0000000099169910e+00  1.0000000099170143e+00  1.0000000099170649e+00  1.0000000099171451e+00  1.0000000099172590e+00  1.0000000099174124e+00  1.0000000099176145e+00  1.0000000099178785e+00  1.0000000099182249e+00  1.0000000099186879e+00  1.0000000099193225e+00  1.0000000099202195e+00  1.0000000099215267e+00  1.0000000099234578e+00  1.0000000099262965e+00  1.0000000099302475e+00  1.0000000099353779e+00  1.0000000099422861e+00  1.0000000099481507e+00  1.0000000099219144e+00  3.5478874434703417e-01  1.0000000083720888e+00  1.0000000095523891e+00  1.0000000097064072e+00  1.0000000097498087e+00  1.0000000097665247e+00  1.0000000097746919e+00  1.0000000097787127e+00  1.0000000097804871e+00  1.0000000097809623e+00  1.0000000097806947e+00  1.0000000097800312e+00  1.0000000097791897e+00  1.0000000097782915e+00  1.0000000097774233e+00  1.0000000097766653e+00  1.0000000097760549e+00  1.0000000097755806e+00  1.0000000097752204e+00  1.0000000097749659e+00  1.0000000097748087e+00  1.0000000097747392e+00  1.0000000097747577e+00  1.0000000097748765e+00  1.0000000097751085e+00  1.0000000097754655e+00  1.0000000097759625e+00  1.0000000097766015e+00  1.0000000097773509e+00  1.0000000097781536e+00  1.0000000097789290e+00  1.0000000097795241e+00  1.0000000097796566e+00  1.0000000097788850e+00  1.0000000097763639e+00  1.0000000097707809e+00  1.0000000097559765e+00  1.0000000097207113e+00  1.0000000095339336e+00  8.9576585006668397e-01  9.8826164663897298e-01  -9.7420779865204026e-09  -9.7920331821477185e-09  6.3874393473664082e-02  2.7554513249329882e-01  4.0170627063073039e-01  4.9640324258442164e-01  5.5598962942973762e-01  5.9240699848061329e-01  6.1318153994212665e-01  6.2426955056034272e-01  6.2959677706123740e-01  6.3165105927235965e-01  6.3193531542782899e-01  6.3133178797039669e-01  6.3034509205711819e-01  6.2925646949367497e-01  6.2821841470416662e-01  6.2731088763627929e-01  6.2657352641536335e-01  6.2602361108311899e-01  6.2566609028457743e-01  6.2549887307478447e-01  6.2551472459618129e-01  6.2570014651486305e-01  6.2603082596979875e-01  6.2646224210580681e-01  6.2691235614080043e-01  6.2723073918225247e-01  6.2714448476954920e-01  6.2616513455113054e-01  6.2343291656844646e-01  6.1746915758295373e-01  6.0580253660758576e-01  5.8451449607396577e-01  5.4763072014261005e-01  4.8793481756584967e-01  3.9409549365484575e-01  2.7248973307860208e-01  7.8629398928745708e-02  -9.7839036437053905e-09  -9.7302786460529576e-09  -9.7558190887982110e-09  -9.8722534155128314e-09  -9.8511397133062638e-09  -9.8190189604697925e-09  -9.7889012283706199e-09  -9.7361415243470082e-09  -9.6794671001936481e-09  -9.6265685070057191e-09  -9.5866566603446354e-09  -9.5613212216169097e-09  -9.5479430899085477e-09  -9.5425740947146680e-09  -9.5418159056702151e-09  -9.5433822052137120e-09  -9.5460414070892272e-09  -9.5490002197545306e-09  -9.5516185256973427e-09  -9.5536668029107315e-09  -9.5552633850004905e-09  -9.5564803156478805e-09  -9.5572424499082437e-09  -9.5575105759769625e-09  -9.5573357932044419e-09  -9.5567665641136782e-09  -9.5558441949254368e-09  -9.5546781549487364e-09  -9.5534449352935608e-09  -9.5523999264881052e-09  -9.5521383581373053e-09  -9.5539496564856291e-09  -9.5599329206316639e-09  -9.5730263594208560e-09  -9.5968425725202305e-09  -9.6341221773890210e-09  -9.6835618362742258e-09  -9.7384532398424858e-09  -9.7881706843568478e-09  -9.8266241077987467e-09  -9.8487973256528305e-09  -9.8663891546303532e-09  -9.7463368115011903e-09  -9.7542454616967513e-09  -9.8735858401858122e-09  -9.8700121504251127e-09  -9.8676164880189733e-09  -9.8650973258783378e-09  -9.8629571564738951e-09  -9.8620128171494344e-09  -9.8616977050107827e-09  -9.8618038318683073e-09  -9.8621144629859632e-09  -9.8625053203844598e-09  -9.8629049846041950e-09  -9.8632766473241783e-09  -9.8636039777323419e-09  -9.8638820260584197e-09  -9.8641099545051525e-09  -9.8642889552655275e-09  -9.8644236018335046e-09  -9.8645198236825913e-09  -9.8645811897949833e-09  -9.8646084757093932e-09  -9.8646015611520611e-09  -9.8645600527121851e-09  -9.8644825840744454e-09  -9.8643666664040868e-09  -9.8642089873954701e-09  -9.8640051856030553e-09  -9.8637497616085356e-09  -9.8634376751972930e-09  -9.8630670900168683e-09  -9.8626420310409008e-09  -9.8621779826766457e-09  -9.8617157491195990e-09  -9.8613441801215101e-09  -9.8612288273221974e-09  -9.8616288601509264e-09  -9.8629027133154001e-09  -9.8653336350133144e-09  -9.8691066918514155e-09  -9.8736142610744130e-09  -9.7549710467521996e-09  -9.7540565394497198e-09  -9.8738640780042163e-09  -9.8721450354564738e-09  -9.8709588290293292e-09  -9.8702357543840936e-09  -9.8700406859217927e-09  -9.8702478225455798e-09  -9.8706008129828773e-09  -9.8710161219504433e-09  -9.8714189366027097e-09  -9.8717814082078192e-09  -9.8720942453247885e-09  -9.8723579089473122e-09  -9.8725764232971275e-09  -9.8727545606741029e-09  -9.8728965629059063e-09  -9.8730061552799629e-09  -9.8730869714510487e-09  -9.8731423344932041e-09  -9.8731746956926203e-09  -9.8731854620820057e-09  -9.8731751772668249e-09  -9.8731436051934117e-09  -9.8730896513166182e-09  -9.8730113237317890e-09  -9.8729057419136352e-09  -9.8727691030157973e-09  -9.8725967207504533e-09  -9.8723833305098327e-09  -9.8721235823014570e-09  -9.8718127744272983e-09  -9.8714488524024182e-09  -9.8710374735660554e-09  -9.8706019895186208e-09  -9.8701997550070980e-09  -9.8699441156787490e-09  -9.8700111742522303e-09  -9.8705898160751131e-09  -9.8716954009461188e-09  -9.8734602308018167e-09  -9.7539208616119842e-09  -9.7543526653549851e-09  -9.8741764402687996e-09  -9.8730856561955581e-09  -9.8725899919442933e-09  -9.8722628731501823e-09  -9.8721169606831012e-09  -9.8721524246114055e-09  -9.8723112163868820e-09  -9.8725325969881974e-09  -9.8727689164598082e-09  -9.8729959021294397e-09  -9.8732011719403989e-09  -9.8733801860984495e-09  -9.8735322773992943e-09  -9.8736585463080307e-09  -9.8737607330455787e-09  -9.8738407572210611e-09  -9.8739005541163851e-09  -9.8739419089129581e-09  -9.8739662381407029e-09  -9.8739744438682563e-09  -9.8739668897860356e-09  -9.8739434169387148e-09  -9.8739033421089396e-09  -9.8738454599951269e-09  -9.8737680778676579e-09  -9.8736690948548803e-09  -9.8735461668901526e-09  -9.8733970238372204e-09  -9.8732200155637580e-09  -9.8730150683830592e-09  -9.8727854669116782e-09  -9.8725410073232146e-09  -9.8723028107003236e-09  -9.8721090422674907e-09  -9.8720175306916809e-09  -9.8720955222731992e-09  -9.8723813087722220e-09  -9.8728449205340079e-09  -9.8739489774072903e-09  -9.7540485506440170e-09  -9.7548100227955386e-09  -9.8747514287391820e-09  -9.8739776060993295e-09  -9.8737450347947199e-09  -9.8735736953453052e-09  -9.8734800432125713e-09  -9.8734743135350116e-09  -9.8735375085506779e-09  -9.8736427367210503e-09  -9.8737678522649471e-09  -9.8738968683021989e-09  -9.8740197208326787e-09  -9.8741310259666470e-09  -9.8742283078307414e-09  -9.8743108068250187e-09  -9.8743786824526582e-09  -9.8744325570645784e-09  -9.8744732576642311e-09  -9.8745016353085277e-09  -9.8745184125727874e-09  -9.8745240773530947e-09  -9.8745188337342877e-09  -9.8745025881952502e-09  -9.8744749525691895e-09  -9.8744352681874917e-09  -9.8743826633956275e-09  -9.8743161592444980e-09  -9.8742348483820935e-09  -9.8741381865048831e-09  -9.8740264544480634e-09  -9.8739014784998169