<?xml version="1.0"?>
<VTKFile type="UnstructuredGrid"  version="0.1"  >
<UnstructuredGrid>
<Piece  NumberOfPoints="1681" NumberOfCells="3200">
<Points>
<DataArray  type="Float64"  NumberOfComponents="3"  format="ascii">0 0 0  0.025 0 0  0.05 0 0  0.075 0 0  0.1 0 0  0.125 0 0  0.15 0 0  0.175 0 0  0.2 0 0  0.225 0 0  0.25 0 0  0.275 0 0  0.3 0 0  0.325 0 0  0.35 0 0  0.375 0 0  0.4 0 0  0.425 0 0  0.45 0 0  0.475 0 0  0.5 0 0  0.525 0 0  0.55 0 0  0.575 0 0  0.6 0 0  0.625 0 0  0.65 0 0  0.675 0 0  0.7 0 0  0.725 0 0  0.75 0 0  0.775 0 0  0.8 0 0  0.825 0 0  0.85 0 0  0.875 0 0  0.9 0 0  0.925 0 0  0.95 0 0  0.975 0 0  1 0 0  0 0.025 0  0.025 0.025 0  0.05 0.025 0  0.075 0.025 0  0.1 0.025 0  0.125 0.025 0  0.15 0.025 0  0.175 0.025 0  0.2 0.025 0  0.225 0.025 0  0.25 0.025 0  0.275 0.025 0  0.3 0.025 0  0.325 0.025 0  0.35 0.025 0  0.375 0.025 0  0.4 0.025 0  0.425 0.025 0  0.45 0.025 0  0.475 0.025 0  0.5 0.025 0  0.525 0.025 0  0.55 0.025 0  0.575 0.025 0  0.6 0.025 0  0.625 0.025 0  0.65 0.025 0  0.675 0.025 0  0.7 0.025 0  0.725 0.025 0  0.75 0.025 0  0.775 0.025 0  0.8 0.025 0  0.825 0.025 0  0.85 0.025 0  0.875 0.025 0  0.9 0.025 0  0.925 0.025 0  0.95 0.025 0  0.975 0.025 0  1 0.025 0  0 0.05 0  0.025 0.05 0  0.05 0.05 0  0.075 0.05 0  0.1 0.05 0  0.125 0.05 0  0.15 0.05 0  0.175 0.05 0  0.2 0.05 0  0.225 0.05 0  0.25 0.05 0  0.275 0.05 0  0.3 0.05 0  0.325 0.05 0  0.35 0.05 0  0.375 0.05 0  0.4 0.05 0  0.425 0.05 0  0.45 0.05 0  0.475 0.05 0  0.5 0.05 0  0.525 0.05 0  0.55 0.05 0  0.575 0.05 0  0.6 0.05 0  0.625 0.05 0  0.65 0.05 0  0.675 0.05 0  0.7 0.05 0  0.725 0.05 0  0.75 0.05 0  0.775 0.05 0  0.8 0.05 0  0.825 0.05 0  0.85 0.05 0  0.875 0.05 0  0.9 0.05 0  0.925 0.05 0  0.95 0.05 0  0.975 0.05 0  1 0.05 0  0 0.075 0  0.025 0.075 0  0.05 0.075 0  0.075 0.075 0  0.1 0.075 0  0.125 0.075 0  0.15 0.075 0  0.175 0.075 0  0.2 0.075 0  0.225 0.075 0  0.25 0.075 0  0.275 0.075 0  0.3 0.075 0  0.325 0.075 0  0.35 0.075 0  0.375 0.075 0  0.4 0.075 0  0.425 0.075 0  0.45 0.075 0  0.475 0.075 0  0.5 0.075 0  0.525 0.075 0  0.55 0.075 0  0.575 0.075 0  0.6 0.075 0  0.625 0.075 0  0.65 0.075 0  0.675 0.075 0  0.7 0.075 0  0.725 0.075 0  0.75 0.075 0  0.775 0.075 0  0.8 0.075 0  0.825 0.075 0  0.85 0.075 0  0.875 0.075 0  0.9 0.075 0  0.925 0.075 0  0.95 0.075 0  0.975 0.075 0  1 0.075 0  0 0.1 0  0.025 0.1 0  0.05 0.1 0  0.075 0.1 0  0.1 0.1 0  0.125 0.1 0  0.15 0.1 0  0.175 0.1 0  0.2 0.1 0  0.225 0.1 0  0.25 0.1 0  0.275 0.1 0  0.3 0.1 0  0.325 0.1 0  0.35 0.1 0  0.375 0.1 0  0.4 0.1 0  0.425 0.1 0  0.45 0.1 0  0.475 0.1 0  0.5 0.1 0  0.525 0.1 0  0.55 0.1 0  0.575 0.1 0  0.6 0.1 0  0.625 0.1 0  0.65 0.1 0  0.675 0.1 0  0.7 0.1 0  0.725 0.1 0  0.75 0.1 0  0.775 0.1 0  0.8 0.1 0  0.825 0.1 0  0.85 0.1 0  0.875 0.1 0  0.9 0.1 0  0.925 0.1 0  0.95 0.1 0  0.975 0.1 0  1 0.1 0  0 0.125 0  0.025 0.125 0  0.05 0.125 0  0.075 0.125 0  0.1 0.125 0  0.125 0.125 0  0.15 0.125 0  0.175 0.125 0  0.2 0.125 0  0.225 0.125 0  0.25 0.125 0  0.275 0.125 0  0.3 0.125 0  0.325 0.125 0  0.35 0.125 0  0.375 0.125 0  0.4 0.125 0  0.425 0.125 0  0.45 0.125 0  0.475 0.125 0  0.5 0.125 0  0.525 0.125 0  0.55 0.125 0  0.575 0.125 0  0.6 0.125 0  0.625 0.125 0  0.65 0.125 0  0.675 0.125 0  0.7 0.125 0  0.725 0.125 0  0.75 0.125 0  0.775 0.125 0  0.8 0.125 0  0.825 0.125 0  0.85 0.125 0  0.875 0.125 0  0.9 0.125 0  0.925 0.125 0  0.95 0.125 0  0.975 0.125 0  1 0.125 0  0 0.15 0  0.025 0.15 0  0.05 0.15 0  0.075 0.15 0  0.1 0.15 0  0.125 0.15 0  0.15 0.15 0  0.175 0.15 0  0.2 0.15 0  0.225 0.15 0  0.25 0.15 0  0.275 0.15 0  0.3 0.15 0  0.325 0.15 0  0.35 0.15 0  0.375 0.15 0  0.4 0.15 0  0.425 0.15 0  0.45 0.15 0  0.475 0.15 0  0.5 0.15 0  0.525 0.15 0  0.55 0.15 0  0.575 0.15 0  0.6 0.15 0  0.625 0.15 0  0.65 0.15 0  0.675 0.15 0  0.7 0.15 0  0.725 0.15 0  0.75 0.15 0  0.775 0.15 0  0.8 0.15 0  0.825 0.15 0  0.85 0.15 0  0.875 0.15 0  0.9 0.15 0  0.925 0.15 0  0.95 0.15 0  0.975 0.15 0  1 0.15 0  0 0.175 0  0.025 0.175 0  0.05 0.175 0  0.075 0.175 0  0.1 0.175 0  0.125 0.175 0  0.15 0.175 0  0.175 0.175 0  0.2 0.175 0  0.225 0.175 0  0.25 0.175 0  0.275 0.175 0  0.3 0.175 0  0.325 0.175 0  0.35 0.175 0  0.375 0.175 0  0.4 0.175 0  0.425 0.175 0  0.45 0.175 0  0.475 0.175 0  0.5 0.175 0  0.525 0.175 0  0.55 0.175 0  0.575 0.175 0  0.6 0.175 0  0.625 0.175 0  0.65 0.175 0  0.675 0.175 0  0.7 0.175 0  0.725 0.175 0  0.75 0.175 0  0.775 0.175 0  0.8 0.175 0  0.825 0.175 0  0.85 0.175 0  0.875 0.175 0  0.9 0.175 0  0.925 0.175 0  0.95 0.175 0  0.975 0.175 0  1 0.175 0  0 0.2 0  0.025 0.2 0  0.05 0.2 0  0.075 0.2 0  0.1 0.2 0  0.125 0.2 0  0.15 0.2 0  0.175 0.2 0  0.2 0.2 0  0.225 0.2 0  0.25 0.2 0  0.275 0.2 0  0.3 0.2 0  0.325 0.2 0  0.35 0.2 0  0.375 0.2 0  0.4 0.2 0  0.425 0.2 0  0.45 0.2 0  0.475 0.2 0  0.5 0.2 0  0.525 0.2 0  0.55 0.2 0  0.575 0.2 0  0.6 0.2 0  0.625 0.2 0  0.65 0.2 0  0.675 0.2 0  0.7 0.2 0  0.725 0.2 0  0.75 0.2 0  0.775 0.2 0  0.8 0.2 0  0.825 0.2 0  0.85 0.2 0  0.875 0.2 0  0.9 0.2 0  0.925 0.2 0  0.95 0.2 0  0.975 0.2 0  1 0.2 0  0 0.225 0  0.025 0.225 0  0.05 0.225 0  0.075 0.225 0  0.1 0.225 0  0.125 0.225 0  0.15 0.225 0  0.175 0.225 0  0.2 0.225 0  0.225 0.225 0  0.25 0.225 0  0.275 0.225 0  0.3 0.225 0  0.325 0.225 0  0.35 0.225 0  0.375 0.225 0  0.4 0.225 0  0.425 0.225 0  0.45 0.225 0  0.475 0.225 0  0.5 0.225 0  0.525 0.225 0  0.55 0.225 0  0.575 0.225 0  0.6 0.225 0  0.625 0.225 0  0.65 0.225 0  0.675 0.225 0  0.7 0.225 0  0.725 0.225 0  0.75 0.225 0  0.775 0.225 0  0.8 0.225 0  0.825 0.225 0  0.85 0.225 0  0.875 0.225 0  0.9 0.225 0  0.925 0.225 0  0.95 0.225 0  0.975 0.225 0  1 0.225 0  0 0.25 0  0.025 0.25 0  0.05 0.25 0  0.075 0.25 0  0.1 0.25 0  0.125 0.25 0  0.15 0.25 0  0.175 0.25 0  0.2 0.25 0  0.225 0.25 0  0.25 0.25 0  0.275 0.25 0  0.3 0.25 0  0.325 0.25 0  0.35 0.25 0  0.375 0.25 0  0.4 0.25 0  0.425 0.25 0  0.45 0.25 0  0.475 0.25 0  0.5 0.25 0  0.525 0.25 0  0.55 0.25 0  0.575 0.25 0  0.6 0.25 0  0.625 0.25 0  0.65 0.25 0  0.675 0.25 0  0.7 0.25 0  0.725 0.25 0  0.75 0.25 0  0.775 0.25 0  0.8 0.25 0  0.825 0.25 0  0.85 0.25 0  0.875 0.25 0  0.9 0.25 0  0.925 0.25 0  0.95 0.25 0  0.975 0.25 0  1 0.25 0  0 0.275 0  0.025 0.275 0  0.05 0.275 0  0.075 0.275 0  0.1 0.275 0  0.125 0.275 0  0.15 0.275 0  0.175 0.275 0  0.2 0.275 0  0.225 0.275 0  0.25 0.275 0  0.275 0.275 0  0.3 0.275 0  0.325 0.275 0  0.35 0.275 0  0.375 0.275 0  0.4 0.275 0  0.425 0.275 0  0.45 0.275 0  0.475 0.275 0  0.5 0.275 0  0.525 0.275 0  0.55 0.275 0  0.575 0.275 0  0.6 0.275 0  0.625 0.275 0  0.65 0.275 0  0.675 0.275 0  0.7 0.275 0  0.725 0.275 0  0.75 0.275 0  0.775 0.275 0  0.8 0.275 0  0.825 0.275 0  0.85 0.275 0  0.875 0.275 0  0.9 0.275 0  0.925 0.275 0  0.95 0.275 0  0.975 0.275 0  1 0.275 0  0 0.3 0  0.025 0.3 0  0.05 0.3 0  0.075 0.3 0  0.1 0.3 0  0.125 0.3 0  0.15 0.3 0  0.175 0.3 0  0.2 0.3 0  0.225 0.3 0  0.25 0.3 0  0.275 0.3 0  0.3 0.3 0  0.325 0.3 0  0.35 0.3 0  0.375 0.3 0  0.4 0.3 0  0.425 0.3 0  0.45 0.3 0  0.475 0.3 0  0.5 0.3 0  0.525 0.3 0  0.55 0.3 0  0.575 0.3 0  0.6 0.3 0  0.625 0.3 0  0.65 0.3 0  0.675 0.3 0  0.7 0.3 0  0.725 0.3 0  0.75 0.3 0  0.775 0.3 0  0.8 0.3 0  0.825 0.3 0  0.85 0.3 0  0.875 0.3 0  0.9 0.3 0  0.925 0.3 0  0.95 0.3 0  0.975 0.3 0  1 0.3 0  0 0.325 0  0.025 0.325 0  0.05 0.325 0  0.075 0.325 0  0.1 0.325 0  0.125 0.325 0  0.15 0.325 0  0.175 0.325 0  0.2 0.325 0  0.225 0.325 0  0.25 0.325 0  0.275 0.325 0  0.3 0.325 0  0.325 0.325 0  0.35 0.325 0  0.375 0.325 0  0.4 0.325 0  0.425 0.325 0  0.45 0.325 0  0.475 0.325 0  0.5 0.325 0  0.525 0.325 0  0.55 0.325 0  0.575 0.325 0  0.6 0.325 0  0.625 0.325 0  0.65 0.325 0  0.675 0.325 0  0.7 0.325 0  0.725 0.325 0  0.75 0.325 0  0.775 0.325 0  0.8 0.325 0  0.825 0.325 0  0.85 0.325 0  0.875 0.325 0  0.9 0.325 0  0.925 0.325 0  0.95 0.325 0  0.975 0.325 0  1 0.325 0  0 0.35 0  0.025 0.35 0  0.05 0.35 0  0.075 0.35 0  0.1 0.35 0  0.125 0.35 0  0.15 0.35 0  0.175 0.35 0  0.2 0.35 0  0.225 0.35 0  0.25 0.35 0  0.275 0.35 0  0.3 0.35 0  0.325 0.35 0  0.35 0.35 0  0.375 0.35 0  0.4 0.35 0  0.425 0.35 0  0.45 0.35 0  0.475 0.35 0  0.5 0.35 0  0.525 0.35 0  0.55 0.35 0  0.575 0.35 0  0.6 0.35 0  0.625 0.35 0  0.65 0.35 0  0.675 0.35 0  0.7 0.35 0  0.725 0.35 0  0.75 0.35 0  0.775 0.35 0  0.8 0.35 0  0.825 0.35 0  0.85 0.35 0  0.875 0.35 0  0.9 0.35 0  0.925 0.35 0  0.95 0.35 0  0.975 0.35 0  1 0.35 0  0 0.375 0  0.025 0.375 0  0.05 0.375 0  0.075 0.375 0  0.1 0.375 0  0.125 0.375 0  0.15 0.375 0  0.175 0.375 0  0.2 0.375 0  0.225 0.375 0  0.25 0.375 0  0.275 0.375 0  0.3 0.375 0  0.325 0.375 0  0.35 0.375 0  0.375 0.375 0  0.4 0.375 0  0.425 0.375 0  0.45 0.375 0  0.475 0.375 0  0.5 0.375 0  0.525 0.375 0  0.55 0.375 0  0.575 0.375 0  0.6 0.375 0  0.625 0.375 0  0.65 0.375 0  0.675 0.375 0  0.7 0.375 0  0.725 0.375 0  0.75 0.375 0  0.775 0.375 0  0.8 0.375 0  0.825 0.375 0  0.85 0.375 0  0.875 0.375 0  0.9 0.375 0  0.925 0.375 0  0.95 0.375 0  0.975 0.375 0  1 0.375 0  0 0.4 0  0.025 0.4 0  0.05 0.4 0  0.075 0.4 0  0.1 0.4 0  0.125 0.4 0  0.15 0.4 0  0.175 0.4 0  0.2 0.4 0  0.225 0.4 0  0.25 0.4 0  0.275 0.4 0  0.3 0.4 0  0.325 0.4 0  0.35 0.4 0  0.375 0.4 0  0.4 0.4 0  0.425 0.4 0  0.45 0.4 0  0.475 0.4 0  0.5 0.4 0  0.525 0.4 0  0.55 0.4 0  0.575 0.4 0  0.6 0.4 0  0.625 0.4 0  0.65 0.4 0  0.675 0.4 0  0.7 0.4 0  0.725 0.4 0  0.75 0.4 0  0.775 0.4 0  0.8 0.4 0  0.825 0.4 0  0.85 0.4 0  0.875 0.4 0  0.9 0.4 0  0.925 0.4 0  0.95 0.4 0  0.975 0.4 0  1 0.4 0  0 0.425 0  0.025 0.425 0  0.05 0.425 0  0.075 0.425 0  0.1 0.425 0  0.125 0.425 0  0.15 0.425 0  0.175 0.425 0  0.2 0.425 0  0.225 0.425 0  0.25 0.425 0  0.275 0.425 0  0.3 0.425 0  0.325 0.425 0  0.35 0.425 0  0.375 0.425 0  0.4 0.425 0  0.425 0.425 0  0.45 0.425 0  0.475 0.425 0  0.5 0.425 0  0.525 0.425 0  0.55 0.425 0  0.575 0.425 0  0.6 0.425 0  0.625 0.425 0  0.65 0.425 0  0.675 0.425 0  0.7 0.425 0  0.725 0.425 0  0.75 0.425 0  0.775 0.425 0  0.8 0.425 0  0.825 0.425 0  0.85 0.425 0  0.875 0.425 0  0.9 0.425 0  0.925 0.425 0  0.95 0.425 0  0.975 0.425 0  1 0.425 0  0 0.45 0  0.02
[...]
<PointData  Scalars="ControlVisualisation"> 
<DataArray  type="Float64"  Name="ControlVisualisation"  format="ascii">8.1629470621870884e-02  5.5129056547875414e-02  5.5288215654835715e-02  5.5282135346080730e-02  5.5169016393919558e-02  5.5923973613350698e-02  6.0499316898238155e-02  6.5758322984781820e-02  6.9152363138602874e-02  7.3486253442576935e-02  7.8540481668050471e-02  8.4153266711569641e-02  8.9691291332224671e-02  9.4298853036856631e-02  9.7648737454337303e-02  9.9960010490253132e-02  1.0150407241280156e-01  1.0247374909815106e-01  1.0301864575398079e-01  1.0326316799758070e-01  1.0328824038750091e-01  1.0311008269691621e-01  1.0268400425929651e-01  1.0192533418948287e-01  1.0071510717157524e-01  9.8868760492136318e-02  9.6103175341464273e-02  9.2235067214275421e-02  8.7724444912727614e-02  8.3379147338815643e-02  7.8960877321333639e-02  7.5338190615542089e-02  7.1777717426116536e-02  6.2810723072143138e-02  5.6296836348232626e-02  5.5085090965277604e-02  5.5221812302350029e-02  5.5320795015074059e-02  5.5209874256201788e-02  5.5044768187491898e-02  1.5100776071464711e-01  5.5177300231783098e-02  2.6980846232437981e-02  2.7154922781786738e-02  2.7331943576735275e-02  2.8945161530601966e-02  3.3825794363627676e-02  5.5521858692742745e-02  1.4000234147516252e-01  4.6257525797745208e-01  6.3680157474444821e-01  7.4338369255060532e-01  8.6153061786172824e-01  9.1582701563293223e-01  9.3918231712722222e-01  9.5109637770476507e-01  9.5640752689838326e-01  9.5864997559608911e-01  9.5965802203799799e-01  9.6012115457634151e-01  9.6030637862250801e-01  9.6033151214610313e-01  9.6022682213070398e-01  9.5995844824576038e-01  9.5940545834320390e-01  9.5823839999698146e-01  9.5553161565668487e-01  9.4891817768217668e-01  9.3416445714697849e-01  9.0514907982845982e-01  8.3981785912545581e-01  7.2067429370177438e-01  6.0340311398838531e-01  4.2792685188500229e-01  1.2120231867026689e-01  5.3544211187426693e-02  3.2958057065286275e-02  2.7400715583728801e-02  2.7134164028096441e-02  2.7197063394781885e-02  2.6923298968095845e-02  5.5050282520533567e-02  5.5865111348635033e-02  2.7600032761005269e-02  2.7881064156786241e-02  3.2371495546683476e-02  6.4756131334639588e-02  4.8885611404297352e-01  9.0089765137238775e-01  9.7143373114662457e-01  9.8633211495627160e-01  9.9131000612843057e-01  9.9408553686820700e-01  9.9557634450688426e-01  9.9640936221286658e-01  9.9690750553507168e-01  9.9720325148408473e-01  9.9737793101201400e-01  9.9748147038331592e-01  9.9752015882878176e-01  9.9754111535165890e-01  9.9755140121594332e-01  9.9755400961758289e-01  9.9754978795443527e-01  9.9753750159047339e-01  9.9751373414286915e-01  9.9746842256272994e-01  9.9735552909397773e-01  9.9716537215376810e-01  9.9684264691241042e-01  9.9628397381319977e-01  9.9530180573864335e-01  9.9353628187758647e-01  9.9012106432613889e-01  9.8326412145306075e-01  9.6525618447281147e-01  8.6755803397392450e-01  3.8839783274921769e-01  6.3634379364998217e-02  3.0316415474080642e-02  2.7424268328033630e-02  2.7648087262804939e-02  5.5391393903290675e-02  5.7599783235464115e-02  2.8462497298866664e-02  3.6363759927773409e-02  2.1488244571136811e-01  9.3110425207114544e-01  9.8647511495405382e-01  9.9525016624749130e-01  9.9755853559511631e-01  9.9823891426454470e-01  9.9863596998518933e-01  9.9887916269252719e-01  9.9903353652865345e-01  9.9913268986101544e-01  9.9919549906301741e-01  9.9923451769135752e-01  9.9925826520075933e-01  9.9927237386197310e-01  9.9928074565486935e-01  9.9928560457611038e-01  9.9928804716551978e-01  9.9928888846794550e-01  9.9928838956186761e-01  9.9928626183844060e-01  9.9928162096264483e-01  9.9927290798327872e-01  9.9925798034811431e-01  9.9923312307753454e-01  9.9919233793299855e-01  9.9912701114202140e-01  9.9902427784815118e-01  9.9886391348503645e-01  9.9861005090314781e-01  9.9818987479956878e-01  9.9739932949799881e-01  9.9418370465978678e-01  9.8143926540531912e-01  9.1608176769309135e-01  1.8845035048774023e-01  3.1827383298123388e-02  2.8890261468469194e-02  5.6529595589494074e-02  5.8123723630824103e-02  3.4136270481925711e-02  5.5418974465309234e-01  9.8501113701699539e-01  9.9726981512288027e-01  9.9860019901000585e-01  9.9913702660573211e-01  9.9937615613576514e-01  9.9950060248915551e-01  9.9957513736968873e-01  9.9962137529371886e-01  9.9965154381795207e-01  9.9967117245555115e-01  9.9968334909297474e-01  9.9969038458648940e-01  9.9969411767927097e-01  9.9969590973448874e-01  9.9969667975577725e-01  9.9969701247195453e-01  9.9969725507536167e-01  9.9969758805959374e-01  9.9969806200807509e-01  9.9969860722332504e-01  9.9969901917550386e-01  9.9969891992672055e-01  9.9969769588161783e-01  9.9969441801396464e-01  9.9968776792505620e-01  9.9967600726480144e-01  9.9965694880688549e-01  9.9962758979128463e-01  9.9958256465424555e-01  9.9950993837958857e-01  9.9938077417570970e-01  9.9912547454288037e-01  9.9853064554776372e-01  9.9632713374019299e-01  9.7474270116935346e-01  4.4121561007593868e-01  3.1639408297716790e-02  5.8214494193179013e-02  6.0412305536788516e-02  5.7220257990685730e-01  9.9545230892772130e-01  9.9900484985855886e-01  9.9954627389743911e-01  9.9969603202961876e-01  9.9974651588766583e-01  9.9976580098843548e-01  9.9977509047569990e-01  9.9978115599477446e-01  9.9978573384656000e-01  9.9978908786636700e-01  9.9979118945049694e-01  9.9979210232848914e-01  9.9979207645964319e-01  9.9979148524577699e-01  9.9979068561492768e-01  9.9978994861906489e-01  9.9978945141892295e-01  9.9978929485213452e-01  9.9978952588266312e-01  9.9979015197891752e-01  9.9979114539548719e-01  9.9979243715510691e-01  9.9979390264306278e-01  9.9979534390643499e-01  9.9979648051446213e-01  9.9979697023212966e-01  9.9979648258811071e-01  9.9979481802235071e-01  9.9979199387136564e-01  9.9978816370265167e-01  9.9978322726056512e-01  9.9977574345663367e-01  9.9975964317257193e-01  9.9971253622225920e-01  9.9954536505101366e-01  9.9881833458690161e-01  9.9146346899660054e-01  1.2076657240843514e-01  5.9897570994900479e-02  9.2175070090762168e-01  9.9842824150357723e-01  9.9973769677916025e-01  9.9983485464547217e-01  9.9983250216035024e-01  9.9982153671805862e-01  9.9981388435417939e-01  9.9981009026392575e-01  9.9980895942922410e-01  9.9980936181425051e-01  9.9981034161931193e-01  9.9981122656791144e-01  9.9981165191144505e-01  9.9981152017862929e-01  9.9981092951296757e-01  9.9981008067733967e-01  9.9980918814974318e-01  9.9980842968664041e-01  9.9980792898462534e-01  9.9980776003410832e-01  9.9980795772870046e-01  9.9980852605882053e-01  9.9980944065761579e-01  9.9981064508900253e-01  9.9981204268098500e-01  9.9981348841765905e-01  9.9981478928468004e-01  9.9981572510897743e-01  9.9981610059880999e-01  9.9981582696985072e-01  9.9981501170740250e-01  9.9981402684787368e-01  9.9981353903495973e-01  9.9981450046521447e-01  9.9981812077153909e-01  9.9982578956112023e-01  9.9983802816524792e-01  9.9984372832966262e-01  9.9969982474627128e-01  9.9686516800265002e-01  9.3299478760874105e-02  9.9970274155226180e-01  9.9983042428168789e-01  9.9981181262384045e-01  9.9979830200662356e-01  9.9979024419587226e-01  9.9978809149975956e-01  9.9978978656072426e-01  9.9979353221490597e-01  9.9979803078003437e-01  9.9980240692214373e-01  9.9980610318461438e-01  9.9980882868885357e-01  9.9981051820692335e-01  9.9981128268160191e-01  9.9981134251239279e-01  9.9981095971510603e-01  9.9981038378052989e-01  9.9980981919156620e-01  9.9980941430230097e-01  9.9980926414704363e-01  9.9980941786538602e-01  9.9980988494668743e-01  9.9981063717005292e-01  9.9981160564695259e-01  9.9981267447193212e-01  9.9981367458473291e-01  9.9981438369422937e-01  9.9981453951807975e-01  9.9981387216625772e-01  9.9981215557249303e-01  9.9980926925222835e-01  9.9980525616830618e-01  9.9980036498172253e-01  9.9979507720459082e-01  9.9979014138541089e-01  9.9978665243967835e-01  9.9978622294104480e-01  9.9979137721405653e-01  9.9980634955603986e-01  9.9983995083684418e-01  9.9900983184872794e-01  9.9973862331964658e-01  9.9974803120410427e-01  9.9974565606377708e-01  9.9974681060382808e-01  9.9975097391650702e-01  9.9975802934470226e-01  9.9976691049328781e-01  9.9977634613955757e-01  9.9978527923422689e-01  9.9979300190248133e-01  9.9979914789064928e-01  9.9980362698063696e-01  9.9980655477451719e-01  9.9980818298687579e-01  9.9980883181373781e-01  9.9980883241360485e-01  9.9980848461629934e-01  9.9980803282742847e-01  9.9980765818545736e-01  9.9980748091379135e-01  9.9980756658156478e-01  9.9980793142840652e-01  9.9980854397864460e-01  9.9980932236093290e-01  9.9981012867177799e-01  9.9981076358486631e-01  9.9981096601640074e-01  9.9981042334878811e-01  9.9980879657206501e-01  9.9980576134718746e-01  9.9980106166411242e-01  9.9979457030586361e-01  9.9978635185989639e-01  9.9977672855551525e-01  9.9976634608368609e-01  9.9975621393298786e-01  9.9974765163557822e-01  9.9974202274861068e-01  9.9974021846576033e-01  9.9974866082099489e-01  9.9976670382582711e-01  9.9972649074385023e-01  9.9975597476595202e-01  9.9974036082649198e-01  9.9973483975619126e-01  9.9973715970906485e-01  9.9974497005448648e-01  9.9975571035936917e-01  9.9976727830030288e-01  9.9977818635339744e-01  9.9978754228578703e-01  9.9979493976066269e-01  9.9980032455687118e-01  9.9980387617686106e-01  9.9980591022671950e-01  9.9980680085142437e-01  9.9980692195315191e-01  9.9980660736551652e-01  9.9980612932851720e-01  9.9980569160462285e-01  9.9980543177637926e-01  9.9980542711495135e-01  9.9980569952381049e-01  9.9980621696212257e-01  9.9980689071347717e-01  9.9980756982024421e-01  9.9980803587885292e-01  9.9980800290758509e-01  9.9980712751020173e-01  9.9980503340526450e-01  9.9980135182424656e-01  9.9979577706481626e-01  9.9978813712598325e-01  9.9977848364819399e-01  9.9976720915927075e-01  9.9975519059744145e-01  9.9974393585953691e-01  9.9973566385831614e-01  9.9973320086836037e-01  9.9973927589887956e-01  9.9975742013535362e-01  9.9973118635209746e-01  9.9972880385064145e-01  9.9976898987563967e-01  9.9974553436836877e-01  9.9973508408965417e-01  9.9973529069488254e-01  9.9974265425825559e-01  9.9975366788449216e-01  9.9976570727438263e-01  9.9977704442301996e-01  9.9978669953919042e-01  9.9979425231197794e-01  9.9979966828214817e-01  9.9980315789376584e-01  9.9980506779597778e-01  9.9980579837277228e-01  9.9980574345507167e-01  9.9980525111521101e-01  9.9980460351526923e-01  9.9980401147347309e-01  9.9980361791553585e-01  9.9980350443903310e-01  9.9980369656553492e-01  9.9980416509786463e-01  9.9980482292684525e-01  9.9980551859096001e-01  9.9980602997527324e-01  9.9980606343390854e-01  9.9980526427153615e-01  9.9980324293977596e-01  9.9979961765545378e-01  9.9979407150355226e-01  9.9978642424884334e-01  9.9977672745820867e-01  9.9976539781541063e-01  9.9975339512690220e-01  9.9974242516195311e-01  9.9973510112960595e-01  9.9973493329455543e-01  9.9974542359739471e-01  9.9976892319408761e-01  9.9972876736695615e-01  9.9973137824870173e-01  9.9975805428110109e-01  9.9974097418192887e-01  9.9973605348251504e-01  9.9973942378418790e-01  9.9974818730091708e-01  9.9975948724466324e-01  9.9977116031507884e-01  9.9978179155124092e-01  9.9979060121601748e-01  9.9979728555121428e-01  9.9980187229265594e-01  9.9980460408282612e-01  9.9980584503227232e-01  9.9980600388535490e-01  9.9980547482031545e-01  9.9980459924519538e-01  9.9980364824110979e-01  9.9980282070366622e-01  9.9980225006266199e-01  9.9980201308602656e-01  9.9980213623822367e-01  9.9980259712905128e-01  9.9980332036743835e-01  9.9980416888363088e-01  9.9980493431652562e-01  9.9980533288116191e-01  9.9980501496773044e-01  9.9980359457032086e-01  9.9980069691308149e-01  9.9979601553640252e-01  9.9978937108302945e-01  9.9978077915406804e-01  9.9977054867697024e-01  9.9975942702582954e-01  9.9974875724602696e-01  9.9974056119436394e-01  9.9973743014581140e-01  9.9974187167696449e-01  9.9975647530172884e-01  9.9972657598636983e-01  9.9976739941986426e-01  9.9975070962120671e-01  9.9974498032795056e-01  9.9974914067533460e-01  9.9975637928062311e-01  9.9976566373806508e-01  9.9977565742400687e-01  9.9978518596032506e-01  9.9979343695942746e-01  9.9979995862400106e-01  9.9980459241848552e-01  9.9980740755417052e-01  9.9980864538638137e-01  9.9980865753703951e-01  9.9980783580754740e-01  9.9980654991720952e-01  9.9980510816218804e-01  9.9980374387445370e-01  9.9980262021718891e-01  9.9980184290812213e-01  9.9980147284467635e-01  9.9980153420628037e-01  9.9980201616574060e-01  9.9980286736961410e-01  9.9980398366071221e-01  9.9980519198229190e-01  9.9980623819943304e-01  9.9980679318124221e-01  9.9980648923173399e-01  9.9980498321119537e-01  9.9980202251973871e-01  9.9979748495695941e-01  9.9979139152376861e-01  9.9978392934008886e-01  9.9977553505509387e-01  9.9976698711286327e-01  9.9975938624173544e-01  9.9975380276277626e-01  9.9975046861852723e-01  9.9975015113652244e-01  9.9973903684933174e-01  9.9901346214306530e-01  9.9984815136764771e-01  9.9981947071157851e-01  9.9980728940423713e-01  9.9980359080308556e-01  9.9980429037135798e-01  9.9980697608847824e-01  9.9981023170546102e-01  9.9981321402671308e-01  9.9981542177304483e-01  9.9981657732499907e-01  9.9981660094644786e-01  9.9981560991525409e-01  9.9981387328636906e-01  9.9981172338445867e-01  9.9980946996978082e-01  9.9980735179714897e-01  9.9980552872606798e-01  9.9980409775668866e-01  9.9980311485535089e-01  9.9980261225242839e-01  9.9980260821618383e-01  9.9980310903011560e-01  9.9980410241681550e-01  9.9980554155410861e-01  9.9980731810951551e-01  9.9980923344775419e-01  9.9981099318582800e-01  9.9981225656464556e-01  9.9981274437895462e-01  9.9981234673261887e-01  9.9981116093953648e-01  9.9980943122606625e-01  9.9980747767485689e-01  9.9980577992261210e-01  9.9980520671047213e-01  9.9980729569194560e-01  9.9981410217324351e-01  9.9982524716149290e-01  9.9983971209131672e-01  9.9970527053219949e-01  9.1090618082246513e-02  9.9676927747520616e-01  9.9974041160455573e-01  9.9988100339437158e-01  9.9987342216706843e-01  9.9985906853720286e-01  9.9984870747780730e-01  9.9984176187193119e-01  9.9983698502566731e-01  9.9983339234271151e-01  9.9983022042076808e-01  9.9982696844129237e-01  9.9982347624409207e-01  9.9981986682054680e-01  9.9981638467719880e-01  9.9981325003668509e-01  9.9981059297933494e-01  9.9980845919388639e-01  9.9980684669911235e-01  9.9980574020043422e-01  9.9980513178335728e-01  9.9980503060744208e-01  9.9980546479509558e-01  9.9980647634820097e-01  9.9980810393107855e-01  9.9981034265089186e-01  9.9981308476608100e-01  9.9981606988898652e-01  9.9981894880707134e-01  9.9982149582447732e-01  9.9982382237229372e-01  9.9982646260706409e-01  9.9983017789552153e-01  9.9983567110823901e-01  9.9984353683580807e-01  9.9985444417298031e-01  9.9986751815576147e-01  9.9987186796108329e-01  9.9977935991866829e-01  9.9847195079837059e-01  9.1889973315873430e-01  6.0916260234128203e-02  1.0922438516617909e-01  9.9051945335705982e-01  9.9891071797251807e-01  9.9962684521779177e-01  9.9978294464184747e-01  9.9982184591827883e-01  9.9983014608895038e-01  9.9983007861658568e-01  9.9982793850812857e-01  9.9982523541687318e-01  9.9982208783749416e-01  9.9981857343694092e-01  9.9981499558871245e-01  9.9981171124282875e-01  9.9980895178317597e-01  9.9980677227547843e-01  9.9980510953713086e-01  9.9980386588282333e-01  9.9980296150366066e-01  9.9980235394489592e-01  9.9980204443214038e-01  9.9980207990245551e-01  9.9980255399599915e-01  9.9980359379865757e-01  9.9980532271799016e-01  9.9980773998043859e-01  9.9981053120135377e-01  9.9981309463835544e-01  9.9981494529473158e-01  9.9981611584310870e-01  9.9981717178898100e-01  9.9981830036546371e-01  9.9981766927072613e-01  9.9980763207870427e-01  9.9976792172269879e-01  9.9962991556709457e-01  9.9911337577077286e-01  9.9517341206098120e-01  4.5252324998120563e-01  6.0439650109197274e-02  5.8345179240944206e-02  3.1449372672352933e-02  3.5946445802591342e-01  9.7193987336960441e-01  9.9602142782113434e-01  9.9870389009474692e-01  9.9927739093191947e-01  9.9950814608515515e-01  9.9961533046772777e-01  9.9967283856294420e-01  9.9970566001706473e-01  9.9972534524732437e-01  9.9973734871756181e-01  9.9974481645672042e-01  9.9974971196117135e-01  9.9975317017124543e-01  9.9975571126402674e-01  9.9975751021016568e-01  9.9975861740285066e-01  9.9975905371527218e-01  9.9975883189193315e-01  9.9975796704264097e-01  9.9975648649695936e-01  9.9975443563778721e-01  9.9975186661647064e-01  9.9974885011145664e-01  9.9974523820108507e-01  9.9974021195240803e-01  9.9973170821200730e-01  9.9971707754283212e-01  9.9969373695196351e-01  9.9965786020977709e-01  9.9960196196329942e-01  9.9950136459920347e-01  9.9928647561855433e-01  9.9877364428713489e-01  9.9715928350243055e-01  9.8333475303223017e-01  4.1375694150189429e-01  3.3560467987982699e-02  5.8455728359605240e-02  5.6518234754313487e-02  2.8970845485563560e-02  3.0902267642288837e-02  1.3510909911810662e-01  8.7954754981162153e-01  9.8045233481351568e-01  9.9340891563684275e-01  9.9731539884190135e-01  9.9847957156265466e-01  9.9885822319215645e-01  9.9908429987417213e-01  9.9922727534763567e-01  9.9932158238853719e-01  9.9938566744351132e-01  9.9943027521393846e-01  9.9946186121587943e-01  9.9948424471172481e-01  9.9949973113546653e-01  9.9950978798512990e-01  9.9951533175720664e-01  9.9951685193973649e-01  9.9951450365800321e-01  9.9950816302102952e-01  9.9949740908605145e-01  9.9948143603633932e-01  9.9945907800085332e-01  9.9942843652528712e-01  9.9938606594517310e-01  9.9932366817817242e-01  9.9922967158176557e-01  9.9908710296621717e-01  9.9886713274267047e-01  9.9851016555517569e-01  9.9756654372991105e-01  9.9476920097623189e-01  9.8517855952140254e-01  9.1315023126070971e-01  1.5319276363541348e-01  3.4900026278263593e-02  2.8494162923137445e-02  5.7663006919052080e-02  5.5419926265617786e-02  2.7625400560985551e-02  2.7370080797416659e-02  2.9492860060584818e-02  5.3885505555522559e-02  2.4070918913645914e-01  8.4832317573868765e-01  9.7864473928069184e-01  9.8486115795887441e-01  9.9060250126634408e-01  9.9385443675299479e-01  9.9577747834072783e-01  9.9675525584114055e-01  9.9733611102188091e-01  9.9770290283297358e-01  9.9794189343099138e-01  9.9809841186861226e-01  9.9819940675419450e-01  9.9826215378622996e-01  9.9829681748651244e-01  9.9830861952046923e-01  9.9829913378888857e-01  9.9826680200492868e-01  9.9820696983353241e-01  9.9811103224552700e-01  9.9796440982403078e-01  9.9774173276588574e-01  9.9741283101722678e-01  9.9685639410343418e-01  9.9596356798843100e-01  9.9443867468840397e-01  9.9151700144387656e-01  9.8701256110258817e-01  9.6797204568265216e-01  9.0270787338535508e-01  3.3310735102648198e-01  5.5425718121157520e-02  3.1210849798607315e-02  2.7727607209689378e-02  2.7595521623353755e-02  5.5875266575079803e-02  5.5096606472743448e-02  2.6932963815453424e-02  2.7078000279695202e-02  2.7126246068279077e-02  2.7634674196978418e-02  3.2654897117411125e-02  4.8202461294529778e-02  9.7524722076463427e-02  3.4573967559229002e-01  7.3090966800659418e-01  8.8374807062398297e-01  9.4245396901711753e-01  9.7523045554055576e-01  9.8037862694019540e-01  9.8066812867050757e-01  9.8503148629687209e-01  9.8759926863572434e-01  9.8779148746484891e-01  9.8743956570417535e-01  9.8738436833071808e-01  9.8744940743539777e-01  9.8735991322632033e-01  9.8721358048201913e-01  9.8737383435845250e-01  9.8761385491937947e-01  9.8598491580053194e-01  9.8044611351421818e-01  9.8117909243356671e-01  9.9228372202761328e-01  9.6641396474522601e-01  8.6746441358505022e-01  7.3531602264189022e-01  3.4870368963003806e-01  1.0494362822252487e-01  4.9007886097179751e-02  3.3762574461222432e-02  2.9245145661728283e-02  2.7304839527881340e-02  2.7034213487129380e-02  2.6972223559816801e-02  5.5219065248880178e-02  5.5029450432218713e-02  2.6744602713105615e-02  2.6833555191196685e-02  2.6956045871754038e-02  2.7084992396304786e-02  2.7241036667791936e-02  2.7770209432126804e-02  2.9811087896750719e-02  3.406333109