<?xml version="1.0"?>
<VTKFile type="UnstructuredGrid"  version="0.1"  >
<UnstructuredGrid>
<Piece  NumberOfPoints="1681" NumberOfCells="3200">
<Points>
<DataArray  type="Float64"  NumberOfComponents="3"  format="ascii">0 0 0  0.025 0 0  0.05 0 0  0.075 0 0  0.1 0 0  0.125 0 0  0.15 0 0  0.175 0 0  0.2 0 0  0.225 0 0  0.25 0 0  0.275 0 0  0.3 0 0  0.325 0 0  0.35 0 0  0.375 0 0  0.4 0 0  0.425 0 0  0.45 0 0  0.475 0 0  0.5 0 0  0.525 0 0  0.55 0 0  0.575 0 0  0.6 0 0  0.625 0 0  0.65 0 0  0.675 0 0  0.7 0 0  0.725 0 0  0.75 0 0  0.775 0 0  0.8 0 0  0.825 0 0  0.85 0 0  0.875 0 0  0.9 0 0  0.925 0 0  0.95 0 0  0.975 0 0  1 0 0  0 0.025 0  0.025 0.025 0  0.05 0.025 0  0.075 0.025 0  0.1 0.025 0  0.125 0.025 0  0.15 0.025 0  0.175 0.025 0  0.2 0.025 0  0.225 0.025 0  0.25 0.025 0  0.275 0.025 0  0.3 0.025 0  0.325 0.025 0  0.35 0.025 0  0.375 0.025 0  0.4 0.025 0  0.425 0.025 0  0.45 0.025 0  0.475 0.025 0  0.5 0.025 0  0.525 0.025 0  0.55 0.025 0  0.575 0.025 0  0.6 0.025 0  0.625 0.025 0  0.65 0.025 0  0.675 0.025 0  0.7 0.025 0  0.725 0.025 0  0.75 0.025 0  0.775 0.025 0  0.8 0.025 0  0.825 0.025 0  0.85 0.025 0  0.875 0.025 0  0.9 0.025 0  0.925 0.025 0  0.95 0.025 0  0.975 0.025 0  1 0.025 0  0 0.05 0  0.025 0.05 0  0.05 0.05 0  0.075 0.05 0  0.1 0.05 0  0.125 0.05 0  0.15 0.05 0  0.175 0.05 0  0.2 0.05 0  0.225 0.05 0  0.25 0.05 0  0.275 0.05 0  0.3 0.05 0  0.325 0.05 0  0.35 0.05 0  0.375 0.05 0  0.4 0.05 0  0.425 0.05 0  0.45 0.05 0  0.475 0.05 0  0.5 0.05 0  0.525 0.05 0  0.55 0.05 0  0.575 0.05 0  0.6 0.05 0  0.625 0.05 0  0.65 0.05 0  0.675 0.05 0  0.7 0.05 0  0.725 0.05 0  0.75 0.05 0  0.775 0.05 0  0.8 0.05 0  0.825 0.05 0  0.85 0.05 0  0.875 0.05 0  0.9 0.05 0  0.925 0.05 0  0.95 0.05 0  0.975 0.05 0  1 0.05 0  0 0.075 0  0.025 0.075 0  0.05 0.075 0  0.075 0.075 0  0.1 0.075 0  0.125 0.075 0  0.15 0.075 0  0.175 0.075 0  0.2 0.075 0  0.225 0.075 0  0.25 0.075 0  0.275 0.075 0  0.3 0.075 0  0.325 0.075 0  0.35 0.075 0  0.375 0.075 0  0.4 0.075 0  0.425 0.075 0  0.45 0.075 0  0.475 0.075 0  0.5 0.075 0  0.525 0.075 0  0.55 0.075 0  0.575 0.075 0  0.6 0.075 0  0.625 0.075 0  0.65 0.075 0  0.675 0.075 0  0.7 0.075 0  0.725 0.075 0  0.75 0.075 0  0.775 0.075 0  0.8 0.075 0  0.825 0.075 0  0.85 0.075 0  0.875 0.075 0  0.9 0.075 0  0.925 0.075 0  0.95 0.075 0  0.975 0.075 0  1 0.075 0  0 0.1 0  0.025 0.1 0  0.05 0.1 0  0.075 0.1 0  0.1 0.1 0  0.125 0.1 0  0.15 0.1 0  0.175 0.1 0  0.2 0.1 0  0.225 0.1 0  0.25 0.1 0  0.275 0.1 0  0.3 0.1 0  0.325 0.1 0  0.35 0.1 0  0.375 0.1 0  0.4 0.1 0  0.425 0.1 0  0.45 0.1 0  0.475 0.1 0  0.5 0.1 0  0.525 0.1 0  0.55 0.1 0  0.575 0.1 0  0.6 0.1 0  0.625 0.1 0  0.65 0.1 0  0.675 0.1 0  0.7 0.1 0  0.725 0.1 0  0.75 0.1 0  0.775 0.1 0  0.8 0.1 0  0.825 0.1 0  0.85 0.1 0  0.875 0.1 0  0.9 0.1 0  0.925 0.1 0  0.95 0.1 0  0.975 0.1 0  1 0.1 0  0 0.125 0  0.025 0.125 0  0.05 0.125 0  0.075 0.125 0  0.1 0.125 0  0.125 0.125 0  0.15 0.125 0  0.175 0.125 0  0.2 0.125 0  0.225 0.125 0  0.25 0.125 0  0.275 0.125 0  0.3 0.125 0  0.325 0.125 0  0.35 0.125 0  0.375 0.125 0  0.4 0.125 0  0.425 0.125 0  0.45 0.125 0  0.475 0.125 0  0.5 0.125 0  0.525 0.125 0  0.55 0.125 0  0.575 0.125 0  0.6 0.125 0  0.625 0.125 0  0.65 0.125 0  0.675 0.125 0  0.7 0.125 0  0.725 0.125 0  0.75 0.125 0  0.775 0.125 0  0.8 0.125 0  0.825 0.125 0  0.85 0.125 0  0.875 0.125 0  0.9 0.125 0  0.925 0.125 0  0.95 0.125 0  0.975 0.125 0  1 0.125 0  0 0.15 0  0.025 0.15 0  0.05 0.15 0  0.075 0.15 0  0.1 0.15 0  0.125 0.15 0  0.15 0.15 0  0.175 0.15 0  0.2 0.15 0  0.225 0.15 0  0.25 0.15 0  0.275 0.15 0  0.3 0.15 0  0.325 0.15 0  0.35 0.15 0  0.375 0.15 0  0.4 0.15 0  0.425 0.15 0  0.45 0.15 0  0.475 0.15 0  0.5 0.15 0  0.525 0.15 0  0.55 0.15 0  0.575 0.15 0  0.6 0.15 0  0.625 0.15 0  0.65 0.15 0  0.675 0.15 0  0.7 0.15 0  0.725 0.15 0  0.75 0.15 0  0.775 0.15 0  0.8 0.15 0  0.825 0.15 0  0.85 0.15 0  0.875 0.15 0  0.9 0.15 0  0.925 0.15 0  0.95 0.15 0  0.975 0.15 0  1 0.15 0  0 0.175 0  0.025 0.175 0  0.05 0.175 0  0.075 0.175 0  0.1 0.175 0  0.125 0.175 0  0.15 0.175 0  0.175 0.175 0  0.2 0.175 0  0.225 0.175 0  0.25 0.175 0  0.275 0.175 0  0.3 0.175 0  0.325 0.175 0  0.35 0.175 0  0.375 0.175 0  0.4 0.175 0  0.425 0.175 0  0.45 0.175 0  0.475 0.175 0  0.5 0.175 0  0.525 0.175 0  0.55 0.175 0  0.575 0.175 0  0.6 0.175 0  0.625 0.175 0  0.65 0.175 0  0.675 0.175 0  0.7 0.175 0  0.725 0.175 0  0.75 0.175 0  0.775 0.175 0  0.8 0.175 0  0.825 0.175 0  0.85 0.175 0  0.875 0.175 0  0.9 0.175 0  0.925 0.175 0  0.95 0.175 0  0.975 0.175 0  1 0.175 0  0 0.2 0  0.025 0.2 0  0.05 0.2 0  0.075 0.2 0  0.1 0.2 0  0.125 0.2 0  0.15 0.2 0  0.175 0.2 0  0.2 0.2 0  0.225 0.2 0  0.25 0.2 0  0.275 0.2 0  0.3 0.2 0  0.325 0.2 0  0.35 0.2 0  0.375 0.2 0  0.4 0.2 0  0.425 0.2 0  0.45 0.2 0  0.475 0.2 0  0.5 0.2 0  0.525 0.2 0  0.55 0.2 0  0.575 0.2 0  0.6 0.2 0  0.625 0.2 0  0.65 0.2 0  0.675 0.2 0  0.7 0.2 0  0.725 0.2 0  0.75 0.2 0  0.775 0.2 0  0.8 0.2 0  0.825 0.2 0  0.85 0.2 0  0.875 0.2 0  0.9 0.2 0  0.925 0.2 0  0.95 0.2 0  0.975 0.2 0  1 0.2 0  0 0.225 0  0.025 0.225 0  0.05 0.225 0  0.075 0.225 0  0.1 0.225 0  0.125 0.225 0  0.15 0.225 0  0.175 0.225 0  0.2 0.225 0  0.225 0.225 0  0.25 0.225 0  0.275 0.225 0  0.3 0.225 0  0.325 0.225 0  0.35 0.225 0  0.375 0.225 0  0.4 0.225 0  0.425 0.225 0  0.45 0.225 0  0.475 0.225 0  0.5 0.225 0  0.525 0.225 0  0.55 0.225 0  0.575 0.225 0  0.6 0.225 0  0.625 0.225 0  0.65 0.225 0  0.675 0.225 0  0.7 0.225 0  0.725 0.225 0  0.75 0.225 0  0.775 0.225 0  0.8 0.225 0  0.825 0.225 0  0.85 0.225 0  0.875 0.225 0  0.9 0.225 0  0.925 0.225 0  0.95 0.225 0  0.975 0.225 0  1 0.225 0  0 0.25 0  0.025 0.25 0  0.05 0.25 0  0.075 0.25 0  0.1 0.25 0  0.125 0.25 0  0.15 0.25 0  0.175 0.25 0  0.2 0.25 0  0.225 0.25 0  0.25 0.25 0  0.275 0.25 0  0.3 0.25 0  0.325 0.25 0  0.35 0.25 0  0.375 0.25 0  0.4 0.25 0  0.425 0.25 0  0.45 0.25 0  0.475 0.25 0  0.5 0.25 0  0.525 0.25 0  0.55 0.25 0  0.575 0.25 0  0.6 0.25 0  0.625 0.25 0  0.65 0.25 0  0.675 0.25 0  0.7 0.25 0  0.725 0.25 0  0.75 0.25 0  0.775 0.25 0  0.8 0.25 0  0.825 0.25 0  0.85 0.25 0  0.875 0.25 0  0.9 0.25 0  0.925 0.25 0  0.95 0.25 0  0.975 0.25 0  1 0.25 0  0 0.275 0  0.025 0.275 0  0.05 0.275 0  0.075 0.275 0  0.1 0.275 0  0.125 0.275 0  0.15 0.275 0  0.175 0.275 0  0.2 0.275 0  0.225 0.275 0  0.25 0.275 0  0.275 0.275 0  0.3 0.275 0  0.325 0.275 0  0.35 0.275 0  0.375 0.275 0  0.4 0.275 0  0.425 0.275 0  0.45 0.275 0  0.475 0.275 0  0.5 0.275 0  0.525 0.275 0  0.55 0.275 0  0.575 0.275 0  0.6 0.275 0  0.625 0.275 0  0.65 0.275 0  0.675 0.275 0  0.7 0.275 0  0.725 0.275 0  0.75 0.275 0  0.775 0.275 0  0.8 0.275 0  0.825 0.275 0  0.85 0.275 0  0.875 0.275 0  0.9 0.275 0  0.925 0.275 0  0.95 0.275 0  0.975 0.275 0  1 0.275 0  0 0.3 0  0.025 0.3 0  0.05 0.3 0  0.075 0.3 0  0.1 0.3 0  0.125 0.3 0  0.15 0.3 0  0.175 0.3 0  0.2 0.3 0  0.225 0.3 0  0.25 0.3 0  0.275 0.3 0  0.3 0.3 0  0.325 0.3 0  0.35 0.3 0  0.375 0.3 0  0.4 0.3 0  0.425 0.3 0  0.45 0.3 0  0.475 0.3 0  0.5 0.3 0  0.525 0.3 0  0.55 0.3 0  0.575 0.3 0  0.6 0.3 0  0.625 0.3 0  0.65 0.3 0  0.675 0.3 0  0.7 0.3 0  0.725 0.3 0  0.75 0.3 0  0.775 0.3 0  0.8 0.3 0  0.825 0.3 0  0.85 0.3 0  0.875 0.3 0  0.9 0.3 0  0.925 0.3 0  0.95 0.3 0  0.975 0.3 0  1 0.3 0  0 0.325 0  0.025 0.325 0  0.05 0.325 0  0.075 0.325 0  0.1 0.325 0  0.125 0.325 0  0.15 0.325 0  0.175 0.325 0  0.2 0.325 0  0.225 0.325 0  0.25 0.325 0  0.275 0.325 0  0.3 0.325 0  0.325 0.325 0  0.35 0.325 0  0.375 0.325 0  0.4 0.325 0  0.425 0.325 0  0.45 0.325 0  0.475 0.325 0  0.5 0.325 0  0.525 0.325 0  0.55 0.325 0  0.575 0.325 0  0.6 0.325 0  0.625 0.325 0  0.65 0.325 0  0.675 0.325 0  0.7 0.325 0  0.725 0.325 0  0.75 0.325 0  0.775 0.325 0  0.8 0.325 0  0.825 0.325 0  0.85 0.325 0  0.875 0.325 0  0.9 0.325 0  0.925 0.325 0  0.95 0.325 0  0.975 0.325 0  1 0.325 0  0 0.35 0  0.025 0.35 0  0.05 0.35 0  0.075 0.35 0  0.1 0.35 0  0.125 0.35 0  0.15 0.35 0  0.175 0.35 0  0.2 0.35 0  0.225 0.35 0  0.25 0.35 0  0.275 0.35 0  0.3 0.35 0  0.325 0.35 0  0.35 0.35 0  0.375 0.35 0  0.4 0.35 0  0.425 0.35 0  0.45 0.35 0  0.475 0.35 0  0.5 0.35 0  0.525 0.35 0  0.55 0.35 0  0.575 0.35 0  0.6 0.35 0  0.625 0.35 0  0.65 0.35 0  0.675 0.35 0  0.7 0.35 0  0.725 0.35 0  0.75 0.35 0  0.775 0.35 0  0.8 0.35 0  0.825 0.35 0  0.85 0.35 0  0.875 0.35 0  0.9 0.35 0  0.925 0.35 0  0.95 0.35 0  0.975 0.35 0  1 0.35 0  0 0.375 0  0.025 0.375 0  0.05 0.375 0  0.075 0.375 0  0.1 0.375 0  0.125 0.375 0  0.15 0.375 0  0.175 0.375 0  0.2 0.375 0  0.225 0.375 0  0.25 0.375 0  0.275 0.375 0  0.3 0.375 0  0.325 0.375 0  0.35 0.375 0  0.375 0.375 0  0.4 0.375 0  0.425 0.375 0  0.45 0.375 0  0.475 0.375 0  0.5 0.375 0  0.525 0.375 0  0.55 0.375 0  0.575 0.375 0  0.6 0.375 0  0.625 0.375 0  0.65 0.375 0  0.675 0.375 0  0.7 0.375 0  0.725 0.375 0  0.75 0.375 0  0.775 0.375 0  0.8 0.375 0  0.825 0.375 0  0.85 0.375 0  0.875 0.375 0  0.9 0.375 0  0.925 0.375 0  0.95 0.375 0  0.975 0.375 0  1 0.375 0  0 0.4 0  0.025 0.4 0  0.05 0.4 0  0.075 0.4 0  0.1 0.4 0  0.125 0.4 0  0.15 0.4 0  0.175 0.4 0  0.2 0.4 0  0.225 0.4 0  0.25 0.4 0  0.275 0.4 0  0.3 0.4 0  0.325 0.4 0  0.35 0.4 0  0.375 0.4 0  0.4 0.4 0  0.425 0.4 0  0.45 0.4 0  0.475 0.4 0  0.5 0.4 0  0.525 0.4 0  0.55 0.4 0  0.575 0.4 0  0.6 0.4 0  0.625 0.4 0  0.65 0.4 0  0.675 0.4 0  0.7 0.4 0  0.725 0.4 0  0.75 0.4 0  0.775 0.4 0  0.8 0.4 0  0.825 0.4 0  0.85 0.4 0  0.875 0.4 0  0.9 0.4 0  0.925 0.4 0  0.95 0.4 0  0.975 0.4 0  1 0.4 0  0 0.425 0  0.025 0.425 0  0.05 0.425 0  0.075 0.425 0  0.1 0.425 0  0.125 0.425 0  0.15 0.425 0  0.175 0.425 0  0.2 0.425 0  0.225 0.425 0  0.25 0.425 0  0.275 0.425 0  0.3 0.425 0  0.325 0.425 0  0.35 0.425 0  0.375 0.425 0  0.4 0.425 0  0.425 0.425 0  0.45 0.425 0  0.475 0.425 0  0.5 0.425 0  0.525 0.425 0  0.55 0.425 0  0.575 0.425 0  0.6 0.425 0  0.625 0.425 0  0.65 0.425 0  0.675 0.425 0  0.7 0.425 0  0.725 0.425 0  0.75 0.425 0  0.775 0.425 0  0.8 0.425 0  0.825 0.425 0  0.85 0.425 0  0.875 0.425 0  0.9 0.425 0  0.925 0.425 0  0.95 0.425 0  0.975 0.425 0  1 0.425 0  0 0.45 0  0.02
[...]
<PointData  Scalars="ControlVisualisation"> 
<DataArray  type="Float64"  Name="ControlVisualisation"  format="ascii">-9.6363021421954605e-09  -9.7569062771642722e-09  -9.7567524785750376e-09  -9.7564597281841883e-09  -9.7560237475497950e-09  -9.7554777683498186e-09  -9.7548828296355216e-09  -9.7543017404898121e-09  -9.7537795786804256e-09  -9.7533384640111286e-09  -9.7529821357418098e-09  -9.7527033878810905e-09  -9.7524903024909231e-09  -9.7523301888243015e-09  -9.7522115960060873e-09  -9.7521250854332985e-09  -9.7520633188217212e-09  -9.7520208492247013e-09  -9.7519938329633310e-09  -9.7519797818706912e-09  -9.7519773973177491e-09  -9.7519864854511843e-09  -9.7520079437886316e-09  -9.7520438244256882e-09  -9.7520974712784179e-09  -9.7521737251209253e-09  -9.7522791787660569e-09  -9.7524224196583667e-09  -9.7526140791585434e-09  -9.7528663651481860e-09  -9.7531915813618618e-09  -9.7535989556340971e-09  -9.7540893433034390e-09  -9.7546484675483670e-09  -9.7552401551596366e-09  -9.7558085891629761e-09  -9.7562910602154960e-09  -9.7566425335167855e-09  -9.7568517958918257e-09  -9.7569428051997989e-09  -9.2830815774206550e-09  -9.7569107184527887e-09  -9.8782357727981241e-09  -9.8780804764347510e-09  -9.8777709091715840e-09  -9.8772935634640253e-09  -9.8766809212101142e-09  -9.8759998005487237e-09  -9.8753228840735003e-09  -9.8747054887065125e-09  -9.8741773748534479e-09  -9.8737463852473296e-09  -9.8734064343185215e-09  -9.8731448158619823e-09  -9.8729471237497763e-09  -9.8727999333891347e-09  -9.8726919531188452e-09  -9.8726142807061690e-09  -9.8725602195997209e-09  -9.8725249635690675e-09  -9.8725053073429563e-09  -9.8724994465498415e-09  -9.8725068651918164e-09  -9.8725283035257468e-09  -9.8725658094271118e-09  -9.8726228717126853e-09  -9.8727046266434613e-09  -9.8728181304156843e-09  -9.8729726506066250e-09  -9.8731798053638903e-09  -9.8734532180088294e-09  -9.8738071803158950e-09  -9.8742535770814170e-09  -9.8747966447779555e-09  -9.8754251735695419e-09  -9.8761048891851501e-09  -9.8767780794293070e-09  -9.8773709992608071e-09  -9.8778214778222788e-09  -9.8781062842699612e-09  -9.8782487223026909e-09  -9.7569433917709734e-09  -9.7568102586121289e-09  -9.8781151363287016e-09  -9.8778959949555589e-09  -9.8774935966043242e-09  -9.8768882575919510e-09  -9.8761408651921526e-09  -9.8753422294456551e-09  -9.8745753612969895e-09  -9.8738945087705719e-09  -9.8733233857089848e-09  -9.8728634943429230e-09  -9.8725038880743444e-09  -9.8722286018702032e-09  -9.8720211499981520e-09  -9.8718668062802823e-09  -9.8717534924508270e-09  -9.8716718553041909e-09  -9.8716149205407627e-09  -9.8715776587019409e-09  -9.8715566705766975e-09  -9.8715500112547347e-09  -9.8715570889628448e-09  -9.8715786255412548e-09  -9.8716167065370091e-09  -9.8716749152050980e-09  -9.8717585251035880e-09  -9.8718747777965868e-09  -9.8720332736207798e-09  -9.8722463357019769e-09  -9.8725289889802673e-09  -9.8728980636041001e-09  -9.8733696519466253e-09  -9.8739545523295697e-09  -9.8746488760778189e-09  -9.8754279136897662e-09  -9.8762301480806845e-09  -9.8769656609468217e-09  -9.8775422688556711e-09  -9.8779265712981486e-09  -9.8781379805575136e-09  -9.7568700405632705e-09  -9.7567013144167920e-09  -9.8779407346932107e-09  -9.8775885331351467e-09  -9.8769910975373098e-09  -9.8762036507336180e-09  -9.8753432987062889e-09  -9.8745140149303070e-09  -9.8737816116228268e-09  -9.8731710826665792e-09  -9.8726816474050372e-09  -9.8722996100382257e-09  -9.8720070105759338e-09  -9.8717859736313435e-09  -9.8716206563426618e-09  -9.8714979825205283e-09  -9.8714078028397446e-09  -9.8713426848906722e-09  -9.8712972589390919e-09  -9.8712675327714222e-09  -9.8712506783388414e-09  -9.8712450644212842e-09  -9.8712502038541437e-09  -9.8712666705864882e-09  -9.8712961318635494e-09  -9.8713415036271167e-09  -9.8714070748910287e-09  -9.8714985953587207e-09  -9.8716237113569961e-09  -9.8717927565500594e-09  -9.8720193399612246e-09  -9.8723204313245955e-09  -9.8727155636780647e-09  -9.8732249614667961e-09  -9.8738612238315615e-09  -9.8746299500265221e-09  -9.8754667518453703e-09  -9.8763486093590181e-09  -9.8771088926105091e-09  -9.8776779743387273e-09  -9.8780143883453549e-09  -9.7567581938974055e-09  -9.7568140300121222e-09  -9.8778566812212380e-09  -9.8766249235519373e-09  -9.8745028882507608e-09  -9.8719699486762134e-09  -9.8695106131902911e-09  -9.8675070414058237e-09  -9.8660246700076023e-09  -9.8649881232846980e-09  -9.8642808436265147e-09  -9.8638019631044918e-09  -9.8634775555165382e-09  -9.8632567342782086e-09  -9.8631051109431867e-09  -9.8629994547326471e-09  -9.8629245330726507e-09  -9.8628713579904802e-09  -9.8628343520302516e-09  -9.8628089849842704e-09  -9.8627918338218603e-09  -9.8627811331277283e-09  -9.8627764630765619e-09  -9.8627782900902332e-09  -9.8627881108709208e-09  -9.8628093441932566e-09  -9.8628477837503758e-09  -9.8629112639889751e-09  -9.8630112354597049e-09  -9.8631666509928332e-09  -9.8634082729640813e-09  -9.8637839824276750e-09  -9.8643652905081890e-09  -9.8652537838956794e-09  -9.8665746350731263e-09  -9.8684629509101408e-09  -9.8708413788970826e-09  -9.8736904524856242e-09  -9.8757102046580696e-09  -9.8768667683101617e-09  -9.8777459509142100e-09  -9.7566990667133416e-09  -9.7450831516166813e-09  -9.8708617106435547e-09  -9.8576256761480612e-09  -9.8389742687839570e-09  -9.8040485361607599e-09  -9.7573466677828609e-09  -9.7036541840594895e-09  -9.6522956479419433e-09  -9.6100729617394041e-09  -9.5796056503915108e-09  -9.5597472676771811e-09  -9.5478085405440235e-09  -9.5410930156891569e-09  -9.5375203883970566e-09  -9.5356779256484753e-09  -9.5347095464176395e-09  -9.5342167176947143e-09  -9.5339950227167317e-09  -9.5338124904543020e-09  -9.5334909745685350e-09  -9.5329824745484659e-09  -9.5322909155585881e-09  -9.5314127406013500e-09  -9.5303583740354723e-09  -9.5292358798001200e-09  -9.5282755237698699e-09  -9.5277465298439383e-09  -9.5280689941807412e-09  -9.5301428153201335e-09  -9.5355651861262328e-09  -9.5467464681507684e-09  -9.5668222397468657e-09  -9.5989096916842191e-09  -9.6441453702690958e-09  -9.6994695017189579e-09  -9.7552106716354620e-09  -9.8052431479706047e-09  -9.8332122781531220e-09  -9.8621109448020325e-09  -9.8755883947078106e-09  -9.7552262130841986e-09  -9.7300254994377885e-09  -9.7917306233111220e-09  6.5477289316858964e-02  2.6541940807539116e-01  3.8950545393430824e-01  4.8641063758698394e-01  5.4798791562865601e-01  5.8627595699275126e-01  6.0861945788730287e-01  6.2113899376182458e-01  6.2782055392659730e-01  6.3117012533469719e-01  6.3268243074002017e-01  6.3322520367220747e-01  6.3329168040474482e-01  6.3315833952562328e-01  6.3297886052337315e-01  6.3283854301896492e-01  6.3278469250573322e-01  6.3284378548168063e-01  6.3303081474248091e-01  6.3335350752307307e-01  6.3381345111055953e-01  6.3440445927107636e-01  6.3510754931374125e-01  6.3588102945931013e-01  6.3664221382515485e-01  6.3723492406534687e-01  6.3737386561635379e-01  6.3654980527480787e-01  6.3387232407912986e-01  6.2782162208424275e-01  6.1587363733706779e-01  5.9403438095762362e-01  5.5619810845242590e-01  4.9471830168256870e-01  3.9688034061952737e-01  2.6823905293307693e-01  5.0943303038539785e-02  -9.8055610238828542e-09  -9.7427191515684409e-09  9.8791275571008486e-01  8.8791840934084720e-01  1.0000000095320360e+00  1.0000000097234742e+00  1.0000000097578599e+00  1.0000000097729398e+00  1.0000000097785644e+00  1.0000000097811395e+00  1.0000000097819493e+00  1.0000000097818913e+00  1.0000000097814126e+00  1.0000000097807691e+00  1.0000000097800992e+00  1.0000000097794790e+00  1.0000000097789477e+00  1.0000000097785231e+00  1.0000000097782087e+00  1.0000000097779915e+00  1.0000000097778616e+00  1.0000000097778246e+00  1.0000000097778874e+00  1.0000000097780499e+00  1.0000000097783106e+00  1.0000000097786703e+00  1.0000000097791282e+00  1.0000000097796768e+00  1.0000000097803017e+00  1.0000000097809909e+00  1.0000000097817194e+00  1.0000000097824213e+00  1.0000000097829669e+00  1.0000000097831374e+00  1.0000000097825772e+00  1.0000000097807094e+00  1.0000000097765709e+00  1.0000000097682455e+00  1.0000000097513895e+00  1.0000000097075481e+00  1.0000000095522570e+00  1.0000000082761495e+00  3.5061298226445020e-01  1.0000000099220567e+00  1.0000000099482937e+00  1.0000000099424105e+00  1.0000000099355189e+00  1.0000000099304787e+00  1.0000000099265882e+00  1.0000000099237822e+00  1.0000000099218713e+00  1.0000000099205779e+00  1.0000000099196944e+00  1.0000000099190749e+00  1.0000000099186277e+00  1.0000000099182969e+00  1.0000000099180473e+00  1.0000000099178570e+00  1.0000000099177129e+00  1.0000000099176058e+00  1.0000000099175306e+00  1.0000000099174833e+00  1.0000000099174624e+00  1.0000000099174668e+00  1.0000000099174962e+00  1.0000000099175510e+00  1.0000000099176325e+00  1.0000000099177426e+00  1.0000000099178847e+00  1.0000000099180646e+00  1.0000000099182911e+00  1.0000000099185788e+00  1.0000000099189519e+00  1.0000000099194506e+00  1.0000000099201438e+00  1.0000000099211446e+00  1.0000000099226312e+00  1.0000000099248592e+00  1.0000000099281308e+00  1.0000000099326594e+00  1.0000000099383517e+00  1.0000000099446971e+00  1.0000000099507087e+00  1.0000000098847899e+00  1.0000000099613044e+00  1.0000000099770130e+00  1.0000000099719377e+00  1.0000000099659081e+00  1.0000000099602653e+00  1.0000000099556727e+00  1.0000000099523003e+00  1.0000000099499942e+00  1.0000000099484823e+00  1.0000000099475099e+00  1.0000000099468833e+00  1.0000000099464723e+00  1.0000000099461952e+00  1.0000000099460022e+00  1.0000000099458644e+00  1.0000000099457642e+00  1.0000000099456916e+00  1.0000000099456405e+00  1.0000000099456072e+00  1.0000000099455899e+00  1.0000000099455870e+00  1.0000000099455988e+00  1.0000000099456250e+00  1.0000000099456670e+00  1.0000000099457265e+00  1.0000000099458073e+00  1.0000000099459156e+00  1.0000000099460620e+00  1.0000000099462638e+00  1.0000000099465516e+00  1.0000000099469770e+00  1.0000000099476265e+00  1.0000000099486368e+00  1.0000000099502120e+00  1.0000000099526174e+00  1.0000000099561217e+00  1.0000000099608521e+00  1.0000000099665842e+00  1.0000000099725577e+00  1.0000000099773918e+00  1.0000000099551456e+00  1.0000000099663562e+00  1.0000000099814970e+00  1.0000000099771860e+00  1.0000000099717035e+00  1.0000000099662767e+00  1.0000000099617159e+00  1.0000000099583048e+00  1.0000000099559505e+00  1.0000000099544073e+00  1.0000000099534221e+00  1.0000000099527955e+00  1.0000000099523909e+00  1.0000000099521225e+00  1.0000000099519382e+00  1.0000000099518074e+00  1.0000000099517126e+00  1.0000000099516437e+00  1.0000000099515944e+00  1.0000000099515614e+00  1.0000000099515425e+00  1.0000000099515365e+00  1.0000000099515429e+00  1.0000000099515622e+00  1.0000000099515951e+00  1.0000000099516440e+00  1.0000000099517121e+00  1.0000000099518058e+00  1.0000000099519355e+00  1.0000000099521189e+00  1.0000000099523867e+00  1.0000000099527908e+00  1.0000000099534174e+00  1.0000000099544024e+00  1.0000000099559452e+00  1.0000000099582997e+00  1.0000000099617119e+00  1.0000000099662738e+00  1.0000000099717024e+00  1.0000000099771855e+00  1.0000000099814965e+00  1.0000000099663555e+00  1.0000000099551503e+00  1.0000000099773980e+00  1.0000000099725634e+00  1.0000000099665787e+00  1.0000000099608317e+00  1.0000000099560906e+00  1.0000000099525799e+00  1.0000000099501696e+00  1.0000000099485906e+00  1.0000000099475763e+00  1.0000000099469231e+00  1.0000000099464932e+00  1.0000000099462008e+00  1.0000000099459940e+00  1.0000000099458428e+00  1.0000000099457300e+00  1.0000000099456454e+00  1.0000000099455832e+00  1.0000000099455399e+00  1.0000000099455133e+00  1.0000000099455020e+00  1.0000000099455055e+00  1.0000000099455240e+00  1.0000000099455584e+00  1.0000000099456108e+00  1.0000000099456849e+00  1.0000000099457873e+00  1.0000000099459276e+00  1.0000000099461235e+00  1.0000000099464039e+00  1.0000000099468185e+00  1.0000000099474486e+00  1.0000000099484241e+00  1.0000000099499395e+00  1.0000000099522501e+00  1.0000000099556305e+00  1.0000000099602366e+00  1.0000000099658983e+00  1.0000000099719424e+00  1.0000000099770181e+00  1.0000000099613060e+00  1.0000000098847850e+00  1.0000000099507806e+00  1.0000000099447690e+00  1.0000000099383575e+00  1.0000000099326014e+00  1.0000000099280275e+00  1.0000000099247230e+00  1.0000000099224691e+00  1.0000000099209601e+00  1.0000000099199386e+00  1.0000000099192259e+00  1.0000000099187079e+00  1.0000000099183155e+00  1.0000000099180091e+00  1.0000000099177644e+00  1.0000000099175683e+00  1.0000000099174129e+00  1.0000000099172934e+00  1.0000000099172055e+00  1.0000000099171473e+00  1.0000000099171173e+00  1.0000000099171145e+00  1.0000000099171387e+00  1.0000000099171911e+00  1.0000000099172734e+00  1.0000000099173900e+00  1.0000000099175457e+00  1.0000000099177497e+00  1.0000000099180155e+00  1.0000000099183639e+00  1.0000000099188293e+00  1.0000000099194679e+00  1.0000000099203705e+00  1.0000000099216841e+00  1.0000000099236199e+00  1.0000000099264577e+00  1.0000000099303981e+00  1.0000000099355095e+00  1.0000000099424178e+00  1.0000000099483171e+00  1.0000000099220796e+00  3.5478819064786493e-01  1.0000000083837612e+00  1.0000000095560919e+00  1.0000000097083270e+00  1.0000000097512911e+00  1.0000000097677921e+00  1.0000000097758279e+00  1.0000000097797672e+00  1.0000000097814856e+00  1.0000000097819206e+00  1.0000000097816295e+00  1.0000000097809576e+00  1.0000000097801194e+00  1.0000000097792381e+00  1.0000000097783928e+00  1.0000000097776434e+00  1.0000000097770190e+00  1.0000000097765185e+00  1.0000000097761332e+00  1.0000000097758592e+00  1.0000000097756920e+00  1.0000000097756265e+00  1.0000000097756621e+00  1.0000000097758051e+00  1.0000000097760620e+00  1.0000000097764390e+00  1.0000000097769428e+00  1.0000000097775719e+00  1.0000000097783033e+00  1.0000000097790906e+00  1.0000000097798574e+00  1.0000000097804567e+00  1.0000000097806194e+00  1.0000000097799064e+00  1.0000000097774593e+00  1.0000000097719384e+00  1.0000000097572026e+00  1.0000000097224124e+00  1.0000000095377926e+00  8.9576302692717624e-01  9.8826724400773003e-01  -9.7407691828252442e-09  -9.7905194939547164e-09  6.3885881397772196e-02  2.7554725192430402e-01  4.0170560742875722e-01  4.9640239379922835e-01  5.5598886285394122e-01  5.9240635503456052e-01  6.1318102071729386e-01  6.2426913249932459e-01  6.2959641619527196e-01  6.3165069973178412e-01  6.3193490703507371e-01  6.3133128944331018e-01  6.3034447615088085e-01  6.2925574401256934e-01  6.2821761678048094e-01  6.2731005226825409e-01  6.2657266705674808e-01  6.2602272916090884e-01  6.2566519271536480e-01  6.2549797747027436e-01  6.2551385189833375e-01  6.2569931190137607e-01  6.2603003739223684e-01  6.2646150625025365e-01  6.2691168478795634e-01  6.2723014672154620e-01  6.2714397197133598e-01  6.2616467374715823e-01  6.2343246412771680e-01  6.1746868923341192e-01  6.0580205980561419e-01  5.8451397691529228e-01  5.4762993500101276e-01  4.8793345656805248e-01  3.9409422566868429e-01  2.7249308817911233e-01  7.8642152749699670e-02  -9.7821177267096246e-09  -9.7286424508053298e-09  -9.7546841753305895e-09  -9.8717824666798273e-09  -9.8504199157238138e-09  -9.8179188619955139e-09  -9.7877263304555925e-09  -9.7349124653767551e-09  -9.6781874424498759e-09  -9.6251679309237443e-09  -9.5851056984460999e-09  -9.5596740925562641e-09  -9.5462889165023882e-09  -9.5409632170078267e-09  -9.5402797571339451e-09  -9.5419287503351884e-09  -9.5445979825869098e-09  -9.5475078000727348e-09  -9.5501411704744281e-09  -9.5522895270923419e-09  -9.5539723414974694e-09  -9.5552124695713887e-09  -9.5559713516950267e-09  -9.5562337618955907e-09  -9.5560330071505780e-09  -9.5554062808489712e-09  -9.5543984668424440e-09  -9.5531124769338046e-09  -9.5517327708956081e-09  -9.5505740080410348e-09  -9.5502832298011242e-09  -9.5521261302620956e-09  -9.5581785150504132e-09  -9.5714185654252165e-09  -9.5954388330295222e-09  -9.6328646693040480e-09  -9.6823454808172775e-09  -9.7372545446252888e-09  -9.7871084819555827e-09  -9.8258265675883181e-09  -9.8479579376777623e-09  -9.8657489177064460e-09  -9.7451920776829026e-09  -9.7530634220869864e-09  -9.8731083616611679e-09  -9.8694875345578197e-09  -9.8670847129629133e-09  -9.8645653289881506e-09  -9.8624226169234833e-09  -9.8614747857411522e-09  -9.8611559286660118e-09  -9.8612604687478609e-09  -9.8615714891749437e-09  -9.8619638716515933e-09  -9.8623654495081343e-09  -9.8627392359345803e-09  -9.8630688010563386e-09  -9.8633490153569960e-09  -9.8635795645408995e-09  -9.8637623248327066e-09  -9.8639011878104297e-09  -9.8640006150511882e-09  -9.8640635680595707e-09  -9.8640911949861398e-09  -9.8640837445637517e-09  -9.8640408542665517e-09  -9.8639611921006442e-09  -9.8638423764477138e-09  -9.8636811409475802e-09  -9.8634732914423987e-09  -9.8632138570456861e-09  -9.8628983220041816e-09  -9.8625249210271722e-09  -9.8620977700350206e-09  -9.8616330793230255e-09  -9.8611722028652975e-09  -9.8608029967322195e-09  -9.8606886844315524e-09  -9.8610870474977574e-09  -9.8623616660823494e-09  -9.8648055130536613e-09  -9.8686098349053595e-09  -9.8731509694246867e-09  -9.7537930158797876e-09  -9.7528824205129562e-09  -9.8734016076017277e-09  -9.8716579966722135e-09  -9.8704639199902314e-09  -9.8697379961434450e-09  -9.8695429919553740e-09  -9.8697522915496309e-09  -9.8701081391343728e-09  -9.8705270005786436e-09  -9.8709336002099879e-09  -9.8712997031114969e-09  -9.8716156906881042e-09  -9.8718818938181577e-09  -9.8721023745076718e-09  -9.8722821091027202e-09  -9.8724257080043115e-09  -9.8725371783321592e-09  -9.8726200626571345e-09  -9.8726773293799960e-09  -9.8727111156625614e-09  -9.8727226661669459e-09  -9.8727124425830870e-09  -9.8726801721813146e-09  -9.8726248030213993e-09  -9.8725444643700212e-09  -9.8724364446627428e-09  -9.8722971428595307e-09  -9.8721220722265605e-09  -9.8719060495972504e-09  -9.8716436187589801e-09  -9.8713299068132208e-09  -9.8709627883020474e-09  -9.8705479207828427e-09  -9.8701086586001628e-09  -9.8697026041318163e-09  -9.8694442133221192e-09  -9.8695118504872317e-09  -9.8700965606804934e-09  -9.8712110067180985e-09  -9.8729967897647210e-09  -9.7527410572979919e-09  -9.7531894635572087e-09  -9.8737259536038182e-09  -9.8726173134348844e-09  -9.8721186447458642e-09  -9.8717906682122184e-09  -9.8716449061494558e-09  -9.8716814016621880e-09  -9.8718419169312190e-09  -9.8720655109744517e-09  -9.8723042125708706e-09  -9.8725335092053129e-09  -9.8727408356600790e-09  -9.8729215767108787e-09  -9.8730750898788952e-09  -9.8732025828236858e-09  -9.8733059380910700e-09  -9.8733871709568147e-09  -9.8734481925010741e-09  -9.8734906583668626e-09  -9.8735158321991791e-09  -9.8735245028520396e-09  -9.8735169721314327e-09  -9.8734930614743626e-09  -9.8734521125369614e-09  -9.8733929865280929e-09  -9.8733140874648481e-09  -9.8732134225058246e-09  -9.8730887383041718e-09  -9.8729378051133958e-09  -9.8727589509330599e-09  -9.8725520492060477e-09  -9.8723203500776270e-09  -9.8720736639784988e-09  -9.8718332132804083e-09  -9.8716374493123847e-09  -9.8715447710636285e-09  -9.8716231439306636e-09  -9.8719110496626786e-09  -9.8723781299635345e-09  -9.8734989844668008e-09  -9.7528809653375389e-09  -9.7536575358862755e-09  -9.8743132181531256e-09  -9.8735257394779779e-09  -9.8732916847167385e-09  -9.8731197558445036e-09  -9.8730260479621291e-09  -9.8730207855914337e-09  -9.8730848545473972e-09  -9.8731912189606554e-09  -9.8733175991016707e-09  -9.8734478864574079e-09  -9.8735719226997688e-09  -9.8736842772126348e-09  -9.8737824747068333e-09  -9.8738657936715454e-09  -9.8739344447916798e-09  -9.8739890814420601e-09  -9.8740305166855658e-09  -9.8740595437127834e-09  -9.8740768113704438e-09  -9.8740827448444797e-09  -9.8740775089961015e-09  -9.8740609973943753e-09  -9.8740328356753272e-09  -9.8739924030774532e-09  -9.8739388824573819e-09  -9.8738713542256265e-09  -9.8737889600664995e-09  -9.8736911835448436e-09  -9.8735783099890455e-09  -9.8734521582024498