<?xml version="1.0"?>
<VTKFile type="UnstructuredGrid"  version="0.1"  >
<UnstructuredGrid>
<Piece  NumberOfPoints="1681" NumberOfCells="3200">
<Points>
<DataArray  type="Float64"  NumberOfComponents="3"  format="ascii">0 0 0  0.025 0 0  0.05 0 0  0.075 0 0  0.1 0 0  0.125 0 0  0.15 0 0  0.175 0 0  0.2 0 0  0.225 0 0  0.25 0 0  0.275 0 0  0.3 0 0  0.325 0 0  0.35 0 0  0.375 0 0  0.4 0 0  0.425 0 0  0.45 0 0  0.475 0 0  0.5 0 0  0.525 0 0  0.55 0 0  0.575 0 0  0.6 0 0  0.625 0 0  0.65 0 0  0.675 0 0  0.7 0 0  0.725 0 0  0.75 0 0  0.775 0 0  0.8 0 0  0.825 0 0  0.85 0 0  0.875 0 0  0.9 0 0  0.925 0 0  0.95 0 0  0.975 0 0  1 0 0  0 0.025 0  0.025 0.025 0  0.05 0.025 0  0.075 0.025 0  0.1 0.025 0  0.125 0.025 0  0.15 0.025 0  0.175 0.025 0  0.2 0.025 0  0.225 0.025 0  0.25 0.025 0  0.275 0.025 0  0.3 0.025 0  0.325 0.025 0  0.35 0.025 0  0.375 0.025 0  0.4 0.025 0  0.425 0.025 0  0.45 0.025 0  0.475 0.025 0  0.5 0.025 0  0.525 0.025 0  0.55 0.025 0  0.575 0.025 0  0.6 0.025 0  0.625 0.025 0  0.65 0.025 0  0.675 0.025 0  0.7 0.025 0  0.725 0.025 0  0.75 0.025 0  0.775 0.025 0  0.8 0.025 0  0.825 0.025 0  0.85 0.025 0  0.875 0.025 0  0.9 0.025 0  0.925 0.025 0  0.95 0.025 0  0.975 0.025 0  1 0.025 0  0 0.05 0  0.025 0.05 0  0.05 0.05 0  0.075 0.05 0  0.1 0.05 0  0.125 0.05 0  0.15 0.05 0  0.175 0.05 0  0.2 0.05 0  0.225 0.05 0  0.25 0.05 0  0.275 0.05 0  0.3 0.05 0  0.325 0.05 0  0.35 0.05 0  0.375 0.05 0  0.4 0.05 0  0.425 0.05 0  0.45 0.05 0  0.475 0.05 0  0.5 0.05 0  0.525 0.05 0  0.55 0.05 0  0.575 0.05 0  0.6 0.05 0  0.625 0.05 0  0.65 0.05 0  0.675 0.05 0  0.7 0.05 0  0.725 0.05 0  0.75 0.05 0  0.775 0.05 0  0.8 0.05 0  0.825 0.05 0  0.85 0.05 0  0.875 0.05 0  0.9 0.05 0  0.925 0.05 0  0.95 0.05 0  0.975 0.05 0  1 0.05 0  0 0.075 0  0.025 0.075 0  0.05 0.075 0  0.075 0.075 0  0.1 0.075 0  0.125 0.075 0  0.15 0.075 0  0.175 0.075 0  0.2 0.075 0  0.225 0.075 0  0.25 0.075 0  0.275 0.075 0  0.3 0.075 0  0.325 0.075 0  0.35 0.075 0  0.375 0.075 0  0.4 0.075 0  0.425 0.075 0  0.45 0.075 0  0.475 0.075 0  0.5 0.075 0  0.525 0.075 0  0.55 0.075 0  0.575 0.075 0  0.6 0.075 0  0.625 0.075 0  0.65 0.075 0  0.675 0.075 0  0.7 0.075 0  0.725 0.075 0  0.75 0.075 0  0.775 0.075 0  0.8 0.075 0  0.825 0.075 0  0.85 0.075 0  0.875 0.075 0  0.9 0.075 0  0.925 0.075 0  0.95 0.075 0  0.975 0.075 0  1 0.075 0  0 0.1 0  0.025 0.1 0  0.05 0.1 0  0.075 0.1 0  0.1 0.1 0  0.125 0.1 0  0.15 0.1 0  0.175 0.1 0  0.2 0.1 0  0.225 0.1 0  0.25 0.1 0  0.275 0.1 0  0.3 0.1 0  0.325 0.1 0  0.35 0.1 0  0.375 0.1 0  0.4 0.1 0  0.425 0.1 0  0.45 0.1 0  0.475 0.1 0  0.5 0.1 0  0.525 0.1 0  0.55 0.1 0  0.575 0.1 0  0.6 0.1 0  0.625 0.1 0  0.65 0.1 0  0.675 0.1 0  0.7 0.1 0  0.725 0.1 0  0.75 0.1 0  0.775 0.1 0  0.8 0.1 0  0.825 0.1 0  0.85 0.1 0  0.875 0.1 0  0.9 0.1 0  0.925 0.1 0  0.95 0.1 0  0.975 0.1 0  1 0.1 0  0 0.125 0  0.025 0.125 0  0.05 0.125 0  0.075 0.125 0  0.1 0.125 0  0.125 0.125 0  0.15 0.125 0  0.175 0.125 0  0.2 0.125 0  0.225 0.125 0  0.25 0.125 0  0.275 0.125 0  0.3 0.125 0  0.325 0.125 0  0.35 0.125 0  0.375 0.125 0  0.4 0.125 0  0.425 0.125 0  0.45 0.125 0  0.475 0.125 0  0.5 0.125 0  0.525 0.125 0  0.55 0.125 0  0.575 0.125 0  0.6 0.125 0  0.625 0.125 0  0.65 0.125 0  0.675 0.125 0  0.7 0.125 0  0.725 0.125 0  0.75 0.125 0  0.775 0.125 0  0.8 0.125 0  0.825 0.125 0  0.85 0.125 0  0.875 0.125 0  0.9 0.125 0  0.925 0.125 0  0.95 0.125 0  0.975 0.125 0  1 0.125 0  0 0.15 0  0.025 0.15 0  0.05 0.15 0  0.075 0.15 0  0.1 0.15 0  0.125 0.15 0  0.15 0.15 0  0.175 0.15 0  0.2 0.15 0  0.225 0.15 0  0.25 0.15 0  0.275 0.15 0  0.3 0.15 0  0.325 0.15 0  0.35 0.15 0  0.375 0.15 0  0.4 0.15 0  0.425 0.15 0  0.45 0.15 0  0.475 0.15 0  0.5 0.15 0  0.525 0.15 0  0.55 0.15 0  0.575 0.15 0  0.6 0.15 0  0.625 0.15 0  0.65 0.15 0  0.675 0.15 0  0.7 0.15 0  0.725 0.15 0  0.75 0.15 0  0.775 0.15 0  0.8 0.15 0  0.825 0.15 0  0.85 0.15 0  0.875 0.15 0  0.9 0.15 0  0.925 0.15 0  0.95 0.15 0  0.975 0.15 0  1 0.15 0  0 0.175 0  0.025 0.175 0  0.05 0.175 0  0.075 0.175 0  0.1 0.175 0  0.125 0.175 0  0.15 0.175 0  0.175 0.175 0  0.2 0.175 0  0.225 0.175 0  0.25 0.175 0  0.275 0.175 0  0.3 0.175 0  0.325 0.175 0  0.35 0.175 0  0.375 0.175 0  0.4 0.175 0  0.425 0.175 0  0.45 0.175 0  0.475 0.175 0  0.5 0.175 0  0.525 0.175 0  0.55 0.175 0  0.575 0.175 0  0.6 0.175 0  0.625 0.175 0  0.65 0.175 0  0.675 0.175 0  0.7 0.175 0  0.725 0.175 0  0.75 0.175 0  0.775 0.175 0  0.8 0.175 0  0.825 0.175 0  0.85 0.175 0  0.875 0.175 0  0.9 0.175 0  0.925 0.175 0  0.95 0.175 0  0.975 0.175 0  1 0.175 0  0 0.2 0  0.025 0.2 0  0.05 0.2 0  0.075 0.2 0  0.1 0.2 0  0.125 0.2 0  0.15 0.2 0  0.175 0.2 0  0.2 0.2 0  0.225 0.2 0  0.25 0.2 0  0.275 0.2 0  0.3 0.2 0  0.325 0.2 0  0.35 0.2 0  0.375 0.2 0  0.4 0.2 0  0.425 0.2 0  0.45 0.2 0  0.475 0.2 0  0.5 0.2 0  0.525 0.2 0  0.55 0.2 0  0.575 0.2 0  0.6 0.2 0  0.625 0.2 0  0.65 0.2 0  0.675 0.2 0  0.7 0.2 0  0.725 0.2 0  0.75 0.2 0  0.775 0.2 0  0.8 0.2 0  0.825 0.2 0  0.85 0.2 0  0.875 0.2 0  0.9 0.2 0  0.925 0.2 0  0.95 0.2 0  0.975 0.2 0  1 0.2 0  0 0.225 0  0.025 0.225 0  0.05 0.225 0  0.075 0.225 0  0.1 0.225 0  0.125 0.225 0  0.15 0.225 0  0.175 0.225 0  0.2 0.225 0  0.225 0.225 0  0.25 0.225 0  0.275 0.225 0  0.3 0.225 0  0.325 0.225 0  0.35 0.225 0  0.375 0.225 0  0.4 0.225 0  0.425 0.225 0  0.45 0.225 0  0.475 0.225 0  0.5 0.225 0  0.525 0.225 0  0.55 0.225 0  0.575 0.225 0  0.6 0.225 0  0.625 0.225 0  0.65 0.225 0  0.675 0.225 0  0.7 0.225 0  0.725 0.225 0  0.75 0.225 0  0.775 0.225 0  0.8 0.225 0  0.825 0.225 0  0.85 0.225 0  0.875 0.225 0  0.9 0.225 0  0.925 0.225 0  0.95 0.225 0  0.975 0.225 0  1 0.225 0  0 0.25 0  0.025 0.25 0  0.05 0.25 0  0.075 0.25 0  0.1 0.25 0  0.125 0.25 0  0.15 0.25 0  0.175 0.25 0  0.2 0.25 0  0.225 0.25 0  0.25 0.25 0  0.275 0.25 0  0.3 0.25 0  0.325 0.25 0  0.35 0.25 0  0.375 0.25 0  0.4 0.25 0  0.425 0.25 0  0.45 0.25 0  0.475 0.25 0  0.5 0.25 0  0.525 0.25 0  0.55 0.25 0  0.575 0.25 0  0.6 0.25 0  0.625 0.25 0  0.65 0.25 0  0.675 0.25 0  0.7 0.25 0  0.725 0.25 0  0.75 0.25 0  0.775 0.25 0  0.8 0.25 0  0.825 0.25 0  0.85 0.25 0  0.875 0.25 0  0.9 0.25 0  0.925 0.25 0  0.95 0.25 0  0.975 0.25 0  1 0.25 0  0 0.275 0  0.025 0.275 0  0.05 0.275 0  0.075 0.275 0  0.1 0.275 0  0.125 0.275 0  0.15 0.275 0  0.175 0.275 0  0.2 0.275 0  0.225 0.275 0  0.25 0.275 0  0.275 0.275 0  0.3 0.275 0  0.325 0.275 0  0.35 0.275 0  0.375 0.275 0  0.4 0.275 0  0.425 0.275 0  0.45 0.275 0  0.475 0.275 0  0.5 0.275 0  0.525 0.275 0  0.55 0.275 0  0.575 0.275 0  0.6 0.275 0  0.625 0.275 0  0.65 0.275 0  0.675 0.275 0  0.7 0.275 0  0.725 0.275 0  0.75 0.275 0  0.775 0.275 0  0.8 0.275 0  0.825 0.275 0  0.85 0.275 0  0.875 0.275 0  0.9 0.275 0  0.925 0.275 0  0.95 0.275 0  0.975 0.275 0  1 0.275 0  0 0.3 0  0.025 0.3 0  0.05 0.3 0  0.075 0.3 0  0.1 0.3 0  0.125 0.3 0  0.15 0.3 0  0.175 0.3 0  0.2 0.3 0  0.225 0.3 0  0.25 0.3 0  0.275 0.3 0  0.3 0.3 0  0.325 0.3 0  0.35 0.3 0  0.375 0.3 0  0.4 0.3 0  0.425 0.3 0  0.45 0.3 0  0.475 0.3 0  0.5 0.3 0  0.525 0.3 0  0.55 0.3 0  0.575 0.3 0  0.6 0.3 0  0.625 0.3 0  0.65 0.3 0  0.675 0.3 0  0.7 0.3 0  0.725 0.3 0  0.75 0.3 0  0.775 0.3 0  0.8 0.3 0  0.825 0.3 0  0.85 0.3 0  0.875 0.3 0  0.9 0.3 0  0.925 0.3 0  0.95 0.3 0  0.975 0.3 0  1 0.3 0  0 0.325 0  0.025 0.325 0  0.05 0.325 0  0.075 0.325 0  0.1 0.325 0  0.125 0.325 0  0.15 0.325 0  0.175 0.325 0  0.2 0.325 0  0.225 0.325 0  0.25 0.325 0  0.275 0.325 0  0.3 0.325 0  0.325 0.325 0  0.35 0.325 0  0.375 0.325 0  0.4 0.325 0  0.425 0.325 0  0.45 0.325 0  0.475 0.325 0  0.5 0.325 0  0.525 0.325 0  0.55 0.325 0  0.575 0.325 0  0.6 0.325 0  0.625 0.325 0  0.65 0.325 0  0.675 0.325 0  0.7 0.325 0  0.725 0.325 0  0.75 0.325 0  0.775 0.325 0  0.8 0.325 0  0.825 0.325 0  0.85 0.325 0  0.875 0.325 0  0.9 0.325 0  0.925 0.325 0  0.95 0.325 0  0.975 0.325 0  1 0.325 0  0 0.35 0  0.025 0.35 0  0.05 0.35 0  0.075 0.35 0  0.1 0.35 0  0.125 0.35 0  0.15 0.35 0  0.175 0.35 0  0.2 0.35 0  0.225 0.35 0  0.25 0.35 0  0.275 0.35 0  0.3 0.35 0  0.325 0.35 0  0.35 0.35 0  0.375 0.35 0  0.4 0.35 0  0.425 0.35 0  0.45 0.35 0  0.475 0.35 0  0.5 0.35 0  0.525 0.35 0  0.55 0.35 0  0.575 0.35 0  0.6 0.35 0  0.625 0.35 0  0.65 0.35 0  0.675 0.35 0  0.7 0.35 0  0.725 0.35 0  0.75 0.35 0  0.775 0.35 0  0.8 0.35 0  0.825 0.35 0  0.85 0.35 0  0.875 0.35 0  0.9 0.35 0  0.925 0.35 0  0.95 0.35 0  0.975 0.35 0  1 0.35 0  0 0.375 0  0.025 0.375 0  0.05 0.375 0  0.075 0.375 0  0.1 0.375 0  0.125 0.375 0  0.15 0.375 0  0.175 0.375 0  0.2 0.375 0  0.225 0.375 0  0.25 0.375 0  0.275 0.375 0  0.3 0.375 0  0.325 0.375 0  0.35 0.375 0  0.375 0.375 0  0.4 0.375 0  0.425 0.375 0  0.45 0.375 0  0.475 0.375 0  0.5 0.375 0  0.525 0.375 0  0.55 0.375 0  0.575 0.375 0  0.6 0.375 0  0.625 0.375 0  0.65 0.375 0  0.675 0.375 0  0.7 0.375 0  0.725 0.375 0  0.75 0.375 0  0.775 0.375 0  0.8 0.375 0  0.825 0.375 0  0.85 0.375 0  0.875 0.375 0  0.9 0.375 0  0.925 0.375 0  0.95 0.375 0  0.975 0.375 0  1 0.375 0  0 0.4 0  0.025 0.4 0  0.05 0.4 0  0.075 0.4 0  0.1 0.4 0  0.125 0.4 0  0.15 0.4 0  0.175 0.4 0  0.2 0.4 0  0.225 0.4 0  0.25 0.4 0  0.275 0.4 0  0.3 0.4 0  0.325 0.4 0  0.35 0.4 0  0.375 0.4 0  0.4 0.4 0  0.425 0.4 0  0.45 0.4 0  0.475 0.4 0  0.5 0.4 0  0.525 0.4 0  0.55 0.4 0  0.575 0.4 0  0.6 0.4 0  0.625 0.4 0  0.65 0.4 0  0.675 0.4 0  0.7 0.4 0  0.725 0.4 0  0.75 0.4 0  0.775 0.4 0  0.8 0.4 0  0.825 0.4 0  0.85 0.4 0  0.875 0.4 0  0.9 0.4 0  0.925 0.4 0  0.95 0.4 0  0.975 0.4 0  1 0.4 0  0 0.425 0  0.025 0.425 0  0.05 0.425 0  0.075 0.425 0  0.1 0.425 0  0.125 0.425 0  0.15 0.425 0  0.175 0.425 0  0.2 0.425 0  0.225 0.425 0  0.25 0.425 0  0.275 0.425 0  0.3 0.425 0  0.325 0.425 0  0.35 0.425 0  0.375 0.425 0  0.4 0.425 0  0.425 0.425 0  0.45 0.425 0  0.475 0.425 0  0.5 0.425 0  0.525 0.425 0  0.55 0.425 0  0.575 0.425 0  0.6 0.425 0  0.625 0.425 0  0.65 0.425 0  0.675 0.425 0  0.7 0.425 0  0.725 0.425 0  0.75 0.425 0  0.775 0.425 0  0.8 0.425 0  0.825 0.425 0  0.85 0.425 0  0.875 0.425 0  0.9 0.425 0  0.925 0.425 0  0.95 0.425 0  0.975 0.425 0  1 0.425 0  0 0.45 0  0.02
[...]
<PointData  Scalars="ControlVisualisation"> 
<DataArray  type="Float64"  Name="ControlVisualisation"  format="ascii">-5.9381729183375392e-09  -7.2910972975513090e-09  -7.2896509478517059e-09  -7.2901472426312444e-09  -7.2914999944004020e-09  -7.2919017314554223e-09  -7.2887217279924609e-09  -7.2802237365977756e-09  -7.2708214681088559e-09  -7.2548232769324401e-09  -7.2270747738687207e-09  -7.1888576110151043e-09  -7.1448148107808874e-09  -7.0990573024308452e-09  -7.0552003119067408e-09  -7.0161777874776223e-09  -6.9838874316366131e-09  -6.9593142667746683e-09  -6.9429309901480068e-09  -6.9349921644690554e-09  -6.9356305223863724e-09  -6.9448209358532746e-09  -6.9623438338781714e-09  -6.9878248190509190e-09  -7.0207636696829368e-09  -7.0603809093293820e-09  -7.1048569434869516e-09  -7.1503694921630608e-09  -7.1926780762084032e-09  -7.2300595833760702e-09  -7.2573011136713054e-09  -7.2678103950577977e-09  -7.2777558817517875e-09  -7.2878520404843877e-09  -7.2918434661036653e-09  -7.2920129872507687e-09  -7.2909280366634646e-09  -7.2900228090550900e-09  -7.2906132248312437e-09  -7.2919488074973106e-09  -1.8769246402348822e-09  -7.2904619012863546e-09  -8.6441243821146572e-09  -8.6427175574247386e-09  -8.6431597631008937e-09  -8.6438097647056443e-09  -8.6371150422218281e-09  -8.6021357878707779e-09  -8.5230117071941371e-09  -8.4434298040859376e-09  -8.3448701934320002e-09  -8.1805421683526689e-09  -7.9467386371101324e-09  -7.6347330203615466e-09  -7.2284977560438424e-09  -6.7148572610317994e-09  -6.0952439643518584e-09  -5.3898353981069883e-09  -4.6506651809332608e-09  -3.9751238341763209e-09  -3.4993899202563370e-09  -3.3495815187348046e-09  -3.5673765290276444e-09  -4.0828271002943443e-09  -4.7657986200959921e-09  -5.4948218735801871e-09  -6.1881406697651117e-09  -6.7956644551335654e-09  -7.2869573048072352e-09  -7.6688093771292530e-09  -7.9790177429233306e-09  -8.2108324859824528e-09  -8.3444036285846155e-09  -8.4844919200595117e-09  -8.5972246027817286e-09  -8.6362987165561404e-09  -8.6447053525955871e-09  -8.6445521174173335e-09  -8.6430614822248761e-09  -8.6431138457575022e-09  -8.6446457767900551e-09  -7.2918658267406915e-09  -7.2803261130111633e-09  -8.6369512578737917e-09  -8.6366828402187899e-09  -8.6160469698819015e-09  -8.5223000077518187e-09  -8.3657786884144099e-09  -7.8982670037252539e-09  -5.2590152638346388e-09  5.0757439902799302e-02  1.8275097665560319e-01  3.0611987349266223e-01  4.2463729485129453e-01  5.2888349752966146e-01  6.1749782054065172e-01  6.8949724553935532e-01  7.4627098716124451e-01  7.8961805533177931e-01  8.2118062848240503e-01  8.4233883147883248e-01  8.5415413425256337e-01  8.5729135560572345e-01  8.5196777603105522e-01  8.3794363616961220e-01  8.1454649649880706e-01  7.8072798023259293e-01  7.3512932445194101e-01  6.7612723193508062e-01  6.0191911660673103e-01  5.1114880436311116e-01  4.0451053245480079e-01  2.8454516411062197e-01  1.5801483800946967e-01  3.1259397367075524e-02  -5.6402402665717009e-09  -7.8533391368351499e-09  -8.3995515325879003e-09  -8.6105786725795267e-09  -8.6395203079871179e-09  -8.6373133205092572e-09  -8.6389106767983532e-09  -7.2882679745046688e-09  -7.2412256723808059e-09  -8.6142030511354225e-09  -8.5697740995567213e-09  -8.3379776222033568e-09  -5.7338582819944847e-09  2.0642024345167564e-01  5.2832109853189935e-01  8.6303723471758265e-01  1.0000000018538864e+00  1.0000000066934884e+00  1.0000000077453586e+00  1.0000000082001770e+00  1.0000000084464271e+00  1.0000000085972154e+00  1.0000000086973482e+00  1.0000000087661345e+00  1.0000000088132428e+00  1.0000000088447849e+00  1.0000000088645500e+00  1.0000000088746679e+00  1.0000000088760965e+00  1.0000000088689480e+00  1.0000000088526440e+00  1.0000000088257872e+00  1.0000000087857115e+00  1.0000000087277146e+00  1.0000000086438463e+00  1.0000000085211127e+00  1.0000000083369016e+00  1.0000000080377194e+00  1.0000000074601456e+00  1.0000000059704985e+00  9.9999999821886065e-01  8.2558456447480910e-01  4.8916397711062737e-01  1.5652603340933821e-01  -5.5783642566969203e-09  -8.3652871687226530e-09  -8.6242891983741479e-09  -8.6173301944179566e-09  -7.2734581551794688e-09  -7.1011903576737335e-09  -8.5518869254747473e-09  -7.6842347788804063e-09  2.4851270600126707e-01  9.5909761578086405e-01  1.0000000075797248e+00  1.0000000087765466e+00  1.0000000090974897e+00  1.0000000092578114e+00  1.0000000093636112e+00  1.0000000094317087e+00  1.0000000094748158e+00  1.0000000095042254e+00  1.0000000095253172e+00  1.0000000095408501e+00  1.0000000095523740e+00  1.0000000095608228e+00  1.0000000095668100e+00  1.0000000095707486e+00  1.0000000095729074e+00  1.0000000095734400e+00  1.0000000095723984e+00  1.0000000095697372e+00  1.0000000095653059e+00  1.0000000095588333e+00  1.0000000095499000e+00  1.0000000095378829e+00  1.0000000095218133e+00  1.0000000095000412e+00  1.0000000094695689e+00  1.0000000094246571e+00  1.0000000093532737e+00  1.0000000092276224e+00  1.0000000090009205e+00  1.0000000085325009e+00  1.0000000068541688e+00  8.7345079019454874e-01  2.2481268532877582e-01  -7.6618268827091927e-09  -8.5626511079996289e-09  -7.2231593286487693e-09  -7.0694194155463037e-09  -7.5840850998631704e-09  8.0610937824463880e-01  1.0000000086637408e+00  1.0000000093359072e+00  1.0000000095216328e+00  1.0000000096207384e+00  1.0000000096714226e+00  1.0000000097003430e+00  1.0000000097178203e+00  1.0000000097285930e+00  1.0000000097354402e+00  1.0000000097400212e+00  1.0000000097432744e+00  1.0000000097457027e+00  1.0000000097475641e+00  1.0000000097489850e+00  1.0000000097500297e+00  1.0000000097507327e+00  1.0000000097511148e+00  1.0000000097511881e+00  1.0000000097509585e+00  1.0000000097504260e+00  1.0000000097495845e+00  1.0000000097484183e+00  1.0000000097468980e+00  1.0000000097449659e+00  1.0000000097425008e+00  1.0000000097392479e+00  1.0000000097347062e+00  1.0000000097279504e+00  1.0000000097173456e+00  1.0000000097000901e+00  1.0000000096711423e+00  1.0000000096193360e+00  1.0000000095130550e+00  1.0000000092396077e+00  1.0000000082094629e+00  6.2001760939742812e-01  -7.9831309337676961e-09  -6.7815736254284987e-09  1.5594380307145743e-07  1.0000000079661566e+00  1.0000000095436241e+00  1.0000000097224153e+00  1.0000000097829520e+00  1.0000000098090174e+00  1.0000000098207074e+00  1.0000000098259421e+00  1.0000000098280766e+00  1.0000000098286026e+00  1.0000000098282571e+00  1.0000000098274895e+00  1.0000000098266011e+00  1.0000000098257731e+00  1.0000000098250916e+00  1.0000000098245758e+00  1.0000000098242090e+00  1.0000000098239599e+00  1.0000000098237973e+00  1.0000000098236967e+00  1.0000000098236437e+00  1.0000000098236344e+00  1.0000000098236768e+00  1.0000000098237896e+00  1.0000000098240016e+00  1.0000000098243496e+00  1.0000000098248705e+00  1.0000000098255895e+00  1.0000000098264972e+00  1.0000000098275235e+00  1.0000000098285078e+00  1.0000000098291715e+00  1.0000000098290758e+00  1.0000000098274731e+00  1.0000000098228419e+00  1.0000000098117483e+00  1.0000000097855068e+00  1.0000000097161044e+00  1.0000000094631771e+00  9.9999999534973516e-01  -6.7747666681118792e-09  1.0000000097348813e+00  1.0000000098621715e+00  1.0000000098907813e+00  1.0000000099000730e+00  1.0000000099003261e+00  1.0000000098969151e+00  1.0000000098920789e+00  1.0000000098869244e+00  1.0000000098820125e+00  1.0000000098775863e+00  1.0000000098737232e+00  1.0000000098704276e+00  1.0000000098676807e+00  1.0000000098654485e+00  1.0000000098636828e+00  1.0000000098623252e+00  1.0000000098613133e+00  1.0000000098605892e+00  1.0000000098601038e+00  1.0000000098598212e+00  1.0000000098597202e+00  1.0000000098597941e+00  1.0000000098600523e+00  1.0000000098605193e+00  1.0000000098612343e+00  1.0000000098622497e+00  1.0000000098636286e+00  1.0000000098654391e+00  1.0000000098677482e+00  1.0000000098706139e+00  1.0000000098740820e+00  1.0000000098781823e+00  1.0000000098829149e+00  1.0000000098882080e+00  1.0000000098938229e+00  1.0000000098992141e+00  1.0000000099033006e+00  1.0000000099039139e+00  1.0000000098957316e+00  1.0000000098621071e+00  1.0000000092871690e+00  1.0000000099396922e+00  1.0000000099623225e+00  1.0000000099573574e+00  1.0000000099499722e+00  1.0000000099414073e+00  1.0000000099324036e+00  1.0000000099236035e+00  1.0000000099154680e+00  1.0000000099082529e+00  1.0000000099020470e+00  1.0000000098968258e+00  1.0000000098925064e+00  1.0000000098889865e+00  1.0000000098861623e+00  1.0000000098839361e+00  1.0000000098822173e+00  1.0000000098809254e+00  1.0000000098799919e+00  1.0000000098793627e+00  1.0000000098789981e+00  1.0000000098788753e+00  1.0000000098789870e+00  1.0000000098793422e+00  1.0000000098799664e+00  1.0000000098809008e+00  1.0000000098822019e+00  1.0000000098839414e+00  1.0000000098862034e+00  1.0000000098890829e+00  1.0000000098926836e+00  1.0000000098971142e+00  1.0000000099024815e+00  1.0000000099088691e+00  1.0000000099162993e+00  1.0000000099246789e+00  1.0000000099337414e+00  1.0000000099430111e+00  1.0000000099518074e+00  1.0000000099592534e+00  1.0000000099642781e+00  1.0000000099147732e+00  1.0000000099660211e+00  1.0000000099797741e+00  1.0000000099743021e+00  1.0000000099664956e+00  1.0000000099572606e+00  1.0000000099474253e+00  1.0000000099377377e+00  1.0000000099287307e+00  1.0000000099207185e+00  1.0000000099138255e+00  1.0000000099080399e+00  1.0000000099032731e+00  1.0000000098994042e+00  1.0000000098963076e+00  1.0000000098938659e+00  1.0000000098919757e+00  1.0000000098905488e+00  1.0000000098895130e+00  1.0000000098888122e+00  1.0000000098884068e+00  1.0000000098882733e+00  1.0000000098884043e+00  1.0000000098888084e+00  1.0000000098895103e+00  1.0000000098905506e+00  1.0000000098919863e+00  1.0000000098938913e+00  1.0000000098963544e+00  1.0000000098994815e+00  1.0000000099033910e+00  1.0000000099082109e+00  1.0000000099140629e+00  1.0000000099210358e+00  1.0000000099291384e+00  1.0000000099382416e+00  1.0000000099480169e+00  1.0000000099579083e+00  1.0000000099671578e+00  1.0000000099748840e+00  1.0000000099801545e+00  1.0000000099614723e+00  1.0000000099699462e+00  1.0000000099831763e+00  1.0000000099781787e+00  1.0000000099707453e+00  1.0000000099616433e+00  1.0000000099517561e+00  1.0000000099418906e+00  1.0000000099326434e+00  1.0000000099243778e+00  1.0000000099172470e+00  1.0000000099112549e+00  1.0000000099063164e+00  1.0000000099023079e+00  1.0000000098990971e+00  1.0000000098965607e+00  1.0000000098945918e+00  1.0000000098930999e+00  1.0000000098920132e+00  1.0000000098912762e+00  1.0000000098908499e+00  1.0000000098907114e+00  1.0000000098908532e+00  1.0000000098912836e+00  1.0000000098920254e+00  1.0000000098931179e+00  1.0000000098946165e+00  1.0000000098965924e+00  1.0000000098991351e+00  1.0000000099023505e+00  1.0000000099063611e+00  1.0000000099112976e+00  1.0000000099172843e+00  1.0000000099244073e+00  1.0000000099326645e+00  1.0000000099419040e+00  1.0000000099517636e+00  1.0000000099616473e+00  1.0000000099707478e+00  1.0000000099781803e+00  1.0000000099831774e+00  1.0000000099699471e+00  1.0000000099614670e+00  1.0000000099801429e+00  1.0000000099748469e+00  1.0000000099670767e+00  1.0000000099577628e+00  1.0000000099477862e+00  1.0000000099379069e+00  1.0000000099286879e+00  1.0000000099204658e+00  1.0000000099133788e+00  1.0000000099074222e+00  1.0000000099025075e+00  1.0000000098985098e+00  1.0000000098952979e+00  1.0000000098927517e+00  1.0000000098907669e+00  1.0000000098892567e+00  1.0000000098881525e+00  1.0000000098874016e+00  1.0000000098869672e+00  1.0000000098868278e+00  1.0000000098869761e+00  1.0000000098874195e+00  1.0000000098881789e+00  1.0000000098892905e+00  1.0000000098908053e+00  1.0000000098927904e+00  1.0000000098953288e+00  1.0000000098985204e+00  1.0000000099024817e+00  1.0000000099073396e+00  1.0000000099132182e+00  1.0000000099202084e+00  1.0000000099283213e+00  1.0000000099374275e+00  1.0000000099472066e+00  1.0000000099571205e+00  1.0000000099664168e+00  1.0000000099742667e+00  1.0000000099797643e+00  1.0000000099660187e+00  1.0000000099147379e+00  1.0000000099642248e+00  1.0000000099591080e+00  1.0000000099515369e+00  1.0000000099425794e+00  1.0000000099331112e+00  1.0000000099238167e+00  1.0000000099151838e+00  1.0000000099074968e+00  1.0000000099008672e+00  1.0000000098952790e+00  1.0000000098906445e+00  1.0000000098868487e+00  1.0000000098837756e+00  1.0000000098813204e+00  1.0000000098793922e+00  1.0000000098779160e+00  1.0000000098768311e+00  1.0000000098760906e+00  1.0000000098756627e+00  1.0000000098755277e+00  1.0000000098756794e+00  1.0000000098761235e+00  1.0000000098768784e+00  1.0000000098779751e+00  1.0000000098794568e+00  1.0000000098813808e+00  1.0000000098838171e+00  1.0000000098868480e+00  1.0000000098905697e+00  1.0000000098950892e+00  1.0000000099005173e+00  1.0000000099069433e+00  1.0000000099143898e+00  1.0000000099227562e+00  1.0000000099317723e+00  1.0000000099409656e+00  1.0000000099496886e+00  1.0000000099572011e+00  1.0000000099622637e+00  1.0000000099396760e+00  1.0000000092857375e+00  1.0000000098614965e+00  1.0000000098948918e+00  1.0000000099028568e+00  1.0000000099019695e+00  1.0000000098975421e+00  1.0000000098917468e+00  1.0000000098856874e+00  1.0000000098799502e+00  1.0000000098748072e+00  1.0000000098703365e+00  1.0000000098665212e+00  1.0000000098633111e+00  1.0000000098606499e+00  1.0000000098584805e+00  1.0000000098567492e+00  1.0000000098554069e+00  1.0000000098544111e+00  1.0000000098537278e+00  1.0000000098533335e+00  1.0000000098532138e+00  1.0000000098533641e+00  1.0000000098537885e+00  1.0000000098544992e+00  1.0000000098555175e+00  1.0000000098568731e+00  1.0000000098586035e+00  1.0000000098607507e+00  1.0000000098633568e+00  1.0000000098664612e+00  1.0000000098701016e+00  1.0000000098743149e+00  1.0000000098791166e+00  1.0000000098844311e+00  1.0000000098899910e+00  1.0000000098952042e+00  1.0000000098989403e+00  1.0000000098989483e+00  1.0000000098898554e+00  1.0000000098614639e+00  1.0000000097345496e+00  -6.7815854923340898e-09  9.9999999277930873e-01  1.0000000094517625e+00  1.0000000097094703e+00  1.0000000097800610e+00  1.0000000098063833e+00  1.0000000098171000e+00  1.0000000098211346e+00  1.0000000098220967e+00  1.0000000098216064e+00  1.0000000098204056e+00  1.0000000098188817e+00  1.0000000098172777e+00  1.0000000098157471e+00  1.0000000098143786e+00  1.0000000098132167e+00  1.0000000098122768e+00  1.0000000098115598e+00  1.0000000098110604e+00  1.0000000098107744e+00  1.0000000098106998e+00  1.0000000098108364e+00  1.0000000098111843e+00  1.0000000098117430e+00  1.0000000098125121e+00  1.0000000098134911e+00  1.0000000098146744e+00  1.0000000098160411e+00  1.0000000098175339e+00  1.0000000098190340e+00  1.0000000098203476e+00  1.0000000098211963e+00  1.0000000098211919e+00  1.0000000098196122e+00  1.0000000098148893e+00  1.0000000098035209e+00  1.0000000097773842e+00  1.0000000097168369e+00  1.0000000095348818e+00  1.0000000078921354e+00  9.9797940559439452e-08  -6.7924404750703334e-09  -8.0195446489724444e-09  5.9362452243930575e-01  1.0000000081033866e+00  1.0000000091990835e+00  1.0000000094851360e+00  1.0000000095967718e+00  1.0000000096500052e+00  1.0000000096792296e+00  1.0000000096964481e+00  1.0000000097067443e+00  1.0000000097128638e+00  1.0000000097164894e+00  1.0000000097186317e+00  1.0000000097198880e+00  1.0000000097206190e+00  1.0000000097210422e+00  1.0000000097212853e+00  1.0000000097214263e+00  1.0000000097215183e+00  1.0000000097215949e+00  1.0000000097216697e+00  1.0000000097217334e+00  1.0000000097217494e+00  1.0000000097216541e+00  1.0000000097213579e+00  1.0000000097207329e+00  1.0000000097195789e+00  1.0000000097175412e+00  1.0000000097139952e+00  1.0000000097078523e+00  1.0000000096973329e+00  1.0000000096797674e+00  1.0000000096503632e+00  1.0000000095981239e+00  1.0000000094977473e+00  1.0000000093062693e+00  1.0000000085800025e+00  7.6949853482253638e-01  -7.6411560330594880e-09  -7.0704102927162478e-09  -7.2376905431065413e-09  -8.5703828562536199e-09  -7.7328783412673159e-09  1.9884017653989106e-01  8.1249016724859324e-01  1.0000000062388965e+00  1.0000000083464946e+00  1.0000000088698056e+00  1.0000000091120922e+00  1.0000000092548620e+00  1.0000000093355883e+00  1.0000000093840615e+00  1.0000000094152621e+00  1.0000000094362913e+00  1.0000000094508574e+00  1.0000000094611281e+00  1.0000000094684085e+00  1.0000000094734849e+00  1.0000000094768560e+00  1.0000000094788530e+00  1.0000000094796786e+00  1.0000000094794115e+00  1.0000000094779999e+00  1.0000000094752475e+00  1.0000000094707961e+00  1.0000000094641079e+00  1.0000000094544228e+00  1.0000000094406001e+00  1.0000000094206964e+00  1.0000000093913188e+00  1.0000000093454964e+00  1.0000000092688750e+00  1.0000000091629371e+00  1.0000000089967362e+00  1.0000000086166698e+00  1.0000000070882518e+00  8.8813544770370878e-01  2.1965839475746993e-01  -7.7545246442051089e-09  -8.5608902170467575e-09  -7.1202876633555640e-09  -7.2821294460944975e-09  -8.6260609901240411e-09  -8.6205364944286799e-09  -8.3832208053738291e-09  -6.2360854825429383e-09  1.1749891083117278e-01  4.1496767168964022e-01  7.0245991785873785e-01  9.7517356005743883e-01  1.0000000017776018e+00  1.0000000058774359e+00  1.0000000070456514e+00  1.0000000075739497e+00  1.0000000078634104e+00  1.0000000080413172e+00  1.0000000081596563e+00  1.0000000082399869e+00  1.0000000082934257e+00  1.0000000083278120e+00  1.0000000083482139e+00  1.0000000083575478e+00  1.0000000083569467e+00  1.0000000083459961e+00  1.0000000083225176e+00  1.0000000082816451e+00  1.0000000082158857e+00  1.0000000081161631e+00  1.0000000079651052e+00  1.0000000077226019e+00  1.0000000073097000e+00  1.0000000064316865e+00  1.0000000036346059e+00  9.9999988107715509e-01  7.2922848766819470e-01  4.5359329675038590e-01  1.5606954592774891e-01  -6.4369602217103483e-09  -8.3550472687281056e-09  -8.5688728699788525e-09  -8.6208305693926172e-09  -7.2543725658255918e-09  -7.2915087946020036e-09  -8.6426962740193993e-09  -8.6363553782325928e-09  -8.6288203529342103e-09  -8.5968159714039113e-09  -8.4149250960631932e-09  -7.9934168382592967e-09  -6.9281781806378606e-09  1.8045592412625421e-09  6.0918863624309261e-02  1.5314435705867790e-01  2.3519635985547505e-01  3.0854399825120821e-01  3.6974758775626787e-01  4.1939427959905828e-01  4.5831931439495577e-01  4.8804019266850107e-01  5.0992626286514142e-01  5.2510362081115214e-01  5.3433579776019291e-01  5.3797911517017816e-01  5.3612988725716559e-01  5.2862481565297392e-01  5.1502825735162394e-01  4.9460325195074667e-01  4.6624482726581029e-01  4.2866627118374356e-01  3.8059821481957878e-01  3.2086075827689370e-01  2.4926593778156242e-01  1.6647956217013496e-01  8.1736632680352264e-02  7.6784943684267639e-09  -6.8778657306596668e-09  -8.0449422497324559e-09  -8.3770435333570923e-09  -8.5122289219614688e-09  -8.6077916611547132e-09  -8.6350107253348607e-09  -8.6409097461697150e-09  -7.2870514419376658e-09  -7.2917532954915637e-09  -8.6449032179320378e-09  -8.6415442312964223e-09  -8.6368112789542448e-09  -8.6325955587470524e-09  -8.6290058231208455e-09  -8.6205003271770979e-09  -8.5939709456527396e-09  -8.5295969140682890e-09  -8.4362166044381662e-09  -8.3583347813876855e-09  -8.2688756296142864e-09  -8.1512437691162337e-09  -8.0311127019554670e-09  -7.9180939222024693e-09  -7.8130958525254769e-09  -7.7167036338853863e-09  -7.6361833925882849e-09  -7.5776863890180733e-09  -7.5419014686627347e-09  -7.5287082918851386e-09  -7.5378245656792223e-09  -7.5687687462785505e-09  -7.6206603650187339e-09  -7.6926995733218916e-09  -7.7848634124688372e-09  -7.8947277140811268e-09  -8.0138329339913589e-09  -8.1341654849329052e-09  -8.2501615408834295e-09  -8.3480208176500140e-09  -8.4272137699711355e-09  -8.4752867812528913e-09  -8.5331632506564730e-09  -8.5941412363411523e-09  -8.6214831665742106e-09  -8.6316522957886688e-09  -8.6363817516059617e-09  -8.6410065493265053e-09  -8.6446406867636712e-09  -7.2920313368316264e-09  -7.290