<?xml version="1.0"?>
<VTKFile type="UnstructuredGrid"  version="0.1"  >
<UnstructuredGrid>
<Piece  NumberOfPoints="1681" NumberOfCells="3200">
<Points>
<DataArray  type="Float64"  NumberOfComponents="3"  format="ascii">0 0 0  0.025 0 0  0.05 0 0  0.075 0 0  0.1 0 0  0.125 0 0  0.15 0 0  0.175 0 0  0.2 0 0  0.225 0 0  0.25 0 0  0.275 0 0  0.3 0 0  0.325 0 0  0.35 0 0  0.375 0 0  0.4 0 0  0.425 0 0  0.45 0 0  0.475 0 0  0.5 0 0  0.525 0 0  0.55 0 0  0.575 0 0  0.6 0 0  0.625 0 0  0.65 0 0  0.675 0 0  0.7 0 0  0.725 0 0  0.75 0 0  0.775 0 0  0.8 0 0  0.825 0 0  0.85 0 0  0.875 0 0  0.9 0 0  0.925 0 0  0.95 0 0  0.975 0 0  1 0 0  0 0.025 0  0.025 0.025 0  0.05 0.025 0  0.075 0.025 0  0.1 0.025 0  0.125 0.025 0  0.15 0.025 0  0.175 0.025 0  0.2 0.025 0  0.225 0.025 0  0.25 0.025 0  0.275 0.025 0  0.3 0.025 0  0.325 0.025 0  0.35 0.025 0  0.375 0.025 0  0.4 0.025 0  0.425 0.025 0  0.45 0.025 0  0.475 0.025 0  0.5 0.025 0  0.525 0.025 0  0.55 0.025 0  0.575 0.025 0  0.6 0.025 0  0.625 0.025 0  0.65 0.025 0  0.675 0.025 0  0.7 0.025 0  0.725 0.025 0  0.75 0.025 0  0.775 0.025 0  0.8 0.025 0  0.825 0.025 0  0.85 0.025 0  0.875 0.025 0  0.9 0.025 0  0.925 0.025 0  0.95 0.025 0  0.975 0.025 0  1 0.025 0  0 0.05 0  0.025 0.05 0  0.05 0.05 0  0.075 0.05 0  0.1 0.05 0  0.125 0.05 0  0.15 0.05 0  0.175 0.05 0  0.2 0.05 0  0.225 0.05 0  0.25 0.05 0  0.275 0.05 0  0.3 0.05 0  0.325 0.05 0  0.35 0.05 0  0.375 0.05 0  0.4 0.05 0  0.425 0.05 0  0.45 0.05 0  0.475 0.05 0  0.5 0.05 0  0.525 0.05 0  0.55 0.05 0  0.575 0.05 0  0.6 0.05 0  0.625 0.05 0  0.65 0.05 0  0.675 0.05 0  0.7 0.05 0  0.725 0.05 0  0.75 0.05 0  0.775 0.05 0  0.8 0.05 0  0.825 0.05 0  0.85 0.05 0  0.875 0.05 0  0.9 0.05 0  0.925 0.05 0  0.95 0.05 0  0.975 0.05 0  1 0.05 0  0 0.075 0  0.025 0.075 0  0.05 0.075 0  0.075 0.075 0  0.1 0.075 0  0.125 0.075 0  0.15 0.075 0  0.175 0.075 0  0.2 0.075 0  0.225 0.075 0  0.25 0.075 0  0.275 0.075 0  0.3 0.075 0  0.325 0.075 0  0.35 0.075 0  0.375 0.075 0  0.4 0.075 0  0.425 0.075 0  0.45 0.075 0  0.475 0.075 0  0.5 0.075 0  0.525 0.075 0  0.55 0.075 0  0.575 0.075 0  0.6 0.075 0  0.625 0.075 0  0.65 0.075 0  0.675 0.075 0  0.7 0.075 0  0.725 0.075 0  0.75 0.075 0  0.775 0.075 0  0.8 0.075 0  0.825 0.075 0  0.85 0.075 0  0.875 0.075 0  0.9 0.075 0  0.925 0.075 0  0.95 0.075 0  0.975 0.075 0  1 0.075 0  0 0.1 0  0.025 0.1 0  0.05 0.1 0  0.075 0.1 0  0.1 0.1 0  0.125 0.1 0  0.15 0.1 0  0.175 0.1 0  0.2 0.1 0  0.225 0.1 0  0.25 0.1 0  0.275 0.1 0  0.3 0.1 0  0.325 0.1 0  0.35 0.1 0  0.375 0.1 0  0.4 0.1 0  0.425 0.1 0  0.45 0.1 0  0.475 0.1 0  0.5 0.1 0  0.525 0.1 0  0.55 0.1 0  0.575 0.1 0  0.6 0.1 0  0.625 0.1 0  0.65 0.1 0  0.675 0.1 0  0.7 0.1 0  0.725 0.1 0  0.75 0.1 0  0.775 0.1 0  0.8 0.1 0  0.825 0.1 0  0.85 0.1 0  0.875 0.1 0  0.9 0.1 0  0.925 0.1 0  0.95 0.1 0  0.975 0.1 0  1 0.1 0  0 0.125 0  0.025 0.125 0  0.05 0.125 0  0.075 0.125 0  0.1 0.125 0  0.125 0.125 0  0.15 0.125 0  0.175 0.125 0  0.2 0.125 0  0.225 0.125 0  0.25 0.125 0  0.275 0.125 0  0.3 0.125 0  0.325 0.125 0  0.35 0.125 0  0.375 0.125 0  0.4 0.125 0  0.425 0.125 0  0.45 0.125 0  0.475 0.125 0  0.5 0.125 0  0.525 0.125 0  0.55 0.125 0  0.575 0.125 0  0.6 0.125 0  0.625 0.125 0  0.65 0.125 0  0.675 0.125 0  0.7 0.125 0  0.725 0.125 0  0.75 0.125 0  0.775 0.125 0  0.8 0.125 0  0.825 0.125 0  0.85 0.125 0  0.875 0.125 0  0.9 0.125 0  0.925 0.125 0  0.95 0.125 0  0.975 0.125 0  1 0.125 0  0 0.15 0  0.025 0.15 0  0.05 0.15 0  0.075 0.15 0  0.1 0.15 0  0.125 0.15 0  0.15 0.15 0  0.175 0.15 0  0.2 0.15 0  0.225 0.15 0  0.25 0.15 0  0.275 0.15 0  0.3 0.15 0  0.325 0.15 0  0.35 0.15 0  0.375 0.15 0  0.4 0.15 0  0.425 0.15 0  0.45 0.15 0  0.475 0.15 0  0.5 0.15 0  0.525 0.15 0  0.55 0.15 0  0.575 0.15 0  0.6 0.15 0  0.625 0.15 0  0.65 0.15 0  0.675 0.15 0  0.7 0.15 0  0.725 0.15 0  0.75 0.15 0  0.775 0.15 0  0.8 0.15 0  0.825 0.15 0  0.85 0.15 0  0.875 0.15 0  0.9 0.15 0  0.925 0.15 0  0.95 0.15 0  0.975 0.15 0  1 0.15 0  0 0.175 0  0.025 0.175 0  0.05 0.175 0  0.075 0.175 0  0.1 0.175 0  0.125 0.175 0  0.15 0.175 0  0.175 0.175 0  0.2 0.175 0  0.225 0.175 0  0.25 0.175 0  0.275 0.175 0  0.3 0.175 0  0.325 0.175 0  0.35 0.175 0  0.375 0.175 0  0.4 0.175 0  0.425 0.175 0  0.45 0.175 0  0.475 0.175 0  0.5 0.175 0  0.525 0.175 0  0.55 0.175 0  0.575 0.175 0  0.6 0.175 0  0.625 0.175 0  0.65 0.175 0  0.675 0.175 0  0.7 0.175 0  0.725 0.175 0  0.75 0.175 0  0.775 0.175 0  0.8 0.175 0  0.825 0.175 0  0.85 0.175 0  0.875 0.175 0  0.9 0.175 0  0.925 0.175 0  0.95 0.175 0  0.975 0.175 0  1 0.175 0  0 0.2 0  0.025 0.2 0  0.05 0.2 0  0.075 0.2 0  0.1 0.2 0  0.125 0.2 0  0.15 0.2 0  0.175 0.2 0  0.2 0.2 0  0.225 0.2 0  0.25 0.2 0  0.275 0.2 0  0.3 0.2 0  0.325 0.2 0  0.35 0.2 0  0.375 0.2 0  0.4 0.2 0  0.425 0.2 0  0.45 0.2 0  0.475 0.2 0  0.5 0.2 0  0.525 0.2 0  0.55 0.2 0  0.575 0.2 0  0.6 0.2 0  0.625 0.2 0  0.65 0.2 0  0.675 0.2 0  0.7 0.2 0  0.725 0.2 0  0.75 0.2 0  0.775 0.2 0  0.8 0.2 0  0.825 0.2 0  0.85 0.2 0  0.875 0.2 0  0.9 0.2 0  0.925 0.2 0  0.95 0.2 0  0.975 0.2 0  1 0.2 0  0 0.225 0  0.025 0.225 0  0.05 0.225 0  0.075 0.225 0  0.1 0.225 0  0.125 0.225 0  0.15 0.225 0  0.175 0.225 0  0.2 0.225 0  0.225 0.225 0  0.25 0.225 0  0.275 0.225 0  0.3 0.225 0  0.325 0.225 0  0.35 0.225 0  0.375 0.225 0  0.4 0.225 0  0.425 0.225 0  0.45 0.225 0  0.475 0.225 0  0.5 0.225 0  0.525 0.225 0  0.55 0.225 0  0.575 0.225 0  0.6 0.225 0  0.625 0.225 0  0.65 0.225 0  0.675 0.225 0  0.7 0.225 0  0.725 0.225 0  0.75 0.225 0  0.775 0.225 0  0.8 0.225 0  0.825 0.225 0  0.85 0.225 0  0.875 0.225 0  0.9 0.225 0  0.925 0.225 0  0.95 0.225 0  0.975 0.225 0  1 0.225 0  0 0.25 0  0.025 0.25 0  0.05 0.25 0  0.075 0.25 0  0.1 0.25 0  0.125 0.25 0  0.15 0.25 0  0.175 0.25 0  0.2 0.25 0  0.225 0.25 0  0.25 0.25 0  0.275 0.25 0  0.3 0.25 0  0.325 0.25 0  0.35 0.25 0  0.375 0.25 0  0.4 0.25 0  0.425 0.25 0  0.45 0.25 0  0.475 0.25 0  0.5 0.25 0  0.525 0.25 0  0.55 0.25 0  0.575 0.25 0  0.6 0.25 0  0.625 0.25 0  0.65 0.25 0  0.675 0.25 0  0.7 0.25 0  0.725 0.25 0  0.75 0.25 0  0.775 0.25 0  0.8 0.25 0  0.825 0.25 0  0.85 0.25 0  0.875 0.25 0  0.9 0.25 0  0.925 0.25 0  0.95 0.25 0  0.975 0.25 0  1 0.25 0  0 0.275 0  0.025 0.275 0  0.05 0.275 0  0.075 0.275 0  0.1 0.275 0  0.125 0.275 0  0.15 0.275 0  0.175 0.275 0  0.2 0.275 0  0.225 0.275 0  0.25 0.275 0  0.275 0.275 0  0.3 0.275 0  0.325 0.275 0  0.35 0.275 0  0.375 0.275 0  0.4 0.275 0  0.425 0.275 0  0.45 0.275 0  0.475 0.275 0  0.5 0.275 0  0.525 0.275 0  0.55 0.275 0  0.575 0.275 0  0.6 0.275 0  0.625 0.275 0  0.65 0.275 0  0.675 0.275 0  0.7 0.275 0  0.725 0.275 0  0.75 0.275 0  0.775 0.275 0  0.8 0.275 0  0.825 0.275 0  0.85 0.275 0  0.875 0.275 0  0.9 0.275 0  0.925 0.275 0  0.95 0.275 0  0.975 0.275 0  1 0.275 0  0 0.3 0  0.025 0.3 0  0.05 0.3 0  0.075 0.3 0  0.1 0.3 0  0.125 0.3 0  0.15 0.3 0  0.175 0.3 0  0.2 0.3 0  0.225 0.3 0  0.25 0.3 0  0.275 0.3 0  0.3 0.3 0  0.325 0.3 0  0.35 0.3 0  0.375 0.3 0  0.4 0.3 0  0.425 0.3 0  0.45 0.3 0  0.475 0.3 0  0.5 0.3 0  0.525 0.3 0  0.55 0.3 0  0.575 0.3 0  0.6 0.3 0  0.625 0.3 0  0.65 0.3 0  0.675 0.3 0  0.7 0.3 0  0.725 0.3 0  0.75 0.3 0  0.775 0.3 0  0.8 0.3 0  0.825 0.3 0  0.85 0.3 0  0.875 0.3 0  0.9 0.3 0  0.925 0.3 0  0.95 0.3 0  0.975 0.3 0  1 0.3 0  0 0.325 0  0.025 0.325 0  0.05 0.325 0  0.075 0.325 0  0.1 0.325 0  0.125 0.325 0  0.15 0.325 0  0.175 0.325 0  0.2 0.325 0  0.225 0.325 0  0.25 0.325 0  0.275 0.325 0  0.3 0.325 0  0.325 0.325 0  0.35 0.325 0  0.375 0.325 0  0.4 0.325 0  0.425 0.325 0  0.45 0.325 0  0.475 0.325 0  0.5 0.325 0  0.525 0.325 0  0.55 0.325 0  0.575 0.325 0  0.6 0.325 0  0.625 0.325 0  0.65 0.325 0  0.675 0.325 0  0.7 0.325 0  0.725 0.325 0  0.75 0.325 0  0.775 0.325 0  0.8 0.325 0  0.825 0.325 0  0.85 0.325 0  0.875 0.325 0  0.9 0.325 0  0.925 0.325 0  0.95 0.325 0  0.975 0.325 0  1 0.325 0  0 0.35 0  0.025 0.35 0  0.05 0.35 0  0.075 0.35 0  0.1 0.35 0  0.125 0.35 0  0.15 0.35 0  0.175 0.35 0  0.2 0.35 0  0.225 0.35 0  0.25 0.35 0  0.275 0.35 0  0.3 0.35 0  0.325 0.35 0  0.35 0.35 0  0.375 0.35 0  0.4 0.35 0  0.425 0.35 0  0.45 0.35 0  0.475 0.35 0  0.5 0.35 0  0.525 0.35 0  0.55 0.35 0  0.575 0.35 0  0.6 0.35 0  0.625 0.35 0  0.65 0.35 0  0.675 0.35 0  0.7 0.35 0  0.725 0.35 0  0.75 0.35 0  0.775 0.35 0  0.8 0.35 0  0.825 0.35 0  0.85 0.35 0  0.875 0.35 0  0.9 0.35 0  0.925 0.35 0  0.95 0.35 0  0.975 0.35 0  1 0.35 0  0 0.375 0  0.025 0.375 0  0.05 0.375 0  0.075 0.375 0  0.1 0.375 0  0.125 0.375 0  0.15 0.375 0  0.175 0.375 0  0.2 0.375 0  0.225 0.375 0  0.25 0.375 0  0.275 0.375 0  0.3 0.375 0  0.325 0.375 0  0.35 0.375 0  0.375 0.375 0  0.4 0.375 0  0.425 0.375 0  0.45 0.375 0  0.475 0.375 0  0.5 0.375 0  0.525 0.375 0  0.55 0.375 0  0.575 0.375 0  0.6 0.375 0  0.625 0.375 0  0.65 0.375 0  0.675 0.375 0  0.7 0.375 0  0.725 0.375 0  0.75 0.375 0  0.775 0.375 0  0.8 0.375 0  0.825 0.375 0  0.85 0.375 0  0.875 0.375 0  0.9 0.375 0  0.925 0.375 0  0.95 0.375 0  0.975 0.375 0  1 0.375 0  0 0.4 0  0.025 0.4 0  0.05 0.4 0  0.075 0.4 0  0.1 0.4 0  0.125 0.4 0  0.15 0.4 0  0.175 0.4 0  0.2 0.4 0  0.225 0.4 0  0.25 0.4 0  0.275 0.4 0  0.3 0.4 0  0.325 0.4 0  0.35 0.4 0  0.375 0.4 0  0.4 0.4 0  0.425 0.4 0  0.45 0.4 0  0.475 0.4 0  0.5 0.4 0  0.525 0.4 0  0.55 0.4 0  0.575 0.4 0  0.6 0.4 0  0.625 0.4 0  0.65 0.4 0  0.675 0.4 0  0.7 0.4 0  0.725 0.4 0  0.75 0.4 0  0.775 0.4 0  0.8 0.4 0  0.825 0.4 0  0.85 0.4 0  0.875 0.4 0  0.9 0.4 0  0.925 0.4 0  0.95 0.4 0  0.975 0.4 0  1 0.4 0  0 0.425 0  0.025 0.425 0  0.05 0.425 0  0.075 0.425 0  0.1 0.425 0  0.125 0.425 0  0.15 0.425 0  0.175 0.425 0  0.2 0.425 0  0.225 0.425 0  0.25 0.425 0  0.275 0.425 0  0.3 0.425 0  0.325 0.425 0  0.35 0.425 0  0.375 0.425 0  0.4 0.425 0  0.425 0.425 0  0.45 0.425 0  0.475 0.425 0  0.5 0.425 0  0.525 0.425 0  0.55 0.425 0  0.575 0.425 0  0.6 0.425 0  0.625 0.425 0  0.65 0.425 0  0.675 0.425 0  0.7 0.425 0  0.725 0.425 0  0.75 0.425 0  0.775 0.425 0  0.8 0.425 0  0.825 0.425 0  0.85 0.425 0  0.875 0.425 0  0.9 0.425 0  0.925 0.425 0  0.95 0.425 0  0.975 0.425 0  1 0.425 0  0 0.45 0  0.02
[...]
<PointData  Scalars="ControlVisualisation"> 
<DataArray  type="Float64"  Name="ControlVisualisation"  format="ascii">2.0714174402800903e-01  1.5167726708670903e-01  1.5181479292416061e-01  1.5179260852251877e-01  1.5165701906169676e-01  1.5187903069848008e-01  1.5306278575645804e-01  1.5549411329006213e-01  1.5908062759597574e-01  1.6324281121745002e-01  1.6721258140660039e-01  1.7049792283448717e-01  1.7295454011927408e-01  1.7462630034766680e-01  1.7564813898237733e-01  1.7619515425151119e-01  1.7644043660565692e-01  1.7652406790661357e-01  1.7654110219741659e-01  1.7654687945764605e-01  1.7656974278547671e-01  1.7661927734809596e-01  1.7668350940261138e-01  1.7671720507782376e-01  1.7663029553301543e-01  1.7628609998342881e-01  1.7551267359520012e-01  1.7412232697686236e-01  1.7192772538923246e-01  1.6876569393398408e-01  1.6467051889725395e-01  1.6017637695346365e-01  1.5623252770656421e-01  1.5350049335721977e-01  1.5202364374920352e-01  1.5162103457172718e-01  1.5173128494854954e-01  1.5183015699969163e-01  1.5174138570919762e-01  1.5160158299587287e-01  3.1336443125021579e-01  1.5171564248046249e-01  8.3279347054573183e-02  8.3490279061317160e-02  8.3560347164866364e-02  8.4539128656365897e-02  8.9060889562522061e-02  9.8501301319378204e-02  1.1368622482521147e-01  1.3793870660771382e-01  1.7556896946111680e-01  2.2836974596408224e-01  2.9266077476090846e-01  3.5851731179245394e-01  4.1408343878566617e-01  4.5140171902128973e-01  4.6949247107613529e-01  4.7305661775624291e-01  4.6889182661736351e-01  4.6272433775129229e-01  4.5796713221850199e-01  4.5607633411388032e-01  4.5725797045442984e-01  4.6072335388930052e-01  4.6440765033032816e-01  4.6460548459438111e-01  4.5626766521699025e-01  4.3434120288185929e-01  3.9588222105407400e-01  3.4230554755717069e-01  2.8047558839665354e-01  2.2089227230544151e-01  1.7203492223868783e-01  1.3633106912684487e-01  1.1129202634637113e-01  9.4272048531623770e-02  8.5737760797257465e-02  8.3490855156671304e-02  8.3484782152323800e-02  8.3492744647616607e-02  8.3204293669476057e-02  1.5160568878990277e-01  1.5229228987610399e-01  8.3865362939832377e-02  8.4098191201526090e-02  8.8301559782282296e-02  1.0259753178186634e-01  1.5827226034383723e-01  3.8931099864632090e-01  7.7851452738044002e-01  8.4562951620785320e-01  8.7788010682630591e-01  9.0299642294441218e-01  9.1832097756338216e-01  9.2819716895931781e-01  9.3492136967345651e-01  9.3957283931784064e-01  9.4280042694662802e-01  9.4504726482407098e-01  9.4660692230210997e-01  9.4764535311953602e-01  9.4823461083414617e-01  9.4839444120275562e-01  9.4812324347122956e-01  9.4741083765624423e-01  9.4623099779721198e-01  9.4451053096086590e-01  9.4208112222560425e-01  9.3863822033421540e-01  9.3371382709576789e-01  9.2661198974793435e-01  9.1618937177443116e-01  9.0029078271589513e-01  8.7650928107324722e-01  8.5054397730304543e-01  7.3338905664530007e-01  3.3859428995791668e-01  1.5282499112306427e-01  1.0040401830063121e-01  8.5154584387755070e-02  8.3791879878722386e-02  8.3869307842894661e-02  1.5188437556057613e-01  1.5349474238907931e-01  8.4807715148085355e-02  9.1485713684673828e-02  1.4561110611412673e-01  4.6520340757975837e-01  7.9691207147301901e-01  9.1270067996966586e-01  9.4526501024284426e-01  9.5709474513273030e-01  9.6340964506378013e-01  9.6738657126805105e-01  9.7000586287699631e-01  9.7178137033881362e-01  9.7296017970007564e-01  9.7370867696045216e-01  9.7415270384774177e-01  9.7439095277392640e-01  9.7450212922100043e-01  9.7454627152792239e-01  9.7456375575128951e-01  9.7457590766806390e-01  9.7458792701225472e-01  9.7459126908373250e-01  9.7456275636727607e-01  9.7446104540322998e-01  9.7422360142631126e-01  9.7376551575495596e-01  9.7297634882879203e-01  9.7170817500987927e-01  9.6975121085126581e-01  9.6679746065565542e-01  9.6233256822435953e-01  9.5507983732919866e-01  9.4078537600568968e-01  9.0252414918233781e-01  7.7789769805671494e-01  4.1948158953118286e-01  1.3852570965869812e-01  8.7289506160124430e-02  8.4870214958311846e-02  1.5277180276262164e-01  1.5441225852638943e-01  9.0787581872870879e-02  2.0114122048588376e-01  8.1165004845596944e-01  9.3939221336185974e-01  9.6422379088634191e-01  9.7432787163918022e-01  9.7966877684640452e-01  9.8255859447358007e-01  9.8424616648393237e-01  9.8532329214668746e-01  9.8603482956575206e-01  9.8650711389907564e-01  9.8681537481212867e-01  9.8700847063650887e-01  9.8712082752285946e-01  9.8717854089015145e-01  9.8720206944927957e-01  9.8720715336665710e-01  9.8720498877944640e-01  9.8720224843693682e-01  9.8720112922216152e-01  9.8719940221729197e-01  9.8719043974665821e-01  9.8716324164725600e-01  9.8710242799810566e-01  9.8698794711671389e-01  9.8679389049598176e-01  9.8648536986137236e-01  9.8601182249142372e-01  9.8529368504621551e-01  9.8419450427130717e-01  9.8245308691510114e-01  9.7948691595084514e-01  9.7377696886251486e-01  9.6124203722383716e-01  9.2874986409636184e-01  7.4142880900982122e-01  1.8528112835934979e-01  8.7584431290172404e-02  1.5397224651228636e-01  1.5738911455852431e-01  1.8948987366170666e-01  9.2259174388446230e-01  9.7264063996101713e-01  9.8301950999530263e-01  9.8712313617965419e-01  9.8910801222327926e-01  9.9020360658044593e-01  9.9085356717242112e-01  9.9125746858855057e-01  9.9151923873724257e-01  9.9169444304783894e-01  9.9181349362357329e-01  9.9189395627499044e-01  9.9194674267786809e-01  9.9197936213164739e-01  9.9199758219152734e-01  9.9200613078229560e-01  9.9200886966842983e-01  9.9200872023876197e-01  9.9200753322741086e-01  9.9200599552317625e-01  9.9200360138575161e-01  9.9199869271643482e-01  9.9198856644071898e-01  9.9196961531577710e-01  9.9193739760388411e-01  9.9188644346216570e-01  9.9180952424559565e-01  9.9169599543750553e-01  9.9152853164116805e-01  9.9127686980829655e-01  9.9088564787491817e-01  9.9024933416602956e-01  9.8915171193617224e-01  9.8708537663764739e-01  9.8251357273607998e-01  9.6870678510628427e-01  8.8509540194612368e-01  1.3148766357302744e-01  1.5519131219430751e-01  6.2123642595396433e-01  9.6296726389390963e-01  9.8718972877864886e-01  9.9162170626465040e-01  9.9319674676311620e-01  9.9382984617352688e-01  9.9409463202758563e-01  9.9420085288156013e-01  9.9423454607048467e-01  9.9423597231597027e-01  9.9422526867490435e-01  9.9421225353022569e-01  9.9420095861009439e-01  9.9419238384183850e-01  9.9418614736229638e-01  9.9418147979193405e-01  9.9417773302978552e-01  9.9417456014216798e-01  9.9417189603158262e-01  9.9416984566017341e-01  9.9416856130824749e-01  9.9416815647933665e-01  9.9416867752790949e-01  9.9417013871859161e-01  9.9417261599549644e-01  9.9417637722554053e-01  9.9418199869506441e-01  9.9419038747255650e-01  9.9420260559407436e-01  9.9421937046389064e-01  9.9424007469589204e-01  9.9426111620012980e-01  9.9427318966861689e-01  9.9425647421814645e-01  9.9416978915935073e-01  9.9392226065436562e-01  9.9329012571958064e-01  9.9160503312730963e-01  9.8580695308591548e-01  9.3700770030613789e-01  1.8375217199314572e-01  9.9107693313030809e-01  9.9536182643271864e-01  9.9638138951235578e-01  9.9664575703414404e-01  9.9661097275017574e-01  9.9645577988860279e-01  9.9625837959236840e-01  9.9605967327646261e-01  9.9588004402647845e-01  9.9572796389497720e-01  9.9560523598674089e-01  9.9551005363424261e-01  9.9543876304243117e-01  9.9538699809894904e-01  9.9535041790744316e-01  9.9532516393296067e-01  9.9530808342775379e-01  9.9529678451093184e-01  9.9528958355081276e-01  9.9528540352653483e-01  9.9528367071276846e-01  9.9528424192520382e-01  9.9528737993868910e-01  9.9529378269624458e-01  9.9530466129446604e-01  9.9532184896255915e-01  9.9534790792467787e-01  9.9538618663666845e-01  9.9544076975200035e-01  9.9551625765146801e-01  9.9561731222015570e-01  9.9574790411817093e-01  9.9591016565394364e-01  9.9610255547642168e-01  9.9631671988603732e-01  9.9653251887456518e-01  9.9671018740536166e-01  9.9677318218863231e-01  9.9654418536105738e-01  9.9549674504091568e-01  9.7880595625494804e-01  9.9789036903995632e-01  9.9868781594974465e-01  9.9851669734322346e-01  9.9825576023620488e-01  9.9794677671181720e-01  9.9761733741230052e-01  9.9729362401705779e-01  9.9699587976146820e-01  9.9673629210481585e-01  9.9651974776598518e-01  9.9634571302466612e-01  9.9621034390014951e-01  9.9610814708545803e-01  9.9603312556653623e-01  9.9597951160187725e-01  9.9594219120476246e-01  9.9591690744584438e-01  9.9590031807172097e-01  9.9588996342704383e-01  9.9588418934189693e-01  9.9588206215353980e-01  9.9588330567574823e-01  9.9588827914081324e-01  9.9589800265209338e-01  9.9591422374084926e-01  9.9593950566702494e-01  9.9597730715725352e-01  9.9603201641756400e-01  9.9610889548005543e-01  9.9621387566546704e-01  9.9635312354587025e-01  9.9653228270961891e-01  9.9675529066915058e-01  9.9702264841677690e-01  9.9732925855109389e-01  9.9766246823768978e-01  9.9800147495191838e-01  9.9831888731517260e-01  9.9858248151547413e-01  9.9875549734255198e-01  9.9704442649602776e-01  9.9880319314752464e-01  9.9928759697514802e-01  9.9909415270330693e-01  9.9881606379068100e-01  9.9848376136624861e-01  9.9812652446903904e-01  9.9777295421517143e-01  9.9744476393930659e-01  9.9715558731010734e-01  9.9691168123838469e-01  9.9671357835054930e-01  9.9655795715073647e-01  9.9643934292173619e-01  9.9635145185639928e-01  9.9628809960548637e-01  9.9624370728198874e-01  9.9621353077185026e-01  9.9619374765156943e-01  9.9618147168773508e-01  9.9617471823239534e-01  9.9617234353539441e-01  9.9617399048571664e-01  9.9618006764103495e-01  9.9619177139563608e-01  9.9621114115098186e-01  9.9624112066565762e-01  9.9628559436479436e-01  9.9634937704663684e-01  9.9643813043100460e-01  9.9655812625449491e-01  9.9671571662777658e-01  9.9691640158567218e-01  9.9716348092742457e-01  9.9745633414634649e-01  9.9778848582476376e-01  9.9814573036015719e-01  9.9850556576825689e-01  9.9883902888710085e-01  9.9911481973978389e-01  9.9930125142868376e-01  9.9864457791163075e-01  9.9894043531652998e-01  9.9940596768512557e-01  9.9922765692133564e-01  9.9896113539757225e-01  9.9863271857550617e-01  9.9827352626729660e-01  9.9791374812409250e-01  9.9757698236214232e-01  9.9727807041574601e-01  9.9702385921402914e-01  9.9681563380104310e-01  9.9665084319589969e-01  9.9652446724706201e-01  9.9643034368593586e-01  9.9636223237708621e-01  9.9631441628254713e-01  9.9628194437991957e-01  9.9626073904961476e-01  9.9624766329560921e-01  9.9624053430889792e-01  9.9623808323200380e-01  9.9623990193536327e-01  9.9624641948222648e-01  9.9625892443349418e-01  9.9627961635591555e-01  9.9631164479538592e-01  9.9635909771966158e-01  9.9642694061309400e-01  9.9652091202991178e-01  9.9664726838332496e-01  9.9681216271193651e-01  9.9702058342673083e-01  9.9727506849762859e-01  9.9757434912108067e-01  9.9791155132895903e-01  9.9827182858263308e-01  9.9863162791545290e-01  9.9896064214034519e-01  9.9922757369573201e-01  9.9940604475975670e-01  9.9894056150041044e-01  9.9864365169502911e-01  9.9929932394959953e-01  9.9910946226067021e-01  9.9882980707962432e-01  9.9849306876686195e-01  9.9813064141608931e-01  9.9777089695025512e-01  9.9743563130502388e-01  9.9713822993471335e-01  9.9688469793258494e-01  9.9667619955316822e-01  9.9651057617174132e-01  9.9638329426597594e-01  9.9628851367679561e-01  9.9622011238814068e-01  9.9617233642267933e-01  9.9614011381301548e-01  9.9611923331895014e-01  9.9610645726092562e-01  9.9609954347641261e-01  9.9609719164463661e-01  9.9609897528179825e-01  9.9610531176096317e-01  9.9611748822750934e-01  9.9613772535640610e-01  9.9616922862670165e-01  9.9621616823056003e-01  9.9628357096327569e-01  9.9637714301204405e-01  9.9650295102877051e-01  9.9666676882113581e-01  9.9687306580740398e-01  9.9712397990002510e-01  9.9741841832809541e-01  9.9775055819469449e-01  9.9810756090726316e-01  9.9846850963506761e-01  9.9880534262412279e-01  9.9908839637757629e-01  9.9928583568413631e-01  9.9880276820048175e-01  9.9703718448024592e-01  9.9874518266447221e-01  9.9855888698913187e-01  9.9828391293376850e-01  9.9795828405683562e-01  9.9761379437985276e-01  9.9727592432186773e-01  9.9696272124968643e-01  9.9668471372226142e-01  9.9644684885428225e-01  9.9625051221877070e-01  9.9609436670431906e-01  9.9597474279545772e-01  9.9588637227652210e-01  9.9582335427352908e-01  9.9577995359427562e-01  9.9575110385715870e-01  9.9573267197574133e-01  9.9572154438029381e-01  9.9571558985298447e-01  9.9571357203212973e-01  9.9571507523227609e-01  9.9572047570447786e-01  9.9573096516711201e-01  9.9574861719535657e-01  9.9577646646036189e-01  9.9581854355987665e-01  9.9587979543541238e-01  9.9596582929855149e-01  9.9608241574064671e-01  9.9623469154232103e-01  9.9642619344619399e-01  9.9665812863719527e-01  9.9692903106697583e-01  9.9723405299258727e-01  9.9756306752552082e-01  9.9789862735569645e-01  9.9821672394540062e-01  9.9849043662096770e-01  9.9867656007023653e-01  9.9788713937296447e-01  9.7857928959576634e-01  9.9537315217120659e-01  9.9639285336806838e-01  9.9662058478517346e-01  9.9656057835031187e-01  9.9638651967706859e-01  9.9617076531147308e-01  9.9594876187016401e-01  9.9573868042760205e-01  9.9555104764883828e-01  9.9539237644506051e-01  9.9526545326196270e-01  9.9516928649712766e-01  9.9510000065488391e-01  9.9505231943769101e-01  9.9502088496087493e-01  9.9500103682157282e-01  9.9498909307683647e-01  9.9498234393915508e-01  9.9497894500606343e-01  9.9497781440773014e-01  9.9497857052585037e-01  9.9498151286927206e-01  9.9498764046551424e-01  9.9499870467895069e-01  9.9501729178756970e-01  9.9504691009912116e-01  9.9509199827886019e-01  9.9515767808182054e-01  9.9524902336142240e-01  9.9536973619901703e-01  9.9552061246827106e-01  9.9569852526261915e-01  9.9589644140517086e-01  9.9610336700356084e-01  9.9630068661143290e-01  9.9645183541963733e-01  9.9648319931134466e-01  9.9622342768030669e-01  9.9523133987262724e-01  9.9101531717220526e-01  1.7961654019696022e-01  9.2967989138093099e-01  9.8423731829343941e-01  9.9067653630802799e-01  9.9263799721096235e-01  9.9339749807792410e-01  9.9370780551163773e-01  9.9381583124384298e-01  9.9382235636009719e-01  9.9378168384746512e-01  9.9372770032806235e-01  9.9367974647469393e-01  9.9364574101081315e-01  9.9362607610338372e-01  9.9361761491801337e-01  9.9361652070062267e-01  9.9361953900169664e-01  9.9362423704240244e-01  9.9362885915672561e-01  9.9363217365674872e-01  9.9363340985615378e-01  9.9363225760722362e-01  9.9362888073135047e-01  9.9362391707423625e-01  9.9361847005638781e-01  9.9361412791021564e-01  9.9361305360121344e-01  9.9361810413657092e-01  9.9363268865597354e-01  9.9365968337017174e-01  9.9369867728252459e-01  9.9374190927547723e-01  9.9376998636201619e-01  9.9374866441707310e-01  9.9362310967855894e-01  9.9329706664797568e-01  9.9254860401045730e-01  9.9082004693798176e-01  9.8591074198729900e-01  9.5883329096905323e-01  5.9039293603545140e-01  1.5737096122844682e-01  1.1981451661967010e-01  8.9616683172751488e-01  9.6299363847138264e-01  9.7889762849837669e-01  9.8458705879999964e-01  9.8729272683813463e-01  9.8870578840208800e-01  9.8948105796108465e-01  9.8992542015879714e-01  9.9020089664876210e-01  9.9039272701810566e-01  9.9054092654865455e-01  9.9066087329890185e-01  9.9075781745643776e-01  9.9083459167153509e-01  9.9089389571585318e-01  9.9093817333565071e-01  9.9096918819917712e-01  9.9098793935953966e-01  9.9099482872641975e-01  9.9098986748933993e-01  9.9097278165652380e-01  9.9094296131461801e-01  9.9089926442996967e-01  9.9083976348511549e-01  9.9076161805313367e-01  9.9066128502105888e-01  9.9053480869819754e-01  9.9037636414530217e-01  9.9017184129646618e-01  9.8988559651820662e-01  9.8944035173507605e-01  9.8868285183125526e-01  9.8733024898256605e-01  9.8501463078533025e-01  9.8037129949880930e-01  9.6719739918449954e-01  9.1330595610265575e-01  1.7597183528249319e-01  1.5751150390979951e-01  1.5326692539815862e-01  8.5878083559431551e-02  1.4920172529947567e-01  8.6725571307056837e-01  9.3363197805616105e-01  9.5255097352572060e-01  9.6678986540575584e-01  9.7366628327105897e-01  9.7744012803108593e-01  9.7967294376418135e-01  9.8114630400607949e-01  9.8220176586589991e-01  9.8298781008475389e-01  9.8357581473890843e-01  9.8400984655583601e-01  9.8432558329446973e-01  9.8455238360916042e-01  9.8471183195226064e-01  9.8481805567905378e-01  9.8487939806992253e-01  9.8490016111568757e-01  9.8488178145633321e-01  9.8482327542555370e-01  9.8472095304713481e-01  9.8456742417533838e-01  9.8434995235609002e-01  9.8404850208051398e-01  9.8363479964070089e-01  9.8307434645246006e-01  9.8233105748861416e-01  9.8136229163238620e-01  9.8006482087075741e-01  9.7813008949685865e-01  9.7508834254906007e-01  9.6817406590469524e-01  9.5421061378467198e-01  9.3600332327703761e-01  8.8284978246222279e-01  1.6237360251433053e-01  8.7952848118579313e-02  1.5452764229392218e-01  1.5197632715143469e-01  8.3923972631336025e-02  8.4842874586521719e-02  1.1073132553649537e-01  2.8802236158131839e-01  7.8505057789631227e-01  9.1285452364892228e-01  9.4830263433796658e-01  9.4875773993158796e-01  9.5046939110897632e-01  9.5374445227593574e-01  9.5664461990666227e-01  9.5959076870412074e-01  9.6199801622365733e-01  9.6374963362051747e-01  9.6501425950893327e-01  9.6594558842975153e-01  9.6663182065870290e-01  9.6711356680022231e-01  9.6740579427381790e-01  9.6751288089120868e-01  9.6743707311540805e-01  9.6718109367580785e-01  9.6674476394760700e-01  9.6611493880655464e-01  9.6524748818933115e-01  9.6404148650074495e-01  9.6232416455080005e-01  9.5995550563208010e-01  9.5729595625889652e-01  9.5514670391280942e-01  9.5268919291988197e-01  9.5043553818445370e-01  9.5040122250265224e-01  9.2305296383240654e-01  8.1139229190424977e-01  3.0171701467350520e-01  1.1933433734075294e-01  8.8328903370988116e-02  8.3922650340980953e-02  1.5268549057543737e-01  1.5162958490531428e-01  8.3256798619587069e-02  8.3198812911808501e-02  8.4360015152048509e-02  9.0724350492896358e-02  1.0957553017760016e-01  1.5450294684608454e-01  2.8220267431571616e-01  7.7255251501760969e-01  9.9515886517142893e-01  8.6852611750731201e-01  8.9572165213922494e-01  9.2634398017506203e-01  9.3667015267826803e-01  9.3209886323198565e-01  9.2548081858238396e-01  9.2212453102277325e-01  9.2166634136275205e-01  9.2246796163671019e-01  9.2334282890140529e-01  9.2373209411462220e-01  9.2351163617714593e-01  9.2288902303392173e-01  9.2247112904398243e-01  9.2340988845327965e-01  9.2726809434660251e-01  9.3466684751700946e-01  9.4138862453130279e-01  9.3417156337527518e-01  8.9979260151739149e-01  8.4419581219275197e-01  8.3789707610038389e-01  7.8430685364195818e-01  3.4001997931306244e-01  1.6610643795507868e-01  1.1335713952493842e-01  9.4615453478942582e-02  8.6376644754474374e-02  8.3429254875800288e-02  8.3291977496510253e-02  1.5173027084058557e-01  1.5167629734288551e-01  8.3276158453859855e-02  8.3013954826299557e-02  8.3232288559467640e-02  8.3762654262622915e-02  8.4870524152319812e-02  8.7514217599849412e-02  9.2775714443044971e-02  1.0041033393711468e-01  1.0956802190041282e-01  1.2018592303634715e-01  1.3294291209144388e-01  1.4858350409912166e-01  1.6546199271539258e-01  1.8132612268414294e-01  1.9531747128937652e-01  2.0721986534773196e-01  2.1683550734458759e-01  2.2393302475947041e-01  2.2829494506994003e-01  2.2976981916000827e-01  2.2830742816356259e-01  2.2397323606995173e-01  2.1694418769476420e-01  2.0748727831292707e-01  1.9592195916708932e-01  1.8257345195153046e-01  1.6774477272252825e-01  1.5180298554896290e-01  1.3558570740937373e-01  1.2106498952789997e-01  1.1013133086689443e-01  1.0207320089535790e-01  9.5306876825029418e-02  8.9926489203145832e-02  8.6251784741224524e-02  8.4277419415317217e-02  8.3417696405122740e-02  8.3109289676253320e-02  8.3273077061069622e-02  1.5162601751427213e-01  1.5175367884964941e-01  8.3456861922460074e-02  8.3161234856960378e-02  8.3102684245700303e-02  8.3250479929729865e-02  8.3460106364285941e-02  8.3650423192832446e-02  8.3788173547488409e-02  8.393556687