<?xml version="1.0"?>
<VTKFile type="UnstructuredGrid"  version="0.1"  >
<UnstructuredGrid>
<Piece  NumberOfPoints="1681" NumberOfCells="3200">
<Points>
<DataArray  type="Float64"  NumberOfComponents="3"  format="ascii">0 0 0  0.025 0 0  0.05 0 0  0.075 0 0  0.1 0 0  0.125 0 0  0.15 0 0  0.175 0 0  0.2 0 0  0.225 0 0  0.25 0 0  0.275 0 0  0.3 0 0  0.325 0 0  0.35 0 0  0.375 0 0  0.4 0 0  0.425 0 0  0.45 0 0  0.475 0 0  0.5 0 0  0.525 0 0  0.55 0 0  0.575 0 0  0.6 0 0  0.625 0 0  0.65 0 0  0.675 0 0  0.7 0 0  0.725 0 0  0.75 0 0  0.775 0 0  0.8 0 0  0.825 0 0  0.85 0 0  0.875 0 0  0.9 0 0  0.925 0 0  0.95 0 0  0.975 0 0  1 0 0  0 0.025 0  0.025 0.025 0  0.05 0.025 0  0.075 0.025 0  0.1 0.025 0  0.125 0.025 0  0.15 0.025 0  0.175 0.025 0  0.2 0.025 0  0.225 0.025 0  0.25 0.025 0  0.275 0.025 0  0.3 0.025 0  0.325 0.025 0  0.35 0.025 0  0.375 0.025 0  0.4 0.025 0  0.425 0.025 0  0.45 0.025 0  0.475 0.025 0  0.5 0.025 0  0.525 0.025 0  0.55 0.025 0  0.575 0.025 0  0.6 0.025 0  0.625 0.025 0  0.65 0.025 0  0.675 0.025 0  0.7 0.025 0  0.725 0.025 0  0.75 0.025 0  0.775 0.025 0  0.8 0.025 0  0.825 0.025 0  0.85 0.025 0  0.875 0.025 0  0.9 0.025 0  0.925 0.025 0  0.95 0.025 0  0.975 0.025 0  1 0.025 0  0 0.05 0  0.025 0.05 0  0.05 0.05 0  0.075 0.05 0  0.1 0.05 0  0.125 0.05 0  0.15 0.05 0  0.175 0.05 0  0.2 0.05 0  0.225 0.05 0  0.25 0.05 0  0.275 0.05 0  0.3 0.05 0  0.325 0.05 0  0.35 0.05 0  0.375 0.05 0  0.4 0.05 0  0.425 0.05 0  0.45 0.05 0  0.475 0.05 0  0.5 0.05 0  0.525 0.05 0  0.55 0.05 0  0.575 0.05 0  0.6 0.05 0  0.625 0.05 0  0.65 0.05 0  0.675 0.05 0  0.7 0.05 0  0.725 0.05 0  0.75 0.05 0  0.775 0.05 0  0.8 0.05 0  0.825 0.05 0  0.85 0.05 0  0.875 0.05 0  0.9 0.05 0  0.925 0.05 0  0.95 0.05 0  0.975 0.05 0  1 0.05 0  0 0.075 0  0.025 0.075 0  0.05 0.075 0  0.075 0.075 0  0.1 0.075 0  0.125 0.075 0  0.15 0.075 0  0.175 0.075 0  0.2 0.075 0  0.225 0.075 0  0.25 0.075 0  0.275 0.075 0  0.3 0.075 0  0.325 0.075 0  0.35 0.075 0  0.375 0.075 0  0.4 0.075 0  0.425 0.075 0  0.45 0.075 0  0.475 0.075 0  0.5 0.075 0  0.525 0.075 0  0.55 0.075 0  0.575 0.075 0  0.6 0.075 0  0.625 0.075 0  0.65 0.075 0  0.675 0.075 0  0.7 0.075 0  0.725 0.075 0  0.75 0.075 0  0.775 0.075 0  0.8 0.075 0  0.825 0.075 0  0.85 0.075 0  0.875 0.075 0  0.9 0.075 0  0.925 0.075 0  0.95 0.075 0  0.975 0.075 0  1 0.075 0  0 0.1 0  0.025 0.1 0  0.05 0.1 0  0.075 0.1 0  0.1 0.1 0  0.125 0.1 0  0.15 0.1 0  0.175 0.1 0  0.2 0.1 0  0.225 0.1 0  0.25 0.1 0  0.275 0.1 0  0.3 0.1 0  0.325 0.1 0  0.35 0.1 0  0.375 0.1 0  0.4 0.1 0  0.425 0.1 0  0.45 0.1 0  0.475 0.1 0  0.5 0.1 0  0.525 0.1 0  0.55 0.1 0  0.575 0.1 0  0.6 0.1 0  0.625 0.1 0  0.65 0.1 0  0.675 0.1 0  0.7 0.1 0  0.725 0.1 0  0.75 0.1 0  0.775 0.1 0  0.8 0.1 0  0.825 0.1 0  0.85 0.1 0  0.875 0.1 0  0.9 0.1 0  0.925 0.1 0  0.95 0.1 0  0.975 0.1 0  1 0.1 0  0 0.125 0  0.025 0.125 0  0.05 0.125 0  0.075 0.125 0  0.1 0.125 0  0.125 0.125 0  0.15 0.125 0  0.175 0.125 0  0.2 0.125 0  0.225 0.125 0  0.25 0.125 0  0.275 0.125 0  0.3 0.125 0  0.325 0.125 0  0.35 0.125 0  0.375 0.125 0  0.4 0.125 0  0.425 0.125 0  0.45 0.125 0  0.475 0.125 0  0.5 0.125 0  0.525 0.125 0  0.55 0.125 0  0.575 0.125 0  0.6 0.125 0  0.625 0.125 0  0.65 0.125 0  0.675 0.125 0  0.7 0.125 0  0.725 0.125 0  0.75 0.125 0  0.775 0.125 0  0.8 0.125 0  0.825 0.125 0  0.85 0.125 0  0.875 0.125 0  0.9 0.125 0  0.925 0.125 0  0.95 0.125 0  0.975 0.125 0  1 0.125 0  0 0.15 0  0.025 0.15 0  0.05 0.15 0  0.075 0.15 0  0.1 0.15 0  0.125 0.15 0  0.15 0.15 0  0.175 0.15 0  0.2 0.15 0  0.225 0.15 0  0.25 0.15 0  0.275 0.15 0  0.3 0.15 0  0.325 0.15 0  0.35 0.15 0  0.375 0.15 0  0.4 0.15 0  0.425 0.15 0  0.45 0.15 0  0.475 0.15 0  0.5 0.15 0  0.525 0.15 0  0.55 0.15 0  0.575 0.15 0  0.6 0.15 0  0.625 0.15 0  0.65 0.15 0  0.675 0.15 0  0.7 0.15 0  0.725 0.15 0  0.75 0.15 0  0.775 0.15 0  0.8 0.15 0  0.825 0.15 0  0.85 0.15 0  0.875 0.15 0  0.9 0.15 0  0.925 0.15 0  0.95 0.15 0  0.975 0.15 0  1 0.15 0  0 0.175 0  0.025 0.175 0  0.05 0.175 0  0.075 0.175 0  0.1 0.175 0  0.125 0.175 0  0.15 0.175 0  0.175 0.175 0  0.2 0.175 0  0.225 0.175 0  0.25 0.175 0  0.275 0.175 0  0.3 0.175 0  0.325 0.175 0  0.35 0.175 0  0.375 0.175 0  0.4 0.175 0  0.425 0.175 0  0.45 0.175 0  0.475 0.175 0  0.5 0.175 0  0.525 0.175 0  0.55 0.175 0  0.575 0.175 0  0.6 0.175 0  0.625 0.175 0  0.65 0.175 0  0.675 0.175 0  0.7 0.175 0  0.725 0.175 0  0.75 0.175 0  0.775 0.175 0  0.8 0.175 0  0.825 0.175 0  0.85 0.175 0  0.875 0.175 0  0.9 0.175 0  0.925 0.175 0  0.95 0.175 0  0.975 0.175 0  1 0.175 0  0 0.2 0  0.025 0.2 0  0.05 0.2 0  0.075 0.2 0  0.1 0.2 0  0.125 0.2 0  0.15 0.2 0  0.175 0.2 0  0.2 0.2 0  0.225 0.2 0  0.25 0.2 0  0.275 0.2 0  0.3 0.2 0  0.325 0.2 0  0.35 0.2 0  0.375 0.2 0  0.4 0.2 0  0.425 0.2 0  0.45 0.2 0  0.475 0.2 0  0.5 0.2 0  0.525 0.2 0  0.55 0.2 0  0.575 0.2 0  0.6 0.2 0  0.625 0.2 0  0.65 0.2 0  0.675 0.2 0  0.7 0.2 0  0.725 0.2 0  0.75 0.2 0  0.775 0.2 0  0.8 0.2 0  0.825 0.2 0  0.85 0.2 0  0.875 0.2 0  0.9 0.2 0  0.925 0.2 0  0.95 0.2 0  0.975 0.2 0  1 0.2 0  0 0.225 0  0.025 0.225 0  0.05 0.225 0  0.075 0.225 0  0.1 0.225 0  0.125 0.225 0  0.15 0.225 0  0.175 0.225 0  0.2 0.225 0  0.225 0.225 0  0.25 0.225 0  0.275 0.225 0  0.3 0.225 0  0.325 0.225 0  0.35 0.225 0  0.375 0.225 0  0.4 0.225 0  0.425 0.225 0  0.45 0.225 0  0.475 0.225 0  0.5 0.225 0  0.525 0.225 0  0.55 0.225 0  0.575 0.225 0  0.6 0.225 0  0.625 0.225 0  0.65 0.225 0  0.675 0.225 0  0.7 0.225 0  0.725 0.225 0  0.75 0.225 0  0.775 0.225 0  0.8 0.225 0  0.825 0.225 0  0.85 0.225 0  0.875 0.225 0  0.9 0.225 0  0.925 0.225 0  0.95 0.225 0  0.975 0.225 0  1 0.225 0  0 0.25 0  0.025 0.25 0  0.05 0.25 0  0.075 0.25 0  0.1 0.25 0  0.125 0.25 0  0.15 0.25 0  0.175 0.25 0  0.2 0.25 0  0.225 0.25 0  0.25 0.25 0  0.275 0.25 0  0.3 0.25 0  0.325 0.25 0  0.35 0.25 0  0.375 0.25 0  0.4 0.25 0  0.425 0.25 0  0.45 0.25 0  0.475 0.25 0  0.5 0.25 0  0.525 0.25 0  0.55 0.25 0  0.575 0.25 0  0.6 0.25 0  0.625 0.25 0  0.65 0.25 0  0.675 0.25 0  0.7 0.25 0  0.725 0.25 0  0.75 0.25 0  0.775 0.25 0  0.8 0.25 0  0.825 0.25 0  0.85 0.25 0  0.875 0.25 0  0.9 0.25 0  0.925 0.25 0  0.95 0.25 0  0.975 0.25 0  1 0.25 0  0 0.275 0  0.025 0.275 0  0.05 0.275 0  0.075 0.275 0  0.1 0.275 0  0.125 0.275 0  0.15 0.275 0  0.175 0.275 0  0.2 0.275 0  0.225 0.275 0  0.25 0.275 0  0.275 0.275 0  0.3 0.275 0  0.325 0.275 0  0.35 0.275 0  0.375 0.275 0  0.4 0.275 0  0.425 0.275 0  0.45 0.275 0  0.475 0.275 0  0.5 0.275 0  0.525 0.275 0  0.55 0.275 0  0.575 0.275 0  0.6 0.275 0  0.625 0.275 0  0.65 0.275 0  0.675 0.275 0  0.7 0.275 0  0.725 0.275 0  0.75 0.275 0  0.775 0.275 0  0.8 0.275 0  0.825 0.275 0  0.85 0.275 0  0.875 0.275 0  0.9 0.275 0  0.925 0.275 0  0.95 0.275 0  0.975 0.275 0  1 0.275 0  0 0.3 0  0.025 0.3 0  0.05 0.3 0  0.075 0.3 0  0.1 0.3 0  0.125 0.3 0  0.15 0.3 0  0.175 0.3 0  0.2 0.3 0  0.225 0.3 0  0.25 0.3 0  0.275 0.3 0  0.3 0.3 0  0.325 0.3 0  0.35 0.3 0  0.375 0.3 0  0.4 0.3 0  0.425 0.3 0  0.45 0.3 0  0.475 0.3 0  0.5 0.3 0  0.525 0.3 0  0.55 0.3 0  0.575 0.3 0  0.6 0.3 0  0.625 0.3 0  0.65 0.3 0  0.675 0.3 0  0.7 0.3 0  0.725 0.3 0  0.75 0.3 0  0.775 0.3 0  0.8 0.3 0  0.825 0.3 0  0.85 0.3 0  0.875 0.3 0  0.9 0.3 0  0.925 0.3 0  0.95 0.3 0  0.975 0.3 0  1 0.3 0  0 0.325 0  0.025 0.325 0  0.05 0.325 0  0.075 0.325 0  0.1 0.325 0  0.125 0.325 0  0.15 0.325 0  0.175 0.325 0  0.2 0.325 0  0.225 0.325 0  0.25 0.325 0  0.275 0.325 0  0.3 0.325 0  0.325 0.325 0  0.35 0.325 0  0.375 0.325 0  0.4 0.325 0  0.425 0.325 0  0.45 0.325 0  0.475 0.325 0  0.5 0.325 0  0.525 0.325 0  0.55 0.325 0  0.575 0.325 0  0.6 0.325 0  0.625 0.325 0  0.65 0.325 0  0.675 0.325 0  0.7 0.325 0  0.725 0.325 0  0.75 0.325 0  0.775 0.325 0  0.8 0.325 0  0.825 0.325 0  0.85 0.325 0  0.875 0.325 0  0.9 0.325 0  0.925 0.325 0  0.95 0.325 0  0.975 0.325 0  1 0.325 0  0 0.35 0  0.025 0.35 0  0.05 0.35 0  0.075 0.35 0  0.1 0.35 0  0.125 0.35 0  0.15 0.35 0  0.175 0.35 0  0.2 0.35 0  0.225 0.35 0  0.25 0.35 0  0.275 0.35 0  0.3 0.35 0  0.325 0.35 0  0.35 0.35 0  0.375 0.35 0  0.4 0.35 0  0.425 0.35 0  0.45 0.35 0  0.475 0.35 0  0.5 0.35 0  0.525 0.35 0  0.55 0.35 0  0.575 0.35 0  0.6 0.35 0  0.625 0.35 0  0.65 0.35 0  0.675 0.35 0  0.7 0.35 0  0.725 0.35 0  0.75 0.35 0  0.775 0.35 0  0.8 0.35 0  0.825 0.35 0  0.85 0.35 0  0.875 0.35 0  0.9 0.35 0  0.925 0.35 0  0.95 0.35 0  0.975 0.35 0  1 0.35 0  0 0.375 0  0.025 0.375 0  0.05 0.375 0  0.075 0.375 0  0.1 0.375 0  0.125 0.375 0  0.15 0.375 0  0.175 0.375 0  0.2 0.375 0  0.225 0.375 0  0.25 0.375 0  0.275 0.375 0  0.3 0.375 0  0.325 0.375 0  0.35 0.375 0  0.375 0.375 0  0.4 0.375 0  0.425 0.375 0  0.45 0.375 0  0.475 0.375 0  0.5 0.375 0  0.525 0.375 0  0.55 0.375 0  0.575 0.375 0  0.6 0.375 0  0.625 0.375 0  0.65 0.375 0  0.675 0.375 0  0.7 0.375 0  0.725 0.375 0  0.75 0.375 0  0.775 0.375 0  0.8 0.375 0  0.825 0.375 0  0.85 0.375 0  0.875 0.375 0  0.9 0.375 0  0.925 0.375 0  0.95 0.375 0  0.975 0.375 0  1 0.375 0  0 0.4 0  0.025 0.4 0  0.05 0.4 0  0.075 0.4 0  0.1 0.4 0  0.125 0.4 0  0.15 0.4 0  0.175 0.4 0  0.2 0.4 0  0.225 0.4 0  0.25 0.4 0  0.275 0.4 0  0.3 0.4 0  0.325 0.4 0  0.35 0.4 0  0.375 0.4 0  0.4 0.4 0  0.425 0.4 0  0.45 0.4 0  0.475 0.4 0  0.5 0.4 0  0.525 0.4 0  0.55 0.4 0  0.575 0.4 0  0.6 0.4 0  0.625 0.4 0  0.65 0.4 0  0.675 0.4 0  0.7 0.4 0  0.725 0.4 0  0.75 0.4 0  0.775 0.4 0  0.8 0.4 0  0.825 0.4 0  0.85 0.4 0  0.875 0.4 0  0.9 0.4 0  0.925 0.4 0  0.95 0.4 0  0.975 0.4 0  1 0.4 0  0 0.425 0  0.025 0.425 0  0.05 0.425 0  0.075 0.425 0  0.1 0.425 0  0.125 0.425 0  0.15 0.425 0  0.175 0.425 0  0.2 0.425 0  0.225 0.425 0  0.25 0.425 0  0.275 0.425 0  0.3 0.425 0  0.325 0.425 0  0.35 0.425 0  0.375 0.425 0  0.4 0.425 0  0.425 0.425 0  0.45 0.425 0  0.475 0.425 0  0.5 0.425 0  0.525 0.425 0  0.55 0.425 0  0.575 0.425 0  0.6 0.425 0  0.625 0.425 0  0.65 0.425 0  0.675 0.425 0  0.7 0.425 0  0.725 0.425 0  0.75 0.425 0  0.775 0.425 0  0.8 0.425 0  0.825 0.425 0  0.85 0.425 0  0.875 0.425 0  0.9 0.425 0  0.925 0.425 0  0.95 0.425 0  0.975 0.425 0  1 0.425 0  0 0.45 0  0.02
[...]
<PointData  Scalars="ControlVisualisation"> 
<DataArray  type="Float64"  Name="ControlVisualisation"  format="ascii">7.4631177139246607e-03  4.9844344735249305e-03  4.9847312420962771e-03  4.9860557841029879e-03  4.9894356028466567e-03  4.9953670226698188e-03  5.0031734855711585e-03  5.0113979953349871e-03  5.0188114260456187e-03  5.0248549941399098e-03  5.0294501188810807e-03  5.0328624139630270e-03  5.0355153973899993e-03  5.0376605607285307e-03  5.0393023857740861e-03  5.0403831660410419e-03  5.0409333914527860e-03  5.0410868390707176e-03  5.0410266266583854e-03  5.0409245615263528e-03  5.0408926597202723e-03  5.0409516570237385e-03  5.0410216461212864e-03  5.0409390077430739e-03  5.0405025122928892e-03  5.0395493395727310e-03  5.0380680642936222e-03  5.0362310099968440e-03  5.0340804721071084e-03  5.0311689910274831e-03  5.0268913167242860e-03  5.0211174568207543e-03  5.0140996778754122e-03  5.0061785963097091e-03  4.9981815914619003e-03  4.9915632406583839e-03  4.9872448783314224e-03  4.9851588151531906e-03  4.9845126520462035e-03  4.9844173048661849e-03  1.4845645833014540e-02  4.9843939791807367e-03  2.4973483662692154e-03  2.4976992144757106e-03  2.4991582070793905e-03  2.5028539563578208e-03  2.5094836238295959e-03  2.5184819726165246e-03  2.5280783069320518e-03  2.5368416524938812e-03  2.5442273243802670e-03  2.5499020808440833e-03  2.5540527467368570e-03  2.5573099640710433e-03  2.5600450998355356e-03  2.5622204399886354e-03  2.5637036103439317e-03  2.5644973524590695e-03  2.5647556009877866e-03  2.5647051670092060e-03  2.5645672899151572e-03  2.5644988624277591e-03  2.5645528432548530e-03  2.5646604507971052e-03  2.5646411532315697e-03  2.5642413640957402e-03  2.5632198576064987e-03  2.5615003518408138e-03  2.5592641337597245e-03  2.5568234549213334e-03  2.5539385428409995e-03  2.5494102835051037e-03  2.5428605279734866e-03  2.5350374964741287e-03  2.5260713210868212e-03  2.5165574820031587e-03  2.5080977540585863e-03  2.5020980382451977e-03  2.4988448917958117e-03  2.4976078045936766e-03  2.4973385810963169e-03  4.9844123611501616e-03  4.9844562522226065e-03  2.4975141343019989e-03  2.4984050318588688e-03  2.5011187423408499e-03  2.5072591840788602e-03  2.5176684019468966e-03  2.5309157125962488e-03  2.5436121716161902e-03  2.5553810315037608e-03  2.5666021212892285e-03  2.5756480585194842e-03  2.5826054433388240e-03  2.5889048657847724e-03  2.5948689221555613e-03  2.5998748683212299e-03  2.6034903511776763e-03  2.6057629552281966e-03  2.6069910701304998e-03  2.6075185665965640e-03  2.6076396520768605e-03  2.6075547548214980e-03  2.6073470832933157e-03  2.6069631340722350e-03  2.6061999397814718e-03  2.6046760071067460e-03  2.6018784003753589e-03  2.5973859562186453e-03  2.5914967653667968e-03  2.5862213814904045e-03  2.5819472201329074e-03  2.5741489258732293e-03  2.5627917597579345e-03  2.5519957130366896e-03  2.5405598468094702e-03  2.5276752999430965e-03  2.5148804970252067e-03  2.5057522510940535e-03  2.5005740614472980e-03  2.4982090001527115e-03  2.4973762316890208e-03  4.9843825260258373e-03  4.9866796643964128e-03  2.4994033038255683e-03  2.5017009551126196e-03  2.5136876803874310e-03  2.5535057616623336e-03  2.6293573540190490e-03  2.7312405380522722e-03  2.8220456846049778e-03  2.9046367876447154e-03  2.9996705688464802e-03  3.0817021600506572e-03  3.1462187115551964e-03  3.2154222812375236e-03  3.2847888798169774e-03  3.3425113296067202e-03  3.3867199287228042e-03  3.4198509411092898e-03  3.4445179514823649e-03  3.4622366131479695e-03  3.4735390834731757e-03  3.4784182515991717e-03  3.4766623598436117e-03  3.4680100476946235e-03  3.4520409708899465e-03  3.4273915943966518e-03  3.3909358068482691e-03  3.3378380540228124e-03  3.2701135782478561e-03  3.2144144628034870e-03  3.1725357031703186e-03  3.0845319772777524e-03  2.9681348158170700e-03  2.8765286276769358e-03  2.7729016786417612e-03  2.6566291537732023e-03  2.5668206269679333e-03  2.5241313219046642e-03  2.5074656686762116e-03  2.5017347386461324e-03  2.4985275581439798e-03  4.9846285359081898e-03  5.0105673160767738e-03  2.5284663961284010e-03  2.6559943295375145e-03  2.9081568504557413e-03  3.3534743023832156e-03  4.6034369902324228e-03  8.0320746432198283e-03  1.8017166621548730e-02  3.1526058734490138e-02  7.3044732192317191e-02  1.2584904272363742e-01  1.1535621092612316e-01  1.0339914348141185e-01  1.2326005205610138e-01  1.4706145571825693e-01  1.5865459825401917e-01  1.5895650566821118e-01  1.5173697941337289e-01  1.4139942770192596e-01  1.3333495911101326e-01  1.3062524307369897e-01  1.3327317359486981e-01  1.4141937283711026e-01  1.5285522189919387e-01  1.6172532015232310e-01  1.6161819803227445e-01  1.4615163425794403e-01  1.1576021200996521e-01  1.0256959381498122e-01  1.4217844849717801e-01  1.5253322197178765e-01  5.7999519186567740e-02  1.9274922219996056e-02  1.8157947355360811e-02  8.1567595516519893e-03  4.6454896708173436e-03  3.5072634554784289e-03  2.7893363059004242e-03  2.5298837993995120e-03  2.5140575177653624e-03  4.9897078752512199e-03  5.6082815608031363e-03  2.7261937769277583e-03  4.2039546515863615e-03  8.8331241068069777e-02  3.3079071937223303e-01  5.5917108376905023e-01  7.5087176126894239e-01  8.7941710225463732e-01  9.4790604031387682e-01  9.7352532095723343e-01  9.8228233138144894e-01  9.8582430349784012e-01  9.8762145550410074e-01  9.8884048477401199e-01  9.8972114485692508e-01  9.9032831113511388e-01  9.9073602107287573e-01  9.9100228318046990e-01  9.9116632199073174e-01  9.9125292849964486e-01  9.9127497553888211e-01  9.9123629794398349e-01  9.9113488352531909e-01  9.9096178330180751e-01  9.9069456665215572e-01  9.9028977544468955e-01  9.8967634318970676e-01  9.8874856844540160e-01  9.8737650647530362e-01  9.8538104488040879e-01  9.8186384960475936e-01  9.7248317029096720e-01  9.4157772144726393e-01  8.6619692312581364e-01  7.4821139879552800e-01  5.5853376573366165e-01  3.2245647246044473e-01  6.7273861860727147e-02  4.6567909140498688e-03  2.7151018536684269e-03  5.1867564421582274e-03  6.9144054703201025e-03  8.6587560530693969e-02  8.1250435270055532e-01  9.9245918496791030e-01  9.9651533219230715e-01  9.9730003098631037e-01  9.9764761916444022e-01  9.9783006746704384e-01  9.9794362751629373e-01  9.9802793482797236e-01  9.9809316439860851e-01  9.9814013965497528e-01  9.9817542232786149e-01  9.9820399558788897e-01  9.9822756163255921e-01  9.9824647939472977e-01  9.9826106074848098e-01  9.9827179043672842e-01  9.9827918921486114e-01  9.9828367571079846e-01  9.9828550716631981e-01  9.9828475250529647e-01  9.9828126996378186e-01  9.9827470629297688e-01  9.9826454872546810e-01  9.9825025795634315e-01  9.9823149668290312e-01  9.9820827975719051e-01  9.9818036598934401e-01  9.9814527291811872e-01  9.9809647170537608e-01  9.9802454899569015e-01  9.9791892855592246e-01  9.9776633771129652e-01  9.9752806606295907e-01  9.9709209530169751e-01  9.9602753460347426e-01  9.9160554827358038e-01  7.6905587310851908e-01  2.0425055770827160e-02  5.5631586597231237e-03  9.9692328223945081e-01  9.9845018687608589e-01  9.9894350442292168e-01  9.9901135092721327e-01  9.9906829906552097e-01  9.9909899485565368e-01  9.9911242871039385e-01  9.9911938249763288e-01  9.9912352501566515e-01  9.9912592969210390e-01  9.9912739115571847e-01  9.9912849789838987e-01  9.9912975202646237e-01  9.9913139980750998e-01  9.9913332596856119e-01  9.9913522713015468e-01  9.9913684850674001e-01  9.9913807960723544e-01  9.9913892685660310e-01  9.9913945125573611e-01  9.9913971160927539e-01  9.9913972659545636e-01  9.9913946111509777e-01  9.9913883998805575e-01  9.9913779118591317e-01  9.9913631645148282e-01  9.9913456820893987e-01  9.9913286379661392e-01  9.9913153548354050e-01  9.9913065230141995e-01  9.9912995683121586e-01  9.9912923829106359e-01  9.9912854943269080e-01  9.9912772520175319e-01  9.9912576611231307e-01  9.9911937586521282e-01  9.9909799894918938e-01  9.9903458391574418e-01  9.9887844445217400e-01  9.9845779801977552e-01  9.8098184534097965e-01  9.9949560500357415e-01  9.9967974576186147e-01  9.9964345566494739e-01  9.9959744685774188e-01  9.9955203341717058e-01  9.9951117647837784e-01  9.9947757938342530e-01  9.9945192277264883e-01  9.9943331510154854e-01  9.9942016444503401e-01  9.9941100189052579e-01  9.9940469678240751e-01  9.9940046613008848e-01  9.9939774799930892e-01  9.9939608531316870e-01  9.9939509473657273e-01  9.9939449315623685e-01  9.9939410921842819e-01  9.9939386455044721e-01  9.9939373913209550e-01  9.9939373628854589e-01  9.9939385821728044e-01  9.9939409734088147e-01  9.9939444575969860e-01  9.9939492221871162e-01  9.9939561110497444e-01  9.9939669956912847e-01  9.9939849036740735e-01  9.9940137878929269e-01  9.9940583253868132e-01  9.9941245927355893e-01  9.9942217224168628e-01  9.9943629988071470e-01  9.9945648041411173e-01  9.9948430742008254e-01  9.9952062885583537e-01  9.9956458679518989e-01  9.9961304705845855e-01  9.9966009456855498e-01  9.9969668043980542e-01  9.9926226667662110e-01  9.9972546553837127e-01  9.9983734518831380e-01  9.9979820907454775e-01  9.9974722644277447e-01  9.9969377041229290e-01  9.9964429955785417e-01  9.9960264808082488e-01  9.9956997773403766e-01  9.9954566397619871e-01  9.9952818225455708e-01  9.9951585719454872e-01  9.9950725110476402e-01  9.9950127714202164e-01  9.9949715249175564e-01  9.9949431379988996e-01  9.9949235434834138e-01  9.9949099193490720e-01  9.9949004755847692e-01  9.9948942217663583e-01  9.9948907020315458e-01  9.9948897517823643e-01  9.9948913302444331e-01  9.9948954622228880e-01  9.9949023027349682e-01  9.9949123147812069e-01  9.9949265220884309e-01  9.9949467711692030e-01  9.9949759425834206e-01  9.9950181452209941e-01  9.9950790894758257e-01  9.9951668494686707e-01  9.9952928156101761e-01  9.9954719954742977e-01  9.9957215205939165e-01  9.9960564073894786e-01  9.9964819180125042e-01  9.9969842228110672e-01  9.9975226750039858e-01  9.9980270971870300e-01  9.9984023622364082e-01  9.9968672867119890e-01  9.9975834622231130e-01  9.9986592505272498e-01  9.9983065997268372e-01  9.9978221888672547e-01  9.9972897984089304e-01  9.9967824521353521e-01  9.9963459401444710e-01  9.9959974868142898e-01  9.9957342500363167e-01  9.9955425621568794e-01  9.9954058273932878e-01  9.9953090522046084e-01  9.9952405150320800e-01  9.9951917259548473e-01  9.9951567485780646e-01  9.9951314993206275e-01  9.9951132418371813e-01  9.9951002390785137e-01  9.9950914791246859e-01  9.9950864372321713e-01  9.9950848830506234e-01  9.9950867547216216e-01  9.9950921166285822e-01  9.9951012057612987e-01  9.9951145591287438e-01  9.9951332024518458e-01  9.9951588753971665e-01  9.9951942892495538e-01  9.9952434696609926e-01  9.9953122835864572e-01  9.9954091839219561e-01  9.9955459079996678e-01  9.9957374653373543e-01  9.9960003933356312e-01  9.9963482678836690e-01  9.9967839952535709e-01  9.9972906245949666e-01  9.9978226021775840e-01  9.9983068793802510e-01  9.9986594631658998e-01  9.9975836471749668e-01  9.9968659716602204e-01  9.9983995147211524e-01  9.9980182056094258e-01  9.9975040640140700e-01  9.9969522698941093e-01  9.9964332476953199e-01  9.9959883589659482e-01  9.9956328405363915e-01  9.9953629502832775e-01  9.9951646443109787e-01  9.9950211649177401e-01  9.9949174741501801e-01  9.9948419154583545e-01  9.9947861657275139e-01  9.9947445317241035e-01  9.9947132060814181e-01  9.9946897043801075e-01  9.9946724753005500e-01  9.9946606149544381e-01  9.9946536435160227e-01  9.9946513406257842e-01  9.9946536480948078e-01  9.9946606408415173e-01  9.9946725607138565e-01  9.9946899092303099e-01  9.9947135951529320e-01  9.9947451326375636e-01  9.9947869022309843e-01  9.9948425251901818e-01  9.9949174209056990e-01  9.9950195557759802e-01  9.9951601360550668e-01  9.9953537102040835e-01  9.9956165862191182e-01  9.9959627450177069e-01  9.9963969326058955e-01  9.9969067510344789e-01  9.9974538480359920e-01  9.9979733913385971e-01  9.9983709865876036e-01  9.9972540328243831e-01  9.9926137952602745e-01  9.9969528307949740e-01  9.9965623637018752e-01  9.9960600052394510e-01  9.9955370876958483e-01  9.9950524779067318e-01  9.9946383786775339e-01  9.9943067870168278e-01  9.9940528538796580e-01  9.9938624612040872e-01  9.9937197290594515e-01  9.9936112341511374e-01  9.9935271692594807e-01  9.9934608944341752e-01  9.9934080675370396e-01  9.9933658963884942e-01  9.9933326404982625e-01  9.9933072895483921e-01  9.9932893172173010e-01  9.9932784766062044e-01  9.9932746619403479e-01  9.9932778510363840e-01  9.9932881016757813e-01  9.9933055713906005e-01  9.9933305648798265e-01  9.9933636304693529e-01  9.9934057101490004e-01  9.9934583418241962e-01  9.9935239502326156e-01  9.9936063092623162e-01  9.9937112463896716e-01  9.9938474575916003e-01  9.9940270836480904e-01  9.9942645553105858e-01  9.9945732567919410e-01  9.9949578010990536e-01  9.9954086463335157e-01  9.9958997199426325e-01  9.9963923788305620e-01  9.9967818306154277e-01  9.9949518348832289e-01  9.8064270911822915e-01  9.9844036856533824e-01  9.9884890679759397e-01  9.9899231835504332e-01  9.9904765651560801e-01  9.9905879786163820e-01  9.9905306523437820e-01  9.9904243840601881e-01  9.9903111224276708e-01  9.9902005509918423e-01  9.9900935500497878e-01  9.9899904594326872e-01  9.9898925457109256e-01  9.9898015303726462e-01  9.9897190393751067e-01  9.9896463952196612e-01  9.9895847129799753e-01  9.9895350569104180e-01  9.9894984281503041e-01  9.9894755948421854e-01  9.9894669748867271e-01  9.9894726901054876e-01  9.9894926732514566e-01  9.9895266704128216e-01  9.9895741595441445e-01  9.9896343037498969e-01  9.9897059552238121e-01  9.9897876078016346e-01  9.9898772383322487e-01  9.9899721240789530e-01  9.9900688336875199e-01  9.9901635417642709e-01  9.9902526314859696e-01  9.9903309327590828e-01  9.9903860461286642e-01  9.9903684274561821e-01  9.9901567381398992e-01  9.9897215679515083e-01  9.9891430021429528e-01  9.9841769352055132e-01  9.9691011064285873e-01  5.5452731500351517e-03  1.8569444241925446e-02  7.1843354005160820e-01  9.8944515133529909e-01  9.9536823038711708e-01  9.9664547962549310e-01  9.9711332648270268e-01  9.9734035923743680e-01  9.9746012230289427e-01  9.9752031748829506e-01  9.9754416672246060e-01  9.9754564582449534e-01  9.9753417443502479e-01  9.9751608072318454e-01  9.9749505250615378e-01  9.9747311972596941e-01  9.9745220110976751e-01  9.9743452701026014e-01  9.9742161600869050e-01  9.9741356637909540e-01  9.9740981839540144e-01  9.9741041918755624e-01  9.9741609674787246e-01  9.9742718008566789e-01  9.9744297791910985e-01  9.9746229366563888e-01  9.9748400591868125e-01  9.9750674608736378e-01  9.9752815709606757e-01  9.9754449161094205e-01  9.9755041997511562e-01  9.9753850420525503e-01  9.9749759839259355e-01  9.9740833285010033e-01  9.9723418033805178e-01  9.9685018293099881e-01  9.9586107044451244e-01  9.9017073778931630e-01  7.4540093524486484e-01  6.5397123014112879e-02  6.8840064507180989e-03  5.1268162321647494e-03  2.7108716073144909e-03  4.5415683293625079e-03  4.8020419653979400e-02  2.7768668568496774e-01  4.6935538370454449e-01  6.2542536649512548e-01  7.3810513426026281e-01  8.1312328081439256e-01  8.5835269598647601e-01  8.8365907850640180e-01  8.9679956661745597e-01  9.0224996213895248e-01  9.0346634711999430e-01  9.0401238518156612e-01  9.0622611828513022e-01  9.0970154042911966e-01  9.1251831328579780e-01  9.1391389624593067e-01  9.1436629171106332e-01  9.1428820042270897e-01  9.1380299809211962e-01  9.1291749476872597e-01  9.1156251945555922e-01  9.0974589394302274e-01  9.0801539175080037e-01  9.0700280870765726e-01  9.0615012072754597e-01  9.0361952823822655e-01  8.9703016828506876e-01  8.8340868215454915e-01  8.5806289268269742e-01  8.1274003580799248e-01  7.3616623273739690e-01  6.2373463634423909e-01  4.7665102797891851e-01  3.0963370631754933e-01  6.2149092327047371e-02  4.0575793246481412e-03  2.7180713081802485e-03  5.5535881884728024e-03  4.9910640240871098e-03  2.5271759089840889e-03  2.6012270249264145e-03  2.8594925675675337e-03  3.4307254882493159e-03  4.1012024457508000e-03  5.4438147546940511e-03  7.5955192029420575e-03  1.0638610173582228e-02  1.4174790653703140e-02  1.7348377834421346e-02  1.9492546594666309e-02  2.0514155814691161e-02  2.0698338854219279e-02  2.0382070559184617e-02  1.9801687274351547e-02  1.9114073746909110e-02  1.8462170580276691e-02  1.7967874214982298e-02  1.7682788147556777e-02  1.7586270511872264e-02  1.7640796706199901e-02  1.7843545961644520e-02  1.8216075855479501e-02  1.8745876321233080e-02  1.9346357280632963e-02  1.9868505273016521e-02  2.0126464289533678e-02  1.9888378773343617e-02  1.8867474384830440e-02  1.6824897259423727e-02  1.3836368492007114e-02  1.0486125129399067e-02  7.5484002323915316e-03  5.4221569149635095e-03  4.0839398914008342e-03  3.3081722703781056e-03  2.9659914613323476e-03  2.7207080846684169e-03  2.5424852098645703e-03  4.9884751620394852e-03  5.0039077810051374e-03  2.5222685809382075e-03  2.5525978678266246e-03  2.5818374804183228e-03  2.6047682694983389e-03  2.6404576198258943e-03  2.6918586305099295e-03  2.7398387236006005e-03  2.7780908598368007e-03  2.8037175160780009e-03  2.8181211941431753e-03  2.8245189415157354e-03  2.8257788873632872e-03  2.8239924880840003e-03  2.8205351611029585e-03  2.8162501999155899e-03  2.8117450976104328e-03  2.8076233123234900e-03  2.8044115909087518e-03  2.8023397898784470e-03  2.8013654872981113e-03  2.8014161282878466e-03  2.8025458747503911e-03  2.8048485110487450e-03  2.8082497943024984e-03  2.8124279740834078e-03  2.8168968351215519e-03  2.8210805751079761e-03  2.8242643156945529e-03  2.8254628426718936e-03  2.8233028102457218e-03  2.8158719421708099e-03  2.8005366662136569e-03  2.7742758791251547e-03  2.7355818116100599e-03  2.6868917629876182e-03  2.6366678445415748e-03  2.5914966861250764e-03  2.5578584141977912e-03  2.5271797905359727e-03  4.9970248133610505e-03  5.0109981700175053e-03  2.5297298509833819e-03  2.5454131926338735e-03  2.5594749593706016e-03  2.5715674501427433e-03  2.5813534705845763e-03  2.5871625474078656e-03  2.5883989218640989e-03  2.5873734512801205e-03  2.5849456758113188e-03  2.5820321788126667e-03  2.5791490396500760e-03  2.5765252714186008e-03  2.5742374069089398e-03  2.5722844335833396e-03  2.5706375905981704e-03  2.5692812442650271e-03  2.5682289732233241e-03  2.5674999468125181e-03  2.5670852645803799e-03  2.5669498314971227e-03  2.5670664393887669e-03  2.5674420793696117e-03  2.5681095672721028e-03  2.5690977625456293e-03  2.5704165337909679e-03  2.5720684239595570e-03  2.5740651639307804e-03  2.5764259761728264e-03  2.5791541328869586e-03  2.5821963495939867e-03  2.5853732852287067e-03  2.5882607429676759e-03  2.5900451557896169e-03  2.5894590113070730e-03  2.5850919519000083e-03  2.5760671790305330e-03  2.5633557957596390e-03  2.5490982227725206e-03  2.5320555239484064e-03  5.0087494691919447e-03  5.0125797061312061e-03  2.5312616981563217e-03  2.5411934048050902e-03  2.5484237622775733e-03  2.5553669648600923e-03  2.5609513690645963e-03  2.5646620592110342e-03  2.5663863508266086e-03  2.5664769415646980e-03  2.5654659619595600e-03  2.5639374853608167e-03  2.5622556963948175e-03  2.5606344090794513e-03  2.5591756021086254e-03  2.5579145878224601e-03  2.5568554100592242e-03  2.5559947875946377e-03  2.5553326378866810e-03  2.5548694562603906e-03  2.5545995131579088e-03  2.5545112569658481e-03  2.5545958544852081e-03  2.5548548020226367e-03  2.5552988290021375e-03  2.5559401451037368e-03  2.5567867159381362e-03  2.5578426854518626e-03  2.5591101798056919e-03  2.5605846338701841e-03  2.5622389666616874e-03  2.5639953587290529e-03  2.5656840125755755e-03  2.5669940450203286e-03  2.5674417570389560e-03  2.5664155107885723e-03  2.5633572822016996e-03  2.5581061658414904e-03  2.5511930559707074e-03  2.5436744586128939e-03  2.5327810342252780e-03  5.0131018783795304e-03  5.0110655735588327e-03  2.5294682547344839e-03  2.5368535082319495e-03  2.5407064467968519e-03  2.5445887565516212e-03  2.5480259762750259e-03  2.5506208860476142e-03  2.5521994889251376e-03  2.552840890