<?xml version="1.0"?>
<VTKFile type="UnstructuredGrid"  version="0.1"  >
<UnstructuredGrid>
<Piece  NumberOfPoints="1681" NumberOfCells="3200">
<Points>
<DataArray  type="Float64"  NumberOfComponents="3"  format="ascii">0 0 0  0.025 0 0  0.05 0 0  0.075 0 0  0.1 0 0  0.125 0 0  0.15 0 0  0.175 0 0  0.2 0 0  0.225 0 0  0.25 0 0  0.275 0 0  0.3 0 0  0.325 0 0  0.35 0 0  0.375 0 0  0.4 0 0  0.425 0 0  0.45 0 0  0.475 0 0  0.5 0 0  0.525 0 0  0.55 0 0  0.575 0 0  0.6 0 0  0.625 0 0  0.65 0 0  0.675 0 0  0.7 0 0  0.725 0 0  0.75 0 0  0.775 0 0  0.8 0 0  0.825 0 0  0.85 0 0  0.875 0 0  0.9 0 0  0.925 0 0  0.95 0 0  0.975 0 0  1 0 0  0 0.025 0  0.025 0.025 0  0.05 0.025 0  0.075 0.025 0  0.1 0.025 0  0.125 0.025 0  0.15 0.025 0  0.175 0.025 0  0.2 0.025 0  0.225 0.025 0  0.25 0.025 0  0.275 0.025 0  0.3 0.025 0  0.325 0.025 0  0.35 0.025 0  0.375 0.025 0  0.4 0.025 0  0.425 0.025 0  0.45 0.025 0  0.475 0.025 0  0.5 0.025 0  0.525 0.025 0  0.55 0.025 0  0.575 0.025 0  0.6 0.025 0  0.625 0.025 0  0.65 0.025 0  0.675 0.025 0  0.7 0.025 0  0.725 0.025 0  0.75 0.025 0  0.775 0.025 0  0.8 0.025 0  0.825 0.025 0  0.85 0.025 0  0.875 0.025 0  0.9 0.025 0  0.925 0.025 0  0.95 0.025 0  0.975 0.025 0  1 0.025 0  0 0.05 0  0.025 0.05 0  0.05 0.05 0  0.075 0.05 0  0.1 0.05 0  0.125 0.05 0  0.15 0.05 0  0.175 0.05 0  0.2 0.05 0  0.225 0.05 0  0.25 0.05 0  0.275 0.05 0  0.3 0.05 0  0.325 0.05 0  0.35 0.05 0  0.375 0.05 0  0.4 0.05 0  0.425 0.05 0  0.45 0.05 0  0.475 0.05 0  0.5 0.05 0  0.525 0.05 0  0.55 0.05 0  0.575 0.05 0  0.6 0.05 0  0.625 0.05 0  0.65 0.05 0  0.675 0.05 0  0.7 0.05 0  0.725 0.05 0  0.75 0.05 0  0.775 0.05 0  0.8 0.05 0  0.825 0.05 0  0.85 0.05 0  0.875 0.05 0  0.9 0.05 0  0.925 0.05 0  0.95 0.05 0  0.975 0.05 0  1 0.05 0  0 0.075 0  0.025 0.075 0  0.05 0.075 0  0.075 0.075 0  0.1 0.075 0  0.125 0.075 0  0.15 0.075 0  0.175 0.075 0  0.2 0.075 0  0.225 0.075 0  0.25 0.075 0  0.275 0.075 0  0.3 0.075 0  0.325 0.075 0  0.35 0.075 0  0.375 0.075 0  0.4 0.075 0  0.425 0.075 0  0.45 0.075 0  0.475 0.075 0  0.5 0.075 0  0.525 0.075 0  0.55 0.075 0  0.575 0.075 0  0.6 0.075 0  0.625 0.075 0  0.65 0.075 0  0.675 0.075 0  0.7 0.075 0  0.725 0.075 0  0.75 0.075 0  0.775 0.075 0  0.8 0.075 0  0.825 0.075 0  0.85 0.075 0  0.875 0.075 0  0.9 0.075 0  0.925 0.075 0  0.95 0.075 0  0.975 0.075 0  1 0.075 0  0 0.1 0  0.025 0.1 0  0.05 0.1 0  0.075 0.1 0  0.1 0.1 0  0.125 0.1 0  0.15 0.1 0  0.175 0.1 0  0.2 0.1 0  0.225 0.1 0  0.25 0.1 0  0.275 0.1 0  0.3 0.1 0  0.325 0.1 0  0.35 0.1 0  0.375 0.1 0  0.4 0.1 0  0.425 0.1 0  0.45 0.1 0  0.475 0.1 0  0.5 0.1 0  0.525 0.1 0  0.55 0.1 0  0.575 0.1 0  0.6 0.1 0  0.625 0.1 0  0.65 0.1 0  0.675 0.1 0  0.7 0.1 0  0.725 0.1 0  0.75 0.1 0  0.775 0.1 0  0.8 0.1 0  0.825 0.1 0  0.85 0.1 0  0.875 0.1 0  0.9 0.1 0  0.925 0.1 0  0.95 0.1 0  0.975 0.1 0  1 0.1 0  0 0.125 0  0.025 0.125 0  0.05 0.125 0  0.075 0.125 0  0.1 0.125 0  0.125 0.125 0  0.15 0.125 0  0.175 0.125 0  0.2 0.125 0  0.225 0.125 0  0.25 0.125 0  0.275 0.125 0  0.3 0.125 0  0.325 0.125 0  0.35 0.125 0  0.375 0.125 0  0.4 0.125 0  0.425 0.125 0  0.45 0.125 0  0.475 0.125 0  0.5 0.125 0  0.525 0.125 0  0.55 0.125 0  0.575 0.125 0  0.6 0.125 0  0.625 0.125 0  0.65 0.125 0  0.675 0.125 0  0.7 0.125 0  0.725 0.125 0  0.75 0.125 0  0.775 0.125 0  0.8 0.125 0  0.825 0.125 0  0.85 0.125 0  0.875 0.125 0  0.9 0.125 0  0.925 0.125 0  0.95 0.125 0  0.975 0.125 0  1 0.125 0  0 0.15 0  0.025 0.15 0  0.05 0.15 0  0.075 0.15 0  0.1 0.15 0  0.125 0.15 0  0.15 0.15 0  0.175 0.15 0  0.2 0.15 0  0.225 0.15 0  0.25 0.15 0  0.275 0.15 0  0.3 0.15 0  0.325 0.15 0  0.35 0.15 0  0.375 0.15 0  0.4 0.15 0  0.425 0.15 0  0.45 0.15 0  0.475 0.15 0  0.5 0.15 0  0.525 0.15 0  0.55 0.15 0  0.575 0.15 0  0.6 0.15 0  0.625 0.15 0  0.65 0.15 0  0.675 0.15 0  0.7 0.15 0  0.725 0.15 0  0.75 0.15 0  0.775 0.15 0  0.8 0.15 0  0.825 0.15 0  0.85 0.15 0  0.875 0.15 0  0.9 0.15 0  0.925 0.15 0  0.95 0.15 0  0.975 0.15 0  1 0.15 0  0 0.175 0  0.025 0.175 0  0.05 0.175 0  0.075 0.175 0  0.1 0.175 0  0.125 0.175 0  0.15 0.175 0  0.175 0.175 0  0.2 0.175 0  0.225 0.175 0  0.25 0.175 0  0.275 0.175 0  0.3 0.175 0  0.325 0.175 0  0.35 0.175 0  0.375 0.175 0  0.4 0.175 0  0.425 0.175 0  0.45 0.175 0  0.475 0.175 0  0.5 0.175 0  0.525 0.175 0  0.55 0.175 0  0.575 0.175 0  0.6 0.175 0  0.625 0.175 0  0.65 0.175 0  0.675 0.175 0  0.7 0.175 0  0.725 0.175 0  0.75 0.175 0  0.775 0.175 0  0.8 0.175 0  0.825 0.175 0  0.85 0.175 0  0.875 0.175 0  0.9 0.175 0  0.925 0.175 0  0.95 0.175 0  0.975 0.175 0  1 0.175 0  0 0.2 0  0.025 0.2 0  0.05 0.2 0  0.075 0.2 0  0.1 0.2 0  0.125 0.2 0  0.15 0.2 0  0.175 0.2 0  0.2 0.2 0  0.225 0.2 0  0.25 0.2 0  0.275 0.2 0  0.3 0.2 0  0.325 0.2 0  0.35 0.2 0  0.375 0.2 0  0.4 0.2 0  0.425 0.2 0  0.45 0.2 0  0.475 0.2 0  0.5 0.2 0  0.525 0.2 0  0.55 0.2 0  0.575 0.2 0  0.6 0.2 0  0.625 0.2 0  0.65 0.2 0  0.675 0.2 0  0.7 0.2 0  0.725 0.2 0  0.75 0.2 0  0.775 0.2 0  0.8 0.2 0  0.825 0.2 0  0.85 0.2 0  0.875 0.2 0  0.9 0.2 0  0.925 0.2 0  0.95 0.2 0  0.975 0.2 0  1 0.2 0  0 0.225 0  0.025 0.225 0  0.05 0.225 0  0.075 0.225 0  0.1 0.225 0  0.125 0.225 0  0.15 0.225 0  0.175 0.225 0  0.2 0.225 0  0.225 0.225 0  0.25 0.225 0  0.275 0.225 0  0.3 0.225 0  0.325 0.225 0  0.35 0.225 0  0.375 0.225 0  0.4 0.225 0  0.425 0.225 0  0.45 0.225 0  0.475 0.225 0  0.5 0.225 0  0.525 0.225 0  0.55 0.225 0  0.575 0.225 0  0.6 0.225 0  0.625 0.225 0  0.65 0.225 0  0.675 0.225 0  0.7 0.225 0  0.725 0.225 0  0.75 0.225 0  0.775 0.225 0  0.8 0.225 0  0.825 0.225 0  0.85 0.225 0  0.875 0.225 0  0.9 0.225 0  0.925 0.225 0  0.95 0.225 0  0.975 0.225 0  1 0.225 0  0 0.25 0  0.025 0.25 0  0.05 0.25 0  0.075 0.25 0  0.1 0.25 0  0.125 0.25 0  0.15 0.25 0  0.175 0.25 0  0.2 0.25 0  0.225 0.25 0  0.25 0.25 0  0.275 0.25 0  0.3 0.25 0  0.325 0.25 0  0.35 0.25 0  0.375 0.25 0  0.4 0.25 0  0.425 0.25 0  0.45 0.25 0  0.475 0.25 0  0.5 0.25 0  0.525 0.25 0  0.55 0.25 0  0.575 0.25 0  0.6 0.25 0  0.625 0.25 0  0.65 0.25 0  0.675 0.25 0  0.7 0.25 0  0.725 0.25 0  0.75 0.25 0  0.775 0.25 0  0.8 0.25 0  0.825 0.25 0  0.85 0.25 0  0.875 0.25 0  0.9 0.25 0  0.925 0.25 0  0.95 0.25 0  0.975 0.25 0  1 0.25 0  0 0.275 0  0.025 0.275 0  0.05 0.275 0  0.075 0.275 0  0.1 0.275 0  0.125 0.275 0  0.15 0.275 0  0.175 0.275 0  0.2 0.275 0  0.225 0.275 0  0.25 0.275 0  0.275 0.275 0  0.3 0.275 0  0.325 0.275 0  0.35 0.275 0  0.375 0.275 0  0.4 0.275 0  0.425 0.275 0  0.45 0.275 0  0.475 0.275 0  0.5 0.275 0  0.525 0.275 0  0.55 0.275 0  0.575 0.275 0  0.6 0.275 0  0.625 0.275 0  0.65 0.275 0  0.675 0.275 0  0.7 0.275 0  0.725 0.275 0  0.75 0.275 0  0.775 0.275 0  0.8 0.275 0  0.825 0.275 0  0.85 0.275 0  0.875 0.275 0  0.9 0.275 0  0.925 0.275 0  0.95 0.275 0  0.975 0.275 0  1 0.275 0  0 0.3 0  0.025 0.3 0  0.05 0.3 0  0.075 0.3 0  0.1 0.3 0  0.125 0.3 0  0.15 0.3 0  0.175 0.3 0  0.2 0.3 0  0.225 0.3 0  0.25 0.3 0  0.275 0.3 0  0.3 0.3 0  0.325 0.3 0  0.35 0.3 0  0.375 0.3 0  0.4 0.3 0  0.425 0.3 0  0.45 0.3 0  0.475 0.3 0  0.5 0.3 0  0.525 0.3 0  0.55 0.3 0  0.575 0.3 0  0.6 0.3 0  0.625 0.3 0  0.65 0.3 0  0.675 0.3 0  0.7 0.3 0  0.725 0.3 0  0.75 0.3 0  0.775 0.3 0  0.8 0.3 0  0.825 0.3 0  0.85 0.3 0  0.875 0.3 0  0.9 0.3 0  0.925 0.3 0  0.95 0.3 0  0.975 0.3 0  1 0.3 0  0 0.325 0  0.025 0.325 0  0.05 0.325 0  0.075 0.325 0  0.1 0.325 0  0.125 0.325 0  0.15 0.325 0  0.175 0.325 0  0.2 0.325 0  0.225 0.325 0  0.25 0.325 0  0.275 0.325 0  0.3 0.325 0  0.325 0.325 0  0.35 0.325 0  0.375 0.325 0  0.4 0.325 0  0.425 0.325 0  0.45 0.325 0  0.475 0.325 0  0.5 0.325 0  0.525 0.325 0  0.55 0.325 0  0.575 0.325 0  0.6 0.325 0  0.625 0.325 0  0.65 0.325 0  0.675 0.325 0  0.7 0.325 0  0.725 0.325 0  0.75 0.325 0  0.775 0.325 0  0.8 0.325 0  0.825 0.325 0  0.85 0.325 0  0.875 0.325 0  0.9 0.325 0  0.925 0.325 0  0.95 0.325 0  0.975 0.325 0  1 0.325 0  0 0.35 0  0.025 0.35 0  0.05 0.35 0  0.075 0.35 0  0.1 0.35 0  0.125 0.35 0  0.15 0.35 0  0.175 0.35 0  0.2 0.35 0  0.225 0.35 0  0.25 0.35 0  0.275 0.35 0  0.3 0.35 0  0.325 0.35 0  0.35 0.35 0  0.375 0.35 0  0.4 0.35 0  0.425 0.35 0  0.45 0.35 0  0.475 0.35 0  0.5 0.35 0  0.525 0.35 0  0.55 0.35 0  0.575 0.35 0  0.6 0.35 0  0.625 0.35 0  0.65 0.35 0  0.675 0.35 0  0.7 0.35 0  0.725 0.35 0  0.75 0.35 0  0.775 0.35 0  0.8 0.35 0  0.825 0.35 0  0.85 0.35 0  0.875 0.35 0  0.9 0.35 0  0.925 0.35 0  0.95 0.35 0  0.975 0.35 0  1 0.35 0  0 0.375 0  0.025 0.375 0  0.05 0.375 0  0.075 0.375 0  0.1 0.375 0  0.125 0.375 0  0.15 0.375 0  0.175 0.375 0  0.2 0.375 0  0.225 0.375 0  0.25 0.375 0  0.275 0.375 0  0.3 0.375 0  0.325 0.375 0  0.35 0.375 0  0.375 0.375 0  0.4 0.375 0  0.425 0.375 0  0.45 0.375 0  0.475 0.375 0  0.5 0.375 0  0.525 0.375 0  0.55 0.375 0  0.575 0.375 0  0.6 0.375 0  0.625 0.375 0  0.65 0.375 0  0.675 0.375 0  0.7 0.375 0  0.725 0.375 0  0.75 0.375 0  0.775 0.375 0  0.8 0.375 0  0.825 0.375 0  0.85 0.375 0  0.875 0.375 0  0.9 0.375 0  0.925 0.375 0  0.95 0.375 0  0.975 0.375 0  1 0.375 0  0 0.4 0  0.025 0.4 0  0.05 0.4 0  0.075 0.4 0  0.1 0.4 0  0.125 0.4 0  0.15 0.4 0  0.175 0.4 0  0.2 0.4 0  0.225 0.4 0  0.25 0.4 0  0.275 0.4 0  0.3 0.4 0  0.325 0.4 0  0.35 0.4 0  0.375 0.4 0  0.4 0.4 0  0.425 0.4 0  0.45 0.4 0  0.475 0.4 0  0.5 0.4 0  0.525 0.4 0  0.55 0.4 0  0.575 0.4 0  0.6 0.4 0  0.625 0.4 0  0.65 0.4 0  0.675 0.4 0  0.7 0.4 0  0.725 0.4 0  0.75 0.4 0  0.775 0.4 0  0.8 0.4 0  0.825 0.4 0  0.85 0.4 0  0.875 0.4 0  0.9 0.4 0  0.925 0.4 0  0.95 0.4 0  0.975 0.4 0  1 0.4 0  0 0.425 0  0.025 0.425 0  0.05 0.425 0  0.075 0.425 0  0.1 0.425 0  0.125 0.425 0  0.15 0.425 0  0.175 0.425 0  0.2 0.425 0  0.225 0.425 0  0.25 0.425 0  0.275 0.425 0  0.3 0.425 0  0.325 0.425 0  0.35 0.425 0  0.375 0.425 0  0.4 0.425 0  0.425 0.425 0  0.45 0.425 0  0.475 0.425 0  0.5 0.425 0  0.525 0.425 0  0.55 0.425 0  0.575 0.425 0  0.6 0.425 0  0.625 0.425 0  0.65 0.425 0  0.675 0.425 0  0.7 0.425 0  0.725 0.425 0  0.75 0.425 0  0.775 0.425 0  0.8 0.425 0  0.825 0.425 0  0.85 0.425 0  0.875 0.425 0  0.9 0.425 0  0.925 0.425 0  0.95 0.425 0  0.975 0.425 0  1 0.425 0  0 0.45 0  0.02
[...]
<PointData  Scalars="ControlVisualisation"> 
<DataArray  type="Float64"  Name="ControlVisualisation"  format="ascii">1.6869088102049609e-01  1.2049669258040939e-01  1.2064210605679611e-01  1.2060838321235298e-01  1.2045314607234484e-01  1.2074606328959660e-01  1.2230991167046520e-01  1.2629306099948565e-01  1.3245199124415560e-01  1.3904470122199933e-01  1.4441466683003415e-01  1.4808724106514365e-01  1.5047847995597108e-01  1.5226761367403246e-01  1.5392893567450089e-01  1.5558438076917183e-01  1.5709683265992391e-01  1.5826737495784357e-01  1.5899449405766902e-01  1.5929913887301841e-01  1.5924940361611101e-01  1.5889251901018484e-01  1.5825608722371143e-01  1.5739695120678696e-01  1.5642392905478059e-01  1.5544248342439948e-01  1.5444191836038862e-01  1.5318099287885523e-01  1.5113624810611359e-01  1.4760602090772354e-01  1.4211481711408458e-01  1.3494755298865824e-01  1.2757306406638177e-01  1.2286032768174397e-01  1.2088632776435165e-01  1.2041172122634348e-01  1.2054004475367992e-01  1.2066311281044829e-01  1.2056973405607449e-01  1.2041270993784335e-01  2.7249167975994437e-01  1.2054046933252739e-01  6.4527028891405228e-02  6.4710266746813752e-02  6.4795767556390937e-02  6.6343071747022170e-02  7.1481716039100723e-02  8.0374316310350941e-02  1.0251309522369022e-01  1.5284530025584561e-01  2.3926263561040478e-01  3.6302643586849032e-01  4.9750387052144074e-01  6.0832044078079150e-01  6.8511577828370684e-01  7.3493311540630768e-01  7.6676902714764794e-01  7.8680299301232193e-01  7.9859360274401525e-01  8.0445536719982091e-01  8.0648535403760291e-01  8.0636694275197629e-01  8.0459072255930875e-01  8.0022190810654692e-01  7.9147591931629280e-01  7.7637087877653732e-01  7.5254930547076249e-01  7.1626429098792499e-01  6.6148707311340993e-01  5.8066837632638046e-01  4.7025881215251902e-01  3.4285720124860725e-01  2.2624930190945383e-01  1.4278435819741916e-01  1.0070427509384722e-01  7.9785073630024184e-02  6.8137849900773789e-02  6.4771020476692212e-02  6.4684899531162410e-02  6.4731870901748687e-02  6.4458235714323284e-02  1.2041743123231989e-01  1.2119334097898472e-01  6.5134761130761137e-02  6.5400314993055791e-02  7.0145204759486490e-02  9.0107762478817244e-02  1.8268025024048765e-01  5.7661264135474588e-01  8.8810093382639133e-01  9.0898058790556457e-01  9.3061748767011832e-01  9.4769672445239062e-01  9.5786288775915307e-01  9.6337671984798467e-01  9.6659198181111006e-01  9.6875602693429941e-01  9.7033135899831191e-01  9.7142539934663630e-01  9.7206795263847656e-01  9.7234864203162075e-01  9.7242682240899558e-01  9.7245537556864736e-01  9.7249506201693092e-01  9.7247796324933045e-01  9.7223681826924901e-01  9.7158321577580198e-01  9.7038222495024540e-01  9.6855523009105604e-01  9.6597752238655488e-01  9.6226396333935460e-01  9.5641367800783761e-01  9.4650770842208698e-01  9.3047164288310447e-01  9.1056785042002741e-01  8.6276027405763289e-01  4.8532925373377911e-01  1.7221658751113300e-01  8.6846066710299458e-02  6.6753424679844853e-02  6.5009334011335407e-02  6.5139279840448039e-02  1.2073232474264525e-01  1.2263814465280165e-01  6.6179381959190375e-02  7.3369869280487623e-02  1.4619867602978065e-01  5.9011499017922686e-01  9.1550100240149723e-01  9.6291308178364876e-01  9.7186787606649561e-01  9.7751114205319711e-01  9.8145575186710199e-01  9.8370710246963233e-01  9.8522941774364070e-01  9.8627007157469471e-01  9.8700492247741789e-01  9.8755284225636175e-01  9.8797493860798047e-01  9.8829527788960569e-01  9.8852106575170606e-01  9.8865849104378212e-01  9.8871999709619196e-01  9.8872136709410885e-01  9.8867369654012993e-01  9.8857774885474281e-01  9.8842437361123903e-01  9.8819936045216294e-01  9.8788759971120454e-01  9.8747114506117573e-01  9.8691925463808539e-01  9.8617216929090967e-01  9.8511865205537119e-01  9.8356012757989908e-01  9.8115202662829148e-01  9.7713091469369073e-01  9.6939489798438094e-01  9.5478808488155786e-01  8.9887576525053159e-01  5.4698421357457117e-01  1.3708467847863742e-01  6.9079378891551205e-02  6.6252723214703921e-02  1.2174618942250462e-01  1.2375286007218150e-01  7.2691654523989666e-02  2.3090342448356727e-01  9.0721640437284601e-01  9.7008137407602535e-01  9.8069832092665021e-01  9.8558019800406538e-01  9.8830010905568444e-01  9.8992475636479438e-01  9.9092650235490631e-01  9.9158878258292305e-01  9.9204807073891044e-01  9.9237300509361981e-01  9.9260976356538211e-01  9.9278916891348135e-01  9.9292982606675895e-01  9.9304106161394590e-01  9.9312646238137514e-01  9.9318692544943776e-01  9.9322262004461637e-01  9.9323377466701179e-01  9.9322072637588721e-01  9.9318378507994920e-01  9.9312312622222720e-01  9.9303848618005197e-01  9.9292825650858629e-01  9.9278774007820270e-01  9.9260666011452314e-01  9.9236623250964717e-01  9.9203595662689914e-01  9.9156926366437459e-01  9.9089434009571276e-01  9.8988718931589215e-01  9.8827629286146657e-01  9.8538551830846011e-01  9.7966683348794570e-01  9.6620767697053200e-01  8.5799161899674048e-01  2.1016305778917857e-01  6.9496035155144728e-02  1.2321690599992410e-01  1.2695876846153761e-01  2.1843113810237291e-01  9.6222423211238195e-01  9.8417243321553882e-01  9.8992579044295570e-01  9.9231948429057282e-01  9.9342914698770701e-01  9.9404159059241559e-01  9.9441138226709547e-01  9.9465432566132739e-01  9.9482378209085975e-01  9.9494637115281459e-01  9.9503745436684621e-01  9.9510752688461679e-01  9.9516369321914000e-01  9.9521021138823096e-01  9.9524891898650869e-01  9.9528006237686251e-01  9.9530315536206082e-01  9.9531761106001071e-01  9.9532304981213771e-01  9.9531937379368507e-01  9.9530675337592933e-01  9.9528559297210850e-01  9.9525642358248723e-01  9.9521961178612728e-01  9.9517482815883640e-01  9.9512034640974478e-01  9.9505235243461931e-01  9.9496439923537372e-01  9.9484677834272750e-01  9.9468463323805700e-01  9.9445163700216144e-01  9.9409215757876146e-01  9.9347769104853645e-01  9.9230008910875434e-01  9.8969794530821598e-01  9.8211221727094800e-01  9.4688588035055066e-01  1.2622629019009451e-01  1.2512672866280683e-01  6.7914894664001157e-01  9.7910297582629979e-01  9.9239259837023686e-01  9.9496375334201115e-01  9.9587640489118501e-01  9.9623658144455418e-01  9.9637194571558929e-01  9.9641077394352784e-01  9.9641059357623640e-01  9.9639850816382780e-01  9.9638607168153781e-01  9.9637730425629489e-01  9.9637317423546778e-01  9.9637353613691204e-01  9.9637776813224477e-01  9.9638487984110691e-01  9.9639356195005857e-01  9.9640237144528243e-01  9.9640996727197784e-01  9.9641530691001701e-01  9.9641774989835297e-01  9.9641708594709211e-01  9.9641353111444575e-01  9.9640771691899532e-01  9.9640066005983885e-01  9.9639368146051421e-01  9.9638826169444350e-01  9.9638586433194976e-01  9.9638778980038378e-01  9.9639508224707130e-01  9.9640834523811461e-01  9.9642701046192361e-01  9.9644723356928921e-01  9.9645739584284998e-01  9.9642994143296448e-01  9.9630535301606760e-01  9.9594643781148950e-01  9.9495822581546856e-01  9.9157391820356755e-01  9.6703302214520481e-01  1.5759851528349814e-01  9.9465304117983144e-01  9.9721049178204457e-01  9.9780694754958110e-01  9.9795741765528134e-01  9.9792534969599367e-01  9.9781637762334741e-01  9.9767777875538544e-01  9.9753615550734109e-01  9.9740684354150344e-01  9.9729757402232244e-01  9.9721058035122045e-01  9.9714469354839874e-01  9.9709709735232144e-01  9.9706446710963337e-01  9.9704354715186849e-01  9.9703135981380164e-01  9.9702527985447220e-01  9.9702308483715518e-01  9.9702300678717937e-01  9.9702377241492779e-01  9.9702461854158630e-01  9.9702528951455360e-01  9.9702603196948825e-01  9.9702759696664656e-01  9.9703124644788754e-01  9.9703875296192668e-01  9.9705238494281323e-01  9.9707487884016766e-01  9.9710939707790736e-01  9.9715943598786161e-01  9.9722857187870595e-01  9.9731984537781582e-01  9.9743458927327422e-01  9.9757069771752405e-01  9.9772063704940361e-01  9.9786942406632451e-01  9.9799128620571353e-01  9.9803997002038991e-01  9.9790986047659724e-01  9.9729309418388001e-01  9.8737182127462064e-01  9.9872878896533301e-01  9.9920760621751026e-01  9.9910011110180486e-01  9.9893564135040813e-01  9.9873840556471227e-01  9.9852449673105526e-01  9.9831012831538835e-01  9.9810910901570293e-01  9.9793111583820426e-01  9.9778131785245494e-01  9.9766079640507144e-01  9.9756766868493141e-01  9.9749835728209757e-01  9.9744864123818255e-01  9.9741434292861186e-01  9.9739169684993090e-01  9.9737750952627091e-01  9.9736920518830796e-01  9.9736482160446815e-01  9.9736298655231836e-01  9.9736288955253338e-01  9.9736425888324642e-01  9.9736735232778573e-01  9.9737296659463170e-01  9.9738246424984423e-01  9.9739781102058633e-01  9.9742161072564184e-01  9.9745711690053551e-01  9.9750818542762854e-01  9.9757910725405508e-01  9.9767422630636293e-01  9.9779723264602382e-01  9.9795009197289153e-01  9.9813174947935646e-01  9.9833701753449677e-01  9.9855608028935472e-01  9.9877482580578458e-01  9.9897617102678526e-01  9.9914107767346760e-01  9.9924900055738630e-01  9.9822026455811275e-01  9.9927777279313890e-01  9.9956948854016625e-01  9.9945042747015933e-01  9.9927747811207157e-01  9.9906761160221613e-01  9.9883783412901339e-01  9.9860566338543910e-01  9.9838587317901806e-01  9.9818930532761296e-01  9.9802212407515323e-01  9.9788610825522839e-01  9.9777972714939556e-01  9.9769943377339376e-01  9.9764079663518057e-01  9.9759931034702598e-01  9.9757088905469327e-01  9.9755210394574600e-01  9.9754024707542888e-01  9.9753330295294895e-01  9.9752988871380976e-01  9.9752919729724798e-01  9.9753095887807264e-01  9.9753542714514776e-01  9.9754339318988383e-01  9.9755622631686081e-01  9.9757593513184173e-01  9.9760523000563950e-01  9.9764754853256499e-01  9.9770698642579925e-01  9.9778806401329156e-01  9.9789524638762084e-01  9.9803213203774221e-01  9.9820029768419338e-01  9.9839798100893906e-01  9.9861901896976113e-01  9.9885237619001443e-01  9.9908278175987464e-01  9.9929247192459425e-01  9.9946332066986543e-01  9.9957780305777943e-01  9.9918258384712655e-01  9.9936046364681896e-01  9.9964114753056543e-01  9.9953201127221758e-01  9.9936694048004748e-01  9.9915999342057271e-01  9.9892916241358520e-01  9.9869297721080208e-01  9.9846734856780972e-01  9.9826411322067987e-01  9.9809022407199566e-01  9.9794802362647494e-01  9.9783624699960527e-01  9.9775137741719000e-01  9.9768888274655443e-01  9.9764411622343641e-01  9.9761287697911127e-01  9.9759168485962957e-01  9.9757784493256441e-01  9.9756939381173548e-01  9.9756500902526790e-01  9.9756392877020472e-01  9.9756590035944426e-01  9.9757116218773667e-01  9.9758046020886948e-01  9.9759509841869376e-01  9.9761701790713098e-01  9.9764888360688508e-01  9.9769413038916033e-01  9.9775689436884241e-01  9.9784175173501377e-01  9.9795319186411979e-01  9.9809474434407008e-01  9.9826775031028114e-01  9.9847001089839826e-01  9.9869475426768228e-01  9.9893025777523903e-01  9.9916061200642003e-01  9.9936724883864592e-01  9.9953214388987877e-01  9.9964119535646001e-01  9.9936049272053029e-01  9.9918242376085786e-01  9.9957744693127348e-01  9.9946211832793597e-01  9.9928968120967532e-01  9.9907746841883815e-01  9.9884354188665803e-01  9.9860571501205497e-01  9.9837942364684829e-01  9.9817609648883665e-01  9.9800248851349072e-01  9.9786085134500513e-01  9.9774975922480036e-01  9.9766546444111448e-01  9.9760323544438201e-01  9.9755833672312699e-01  9.9752659949430855e-01  9.9750466255200654e-01  9.9748999092357415e-01  9.9748078225683812e-01  9.9747584754154739e-01  9.9747451270638621e-01  9.9747655719319672e-01  9.9748219264946425e-01  9.9749208147132640e-01  9.9750739369182584e-01  9.9752989712877027e-01  9.9756206408170589e-01  9.9760715219504126e-01  9.9766918149847106e-01  9.9775271398239573e-01  9.9786233700723070e-01  9.9800175969640703e-01  9.9817253826284991e-01  9.9837272625504481e-01  9.9859593185806894e-01  9.9883114991037369e-01  9.9906346943596902e-01  9.9927524647749522e-01  9.9944945715485212e-01  9.9956922459526343e-01  9.9927770810288041e-01  9.9821946061346079e-01  9.9924753194268667e-01  9.9913689474283718e-01  9.9896786916955971e-01  9.9876069173900894e-01  9.9853424070798302e-01  9.9830562987962235e-01  9.9808935769189411e-01  9.9789612251062143e-01  9.9773230078543740e-01  9.9759984243918198e-01  9.9749691226795711e-01  9.9741931209660595e-01  9.9736204517084948e-01  9.9732041825518269e-01  9.9729054550112983e-01  9.9726944824206754e-01  9.9725496761749011e-01  9.9724562062155619e-01  9.9724046036523650e-01  9.9723896532766421e-01  9.9724096847362076e-01  9.9724663238926159e-01  9.9725647226931913e-01  9.9727142239233846e-01  9.9729293470542468e-01  9.9732309422654819e-01  9.9736472758229644e-01  9.9742146191850556e-01  9.9749764715829048e-01  9.9759794675122393e-01  9.9772640194833595e-01  9.9788499330120650e-01  9.9807220958019349e-01  9.9828216399538583e-01  9.9850451770799276e-01  9.9872508098366997e-01  9.9892751015148329e-01  9.9909575948767171e-01  9.9920595466617124e-01  9.9872832853112625e-01  9.8737701454145133e-01  9.9728245796461079e-01  9.9789118515146336e-01  9.9801338401566397e-01  9.9795397781258244e-01  9.9781808995591470e-01  9.9765194879199592e-01  9.9748222158235045e-01  9.9732575288417002e-01  9.9719240816872279e-01  9.9708582059034356e-01  9.9700440007097091e-01  9.9694360190643361e-01  9.9689841771115284e-01  9.9686475179837764e-01  9.9683965083856718e-01  9.9682107606402770e-01  9.9680766638289853e-01  9.9679857168031061e-01  9.9679331573441776e-01  9.9679167340604580e-01  9.9679358022375075e-01  9.9679909802387190e-01  9.9680844785227185e-01  9.9682210155725104e-01  9.9684090224886834e-01  9.9686617638532926e-01  9.9689981927313365e-01  9.9694441651199073e-01  9.9700341878103416e-01  9.9708107613440611e-01  9.9718147097779453e-01  9.9730627159711815e-01  9.9745252881401980e-01  9.9761113044154670e-01  9.9776521106373284e-01  9.9788701016607562e-01  9.9792907429812960e-01  9.9778731155464018e-01  9.9719799349988780e-01  9.9464739982604844e-01  1.5430741148768737e-01  9.6817614343512337e-01  9.9149953423253490e-01  9.9487858376306815e-01  9.9584810574564442e-01  9.9618338012636332e-01  9.9627667615630400e-01  9.9626843861214542e-01  9.9622227916837802e-01  9.9617097253890263e-01  9.9612913618450238e-01  9.9609840235921510e-01  9.9607467649222770e-01  9.9605433996173443e-01  9.9603597893181495e-01  9.9601946833401489e-01  9.9600504623840536e-01  9.9599304987236736e-01  9.9598391572410450e-01  9.9597812460110902e-01  9.9597606296084062e-01  9.9597788665189935e-01  9.9598346023219064e-01  9.9599240355303265e-01  9.9600423568896956e-01  9.9601855260628613e-01  9.9603511252150556e-01  9.9605372595791686e-01  9.9607417545371013e-01  9.9609665502837097e-01  9.9612296308332882e-01  9.9615582730786933e-01  9.9619345048463637e-01  9.9622283731933525e-01  9.9621442622431011e-01  9.9610747925426435e-01  9.9576899999235224e-01  9.9486324876656074e-01  9.9233614108053303e-01  9.7956316396221077e-01  6.6255634057232182e-01  1.2650262902525219e-01  1.1856156872733221e-01  9.4278605950568362e-01  9.8182756945643557e-01  9.8971784509363925e-01  9.9215450867859833e-01  9.9319312515110969e-01  9.9370566834804164e-01  9.9397371744719853e-01  9.9413854637660493e-01  9.9426159566288919e-01  9.9435349842175424e-01  9.9441154834677370e-01  9.9443996861702966e-01  9.9444814342027055e-01  9.9444447792198221e-01  9.9443464194138309e-01  9.9442252555193922e-01  9.9441118496481995e-01  9.9440305926573869e-01  9.9439978047522593e-01  9.9440194038625740e-01  9.9440897655092919e-01  9.9441922583718734e-01  9.9443015778433508e-01  9.9443871429828379e-01  9.9444141576556455e-01  9.9443362869165630e-01  9.9440786063945008e-01  9.9435312465497516e-01  9.9425986907654451e-01  9.9412315697303488e-01  9.9392791549188397e-01  9.9362172341409649e-01  9.9310069331996353e-01  9.9208357103569489e-01  9.8958385134056204e-01  9.8404836419886488e-01  9.6305498095373876e-01  2.0533347030255236e-01  1.2706792867892019e-01  1.2270411365357826e-01  6.9096417877592797e-02  1.7732040815652211e-01  9.0986658394927444e-01  9.6405194641534742e-01  9.7874525921949440e-01  9.8453146700436167e-01  9.8776208710514080e-01  9.8912526825986880e-01  9.8979989540291258e-01  9.9029297763162938e-01  9.9065562085509928e-01  9.9087042669125180e-01  9.9097250268240766e-01  9.9100833837351476e-01  9.9100837890409654e-01  9.9098930187907885e-01  9.9096192018772256e-01  9.9093479589563649e-01  9.9091462132552066e-01  9.9090574181598023e-01  9.9090978386578354e-01  9.9092543407572442e-01  9.9094829756592617e-01  9.9097102857612251e-01  9.9098411215394244e-01  9.9097711393581756e-01  9.9093818830375680e-01  9.9084649761748955e-01  9.9065900904893300e-01  9.9031408201642357e-01  9.8973666657815007e-01  9.8876031954847643e-01  9.8682165751750117e-01  9.8399601018798144e-01  9.8187804919328070e-01  9.7077906852794360e-01  9.2021283927999686e-01  1.9134497463010020e-01  7.1480726324889068e-02  1.2393376193469401e-01  1.2113435109563293e-01  6.5970008292186855e-02  6.8745823504042750e-02  1.1601675291836216e-01  4.9806936357224119e-01  9.4914194104544392e-01  9.3148625782300232e-01  9.6186447339649783e-01  9.6981494885540409e-01  9.7655742816694457e-01  9.8145734401809359e-01  9.8270863185772173e-01  9.8279532502154865e-01  9.8291964168739898e-01  9.8312557406386303e-01  9.8323594835558759e-01  9.8321298139227031e-01  9.8310758140704457e-01  9.8298454711255223e-01  9.8289011192339171e-01  9.8284631949204515e-01  9.8285410917347971e-01  9.8289529563988887e-01  9.8293124539786947e-01  9.8290386161442611e-01  9.8275477747933493e-01  9.8248699323292621e-01  9.8226020274573511e-01  9.8230472990555295e-01  9.8212851251906930e-01  9.7959741076558471e-01  9.7495036691888315e-01  9.7316798601545529e-01  9.6762350323747448e-01  9.3774342903025776e-01  9.2220284179340006e-01  5.4157729908348928e-01  1.2750254136797032e-01  7.1818988461191183e-02  6.5945625539723080e-02  1.2203067508391183e-01  1.2045569686839518e-01  6.4903552584618510e-02  6.5415318942527417e-02  6.7573497446340641e-02  8.2415067416145862e-02  1.2794634475796313e-01  2.7237562818190525e-01  6.8358717571816585e-01  8.4781544277940935e-01  8.8279153013681377e-01  9.7853925719251367e-01  9.7709671207562365e-01  9.5972752120548144e-01  9.5681894650090493e-01  9.5897171921408153e-01  9.6116453729770002e-01  9.6213345592868704e-01  9.6204042841114112e-01  9.6150148532255564e-01  9.6101031396807302e-01  9.6081944836998512e-01  9.6099838895663658e-01  9.6147335148157764e-01  9.6200054944744184e-01  9.6210683975408129e-01  9.6115056124498621e-01  9.5875003876628406e-01  9.5557930447955819e-01  9.5548058253599943e-01  9.7073448257541939e-01  9.9844375738693270e-01  9.3966180705676894e-01  8.5386316768425241e-01  6.6821670809492861e-01  3.0893091742293172e-01  1.2706523014300206e-01  8.3424086662561306e-02  7.1106817359217214e-02  6.5779523081288607e-02  6.4926988389144680e-02  1.2070915445475860e-01  1.2036844688347234e-01  6.4547460425297049e-02  6.4963138770196438e-02  6.5518918355387701e-02  6.6373361989685728e-02  6.9035110039155689e-02  7.7394793283978289e-02  9.3948958112148873e-02  1.0546861826883956e-01  1.1993368643764560e-01  1.6369047363458941e-01  2.1768969944739591e-01  2.5643527680447481e-01  2.9068103205175466e-01  3.2358761916414436e-01  3.5289566086673274e-01  3.7413661551963273e-01  3.8651250008375826e-01  3.9229800858030361e-01  3.9438718386770716e-01  3.9488376080807752e-01  3.9462540717897349e-01  3.9310678617187589e-01  3.8854959423847041e-01  3.7819799218904215e-01  3.5913362588007702e-01  3.2988107688368828e-01  2.9241323030582156e-01  2.5224220299226424e-01  2.1368284517159758e-01  1.7593562555977743e-01  1.3538698280121836e-01  9.9567472207105934e-02  8.5535012404931110e-02  8.1206492639707667e-02  7.2659371932556630e-02  6.7362084950196813e-02  6.5651390943333818e-02  6.5016360560126274e-02  6.4571179121187899e-02  1.2037412791343544e-01  1.2041312357359166e-01  6.4549413138033987e-02  6.4823775088723515e-02  6.5147380829545631e-02  6.5516815587751187e-02  6.5878313145940476e-02  6.6232174326223942e-02  6.6727389607586174e-02  6.784355785