<?xml version="1.0"?>
<VTKFile type="UnstructuredGrid"  version="0.1"  >
<UnstructuredGrid>
<Piece  NumberOfPoints="1681" NumberOfCells="3200">
<Points>
<DataArray  type="Float64"  NumberOfComponents="3"  format="ascii">0 0 0  0.025 0 0  0.05 0 0  0.075 0 0  0.1 0 0  0.125 0 0  0.15 0 0  0.175 0 0  0.2 0 0  0.225 0 0  0.25 0 0  0.275 0 0  0.3 0 0  0.325 0 0  0.35 0 0  0.375 0 0  0.4 0 0  0.425 0 0  0.45 0 0  0.475 0 0  0.5 0 0  0.525 0 0  0.55 0 0  0.575 0 0  0.6 0 0  0.625 0 0  0.65 0 0  0.675 0 0  0.7 0 0  0.725 0 0  0.75 0 0  0.775 0 0  0.8 0 0  0.825 0 0  0.85 0 0  0.875 0 0  0.9 0 0  0.925 0 0  0.95 0 0  0.975 0 0  1 0 0  0 0.025 0  0.025 0.025 0  0.05 0.025 0  0.075 0.025 0  0.1 0.025 0  0.125 0.025 0  0.15 0.025 0  0.175 0.025 0  0.2 0.025 0  0.225 0.025 0  0.25 0.025 0  0.275 0.025 0  0.3 0.025 0  0.325 0.025 0  0.35 0.025 0  0.375 0.025 0  0.4 0.025 0  0.425 0.025 0  0.45 0.025 0  0.475 0.025 0  0.5 0.025 0  0.525 0.025 0  0.55 0.025 0  0.575 0.025 0  0.6 0.025 0  0.625 0.025 0  0.65 0.025 0  0.675 0.025 0  0.7 0.025 0  0.725 0.025 0  0.75 0.025 0  0.775 0.025 0  0.8 0.025 0  0.825 0.025 0  0.85 0.025 0  0.875 0.025 0  0.9 0.025 0  0.925 0.025 0  0.95 0.025 0  0.975 0.025 0  1 0.025 0  0 0.05 0  0.025 0.05 0  0.05 0.05 0  0.075 0.05 0  0.1 0.05 0  0.125 0.05 0  0.15 0.05 0  0.175 0.05 0  0.2 0.05 0  0.225 0.05 0  0.25 0.05 0  0.275 0.05 0  0.3 0.05 0  0.325 0.05 0  0.35 0.05 0  0.375 0.05 0  0.4 0.05 0  0.425 0.05 0  0.45 0.05 0  0.475 0.05 0  0.5 0.05 0  0.525 0.05 0  0.55 0.05 0  0.575 0.05 0  0.6 0.05 0  0.625 0.05 0  0.65 0.05 0  0.675 0.05 0  0.7 0.05 0  0.725 0.05 0  0.75 0.05 0  0.775 0.05 0  0.8 0.05 0  0.825 0.05 0  0.85 0.05 0  0.875 0.05 0  0.9 0.05 0  0.925 0.05 0  0.95 0.05 0  0.975 0.05 0  1 0.05 0  0 0.075 0  0.025 0.075 0  0.05 0.075 0  0.075 0.075 0  0.1 0.075 0  0.125 0.075 0  0.15 0.075 0  0.175 0.075 0  0.2 0.075 0  0.225 0.075 0  0.25 0.075 0  0.275 0.075 0  0.3 0.075 0  0.325 0.075 0  0.35 0.075 0  0.375 0.075 0  0.4 0.075 0  0.425 0.075 0  0.45 0.075 0  0.475 0.075 0  0.5 0.075 0  0.525 0.075 0  0.55 0.075 0  0.575 0.075 0  0.6 0.075 0  0.625 0.075 0  0.65 0.075 0  0.675 0.075 0  0.7 0.075 0  0.725 0.075 0  0.75 0.075 0  0.775 0.075 0  0.8 0.075 0  0.825 0.075 0  0.85 0.075 0  0.875 0.075 0  0.9 0.075 0  0.925 0.075 0  0.95 0.075 0  0.975 0.075 0  1 0.075 0  0 0.1 0  0.025 0.1 0  0.05 0.1 0  0.075 0.1 0  0.1 0.1 0  0.125 0.1 0  0.15 0.1 0  0.175 0.1 0  0.2 0.1 0  0.225 0.1 0  0.25 0.1 0  0.275 0.1 0  0.3 0.1 0  0.325 0.1 0  0.35 0.1 0  0.375 0.1 0  0.4 0.1 0  0.425 0.1 0  0.45 0.1 0  0.475 0.1 0  0.5 0.1 0  0.525 0.1 0  0.55 0.1 0  0.575 0.1 0  0.6 0.1 0  0.625 0.1 0  0.65 0.1 0  0.675 0.1 0  0.7 0.1 0  0.725 0.1 0  0.75 0.1 0  0.775 0.1 0  0.8 0.1 0  0.825 0.1 0  0.85 0.1 0  0.875 0.1 0  0.9 0.1 0  0.925 0.1 0  0.95 0.1 0  0.975 0.1 0  1 0.1 0  0 0.125 0  0.025 0.125 0  0.05 0.125 0  0.075 0.125 0  0.1 0.125 0  0.125 0.125 0  0.15 0.125 0  0.175 0.125 0  0.2 0.125 0  0.225 0.125 0  0.25 0.125 0  0.275 0.125 0  0.3 0.125 0  0.325 0.125 0  0.35 0.125 0  0.375 0.125 0  0.4 0.125 0  0.425 0.125 0  0.45 0.125 0  0.475 0.125 0  0.5 0.125 0  0.525 0.125 0  0.55 0.125 0  0.575 0.125 0  0.6 0.125 0  0.625 0.125 0  0.65 0.125 0  0.675 0.125 0  0.7 0.125 0  0.725 0.125 0  0.75 0.125 0  0.775 0.125 0  0.8 0.125 0  0.825 0.125 0  0.85 0.125 0  0.875 0.125 0  0.9 0.125 0  0.925 0.125 0  0.95 0.125 0  0.975 0.125 0  1 0.125 0  0 0.15 0  0.025 0.15 0  0.05 0.15 0  0.075 0.15 0  0.1 0.15 0  0.125 0.15 0  0.15 0.15 0  0.175 0.15 0  0.2 0.15 0  0.225 0.15 0  0.25 0.15 0  0.275 0.15 0  0.3 0.15 0  0.325 0.15 0  0.35 0.15 0  0.375 0.15 0  0.4 0.15 0  0.425 0.15 0  0.45 0.15 0  0.475 0.15 0  0.5 0.15 0  0.525 0.15 0  0.55 0.15 0  0.575 0.15 0  0.6 0.15 0  0.625 0.15 0  0.65 0.15 0  0.675 0.15 0  0.7 0.15 0  0.725 0.15 0  0.75 0.15 0  0.775 0.15 0  0.8 0.15 0  0.825 0.15 0  0.85 0.15 0  0.875 0.15 0  0.9 0.15 0  0.925 0.15 0  0.95 0.15 0  0.975 0.15 0  1 0.15 0  0 0.175 0  0.025 0.175 0  0.05 0.175 0  0.075 0.175 0  0.1 0.175 0  0.125 0.175 0  0.15 0.175 0  0.175 0.175 0  0.2 0.175 0  0.225 0.175 0  0.25 0.175 0  0.275 0.175 0  0.3 0.175 0  0.325 0.175 0  0.35 0.175 0  0.375 0.175 0  0.4 0.175 0  0.425 0.175 0  0.45 0.175 0  0.475 0.175 0  0.5 0.175 0  0.525 0.175 0  0.55 0.175 0  0.575 0.175 0  0.6 0.175 0  0.625 0.175 0  0.65 0.175 0  0.675 0.175 0  0.7 0.175 0  0.725 0.175 0  0.75 0.175 0  0.775 0.175 0  0.8 0.175 0  0.825 0.175 0  0.85 0.175 0  0.875 0.175 0  0.9 0.175 0  0.925 0.175 0  0.95 0.175 0  0.975 0.175 0  1 0.175 0  0 0.2 0  0.025 0.2 0  0.05 0.2 0  0.075 0.2 0  0.1 0.2 0  0.125 0.2 0  0.15 0.2 0  0.175 0.2 0  0.2 0.2 0  0.225 0.2 0  0.25 0.2 0  0.275 0.2 0  0.3 0.2 0  0.325 0.2 0  0.35 0.2 0  0.375 0.2 0  0.4 0.2 0  0.425 0.2 0  0.45 0.2 0  0.475 0.2 0  0.5 0.2 0  0.525 0.2 0  0.55 0.2 0  0.575 0.2 0  0.6 0.2 0  0.625 0.2 0  0.65 0.2 0  0.675 0.2 0  0.7 0.2 0  0.725 0.2 0  0.75 0.2 0  0.775 0.2 0  0.8 0.2 0  0.825 0.2 0  0.85 0.2 0  0.875 0.2 0  0.9 0.2 0  0.925 0.2 0  0.95 0.2 0  0.975 0.2 0  1 0.2 0  0 0.225 0  0.025 0.225 0  0.05 0.225 0  0.075 0.225 0  0.1 0.225 0  0.125 0.225 0  0.15 0.225 0  0.175 0.225 0  0.2 0.225 0  0.225 0.225 0  0.25 0.225 0  0.275 0.225 0  0.3 0.225 0  0.325 0.225 0  0.35 0.225 0  0.375 0.225 0  0.4 0.225 0  0.425 0.225 0  0.45 0.225 0  0.475 0.225 0  0.5 0.225 0  0.525 0.225 0  0.55 0.225 0  0.575 0.225 0  0.6 0.225 0  0.625 0.225 0  0.65 0.225 0  0.675 0.225 0  0.7 0.225 0  0.725 0.225 0  0.75 0.225 0  0.775 0.225 0  0.8 0.225 0  0.825 0.225 0  0.85 0.225 0  0.875 0.225 0  0.9 0.225 0  0.925 0.225 0  0.95 0.225 0  0.975 0.225 0  1 0.225 0  0 0.25 0  0.025 0.25 0  0.05 0.25 0  0.075 0.25 0  0.1 0.25 0  0.125 0.25 0  0.15 0.25 0  0.175 0.25 0  0.2 0.25 0  0.225 0.25 0  0.25 0.25 0  0.275 0.25 0  0.3 0.25 0  0.325 0.25 0  0.35 0.25 0  0.375 0.25 0  0.4 0.25 0  0.425 0.25 0  0.45 0.25 0  0.475 0.25 0  0.5 0.25 0  0.525 0.25 0  0.55 0.25 0  0.575 0.25 0  0.6 0.25 0  0.625 0.25 0  0.65 0.25 0  0.675 0.25 0  0.7 0.25 0  0.725 0.25 0  0.75 0.25 0  0.775 0.25 0  0.8 0.25 0  0.825 0.25 0  0.85 0.25 0  0.875 0.25 0  0.9 0.25 0  0.925 0.25 0  0.95 0.25 0  0.975 0.25 0  1 0.25 0  0 0.275 0  0.025 0.275 0  0.05 0.275 0  0.075 0.275 0  0.1 0.275 0  0.125 0.275 0  0.15 0.275 0  0.175 0.275 0  0.2 0.275 0  0.225 0.275 0  0.25 0.275 0  0.275 0.275 0  0.3 0.275 0  0.325 0.275 0  0.35 0.275 0  0.375 0.275 0  0.4 0.275 0  0.425 0.275 0  0.45 0.275 0  0.475 0.275 0  0.5 0.275 0  0.525 0.275 0  0.55 0.275 0  0.575 0.275 0  0.6 0.275 0  0.625 0.275 0  0.65 0.275 0  0.675 0.275 0  0.7 0.275 0  0.725 0.275 0  0.75 0.275 0  0.775 0.275 0  0.8 0.275 0  0.825 0.275 0  0.85 0.275 0  0.875 0.275 0  0.9 0.275 0  0.925 0.275 0  0.95 0.275 0  0.975 0.275 0  1 0.275 0  0 0.3 0  0.025 0.3 0  0.05 0.3 0  0.075 0.3 0  0.1 0.3 0  0.125 0.3 0  0.15 0.3 0  0.175 0.3 0  0.2 0.3 0  0.225 0.3 0  0.25 0.3 0  0.275 0.3 0  0.3 0.3 0  0.325 0.3 0  0.35 0.3 0  0.375 0.3 0  0.4 0.3 0  0.425 0.3 0  0.45 0.3 0  0.475 0.3 0  0.5 0.3 0  0.525 0.3 0  0.55 0.3 0  0.575 0.3 0  0.6 0.3 0  0.625 0.3 0  0.65 0.3 0  0.675 0.3 0  0.7 0.3 0  0.725 0.3 0  0.75 0.3 0  0.775 0.3 0  0.8 0.3 0  0.825 0.3 0  0.85 0.3 0  0.875 0.3 0  0.9 0.3 0  0.925 0.3 0  0.95 0.3 0  0.975 0.3 0  1 0.3 0  0 0.325 0  0.025 0.325 0  0.05 0.325 0  0.075 0.325 0  0.1 0.325 0  0.125 0.325 0  0.15 0.325 0  0.175 0.325 0  0.2 0.325 0  0.225 0.325 0  0.25 0.325 0  0.275 0.325 0  0.3 0.325 0  0.325 0.325 0  0.35 0.325 0  0.375 0.325 0  0.4 0.325 0  0.425 0.325 0  0.45 0.325 0  0.475 0.325 0  0.5 0.325 0  0.525 0.325 0  0.55 0.325 0  0.575 0.325 0  0.6 0.325 0  0.625 0.325 0  0.65 0.325 0  0.675 0.325 0  0.7 0.325 0  0.725 0.325 0  0.75 0.325 0  0.775 0.325 0  0.8 0.325 0  0.825 0.325 0  0.85 0.325 0  0.875 0.325 0  0.9 0.325 0  0.925 0.325 0  0.95 0.325 0  0.975 0.325 0  1 0.325 0  0 0.35 0  0.025 0.35 0  0.05 0.35 0  0.075 0.35 0  0.1 0.35 0  0.125 0.35 0  0.15 0.35 0  0.175 0.35 0  0.2 0.35 0  0.225 0.35 0  0.25 0.35 0  0.275 0.35 0  0.3 0.35 0  0.325 0.35 0  0.35 0.35 0  0.375 0.35 0  0.4 0.35 0  0.425 0.35 0  0.45 0.35 0  0.475 0.35 0  0.5 0.35 0  0.525 0.35 0  0.55 0.35 0  0.575 0.35 0  0.6 0.35 0  0.625 0.35 0  0.65 0.35 0  0.675 0.35 0  0.7 0.35 0  0.725 0.35 0  0.75 0.35 0  0.775 0.35 0  0.8 0.35 0  0.825 0.35 0  0.85 0.35 0  0.875 0.35 0  0.9 0.35 0  0.925 0.35 0  0.95 0.35 0  0.975 0.35 0  1 0.35 0  0 0.375 0  0.025 0.375 0  0.05 0.375 0  0.075 0.375 0  0.1 0.375 0  0.125 0.375 0  0.15 0.375 0  0.175 0.375 0  0.2 0.375 0  0.225 0.375 0  0.25 0.375 0  0.275 0.375 0  0.3 0.375 0  0.325 0.375 0  0.35 0.375 0  0.375 0.375 0  0.4 0.375 0  0.425 0.375 0  0.45 0.375 0  0.475 0.375 0  0.5 0.375 0  0.525 0.375 0  0.55 0.375 0  0.575 0.375 0  0.6 0.375 0  0.625 0.375 0  0.65 0.375 0  0.675 0.375 0  0.7 0.375 0  0.725 0.375 0  0.75 0.375 0  0.775 0.375 0  0.8 0.375 0  0.825 0.375 0  0.85 0.375 0  0.875 0.375 0  0.9 0.375 0  0.925 0.375 0  0.95 0.375 0  0.975 0.375 0  1 0.375 0  0 0.4 0  0.025 0.4 0  0.05 0.4 0  0.075 0.4 0  0.1 0.4 0  0.125 0.4 0  0.15 0.4 0  0.175 0.4 0  0.2 0.4 0  0.225 0.4 0  0.25 0.4 0  0.275 0.4 0  0.3 0.4 0  0.325 0.4 0  0.35 0.4 0  0.375 0.4 0  0.4 0.4 0  0.425 0.4 0  0.45 0.4 0  0.475 0.4 0  0.5 0.4 0  0.525 0.4 0  0.55 0.4 0  0.575 0.4 0  0.6 0.4 0  0.625 0.4 0  0.65 0.4 0  0.675 0.4 0  0.7 0.4 0  0.725 0.4 0  0.75 0.4 0  0.775 0.4 0  0.8 0.4 0  0.825 0.4 0  0.85 0.4 0  0.875 0.4 0  0.9 0.4 0  0.925 0.4 0  0.95 0.4 0  0.975 0.4 0  1 0.4 0  0 0.425 0  0.025 0.425 0  0.05 0.425 0  0.075 0.425 0  0.1 0.425 0  0.125 0.425 0  0.15 0.425 0  0.175 0.425 0  0.2 0.425 0  0.225 0.425 0  0.25 0.425 0  0.275 0.425 0  0.3 0.425 0  0.325 0.425 0  0.35 0.425 0  0.375 0.425 0  0.4 0.425 0  0.425 0.425 0  0.45 0.425 0  0.475 0.425 0  0.5 0.425 0  0.525 0.425 0  0.55 0.425 0  0.575 0.425 0  0.6 0.425 0  0.625 0.425 0  0.65 0.425 0  0.675 0.425 0  0.7 0.425 0  0.725 0.425 0  0.75 0.425 0  0.775 0.425 0  0.8 0.425 0  0.825 0.425 0  0.85 0.425 0  0.875 0.425 0  0.9 0.425 0  0.925 0.425 0  0.95 0.425 0  0.975 0.425 0  1 0.425 0  0 0.45 0  0.02
[...]
<PointData  Scalars="ControlVisualisation"> 
<DataArray  type="Float64"  Name="ControlVisualisation"  format="ascii">7.4562495093121106e-03  4.9840970476766359e-03  4.9843826097905790e-03  4.9857228328531499e-03  4.9891781189635295e-03  4.9952173211052905e-03  5.0030893327743242e-03  5.0112355148506718e-03  5.0183765559898641e-03  5.0241403435158710e-03  5.0287397591919731e-03  5.0323773564450395e-03  5.0350704865577802e-03  5.0368884351678963e-03  5.0381019864251452e-03  5.0390318829527372e-03  5.0398664351077975e-03  5.0406296953920239e-03  5.0412460571717154e-03  5.0416172566515307e-03  5.0416739158547557e-03  5.0413987475507573e-03  5.0408360722446191e-03  5.0400878795927714e-03  5.0392779168113170e-03  5.0384571457653300e-03  5.0374478346849527e-03  5.0358297082812942e-03  5.0332904845293274e-03  5.0298513432767743e-03  5.0256001051269530e-03  5.0203426581845066e-03  5.0137741840026147e-03  5.0059928906165153e-03  4.9979433950012569e-03  4.9912411200171199e-03  4.9868840418317920e-03  4.9848031622650047e-03  4.9841725982211361e-03  4.9840849024875480e-03  1.4790635552116741e-02  4.9840591727236426e-03  2.4985673460316314e-03  2.4989139444805898e-03  2.5004023142301264e-03  2.5041977813564007e-03  2.5109591725080847e-03  2.5200360401946816e-03  2.5295878889566039e-03  2.5380444371252463e-03  2.5449002000465211e-03  2.5504837098454503e-03  2.5550886764710754e-03  2.5585695912199412e-03  2.5608804351375512e-03  2.5623715209090836e-03  2.5634973499456494e-03  2.5645273474859593e-03  2.5655053337299669e-03  2.5663352906149083e-03  2.5668817825097662e-03  2.5670461322195195e-03  2.5667909212122387e-03  2.5661485237056685e-03  2.5652347399850849e-03  2.5642252725403872e-03  2.5632489104679568e-03  2.5622120792701945e-03  2.5606424760082733e-03  2.5578763621475235e-03  2.5538558248992390e-03  2.5491316547620073e-03  2.5433781975990897e-03  2.5362728612155477e-03  2.5275382679577100e-03  2.5179728322016139e-03  2.5093957847487098e-03  2.5033169121107448e-03  2.5000455368662552e-03  2.4988195836864384e-03  2.4985599091361240e-03  4.9840801758044267e-03  4.9841423179497624e-03  2.4987340227179372e-03  2.4996515365374719e-03  2.5025074667360155e-03  2.5088670251611827e-03  2.5193666289698179e-03  2.5325995060022106e-03  2.5453399990791369e-03  2.5563777140621066e-03  2.5657691078278659e-03  2.5747321101661012e-03  2.5833339659458682e-03  2.5900976817897674e-03  2.5946402000545546e-03  2.5978278516265944e-03  2.6005029577183883e-03  2.6029642899360475e-03  2.6051621650548386e-03  2.6069043831993318e-03  2.6079881336068377e-03  2.6083043804941801e-03  2.6077923656259820e-03  2.6064311114920411e-03  2.6043320908506543e-03  2.6017677121763371e-03  2.5991204193157296e-03  2.5967177387678669e-03  2.5937444934254691e-03  2.5878930264863083e-03  2.5795515671225067e-03  2.5716732440091467e-03  2.5629452754445553e-03  2.5536177835555674e-03  2.5422909313345238e-03  2.5292554869054077e-03  2.5163045828198224e-03  2.5070277051996463e-03  2.5017821663182917e-03  2.4994211062161604e-03  2.4985997849409549e-03  4.9840494617447578e-03  4.9866052166544625e-03  2.5007151630840906e-03  2.5032718277288001e-03  2.5162382410505156e-03  2.5563020830527976e-03  2.6301635810734893e-03  2.7293044159974866e-03  2.8224848008218083e-03  2.9017542325601602e-03  2.9767294175606467e-03  3.0569389739376371e-03  3.1416494849132869e-03  3.2096734918723420e-03  3.2579983539056151e-03  3.2998359132165879e-03  3.3383041012959767e-03  3.3713614607896424e-03  3.3976442850288504e-03  3.4162848505625960e-03  3.4269033593262170e-03  3.4301738540172180e-03  3.4263901084537487e-03  3.4149623188951053e-03  3.3958705243338442e-03  3.3698586342928031e-03  3.3395393813360572e-03  3.3108062765869963e-03  3.2766324193934885e-03  3.2103367302229566e-03  3.1256944338622383e-03  3.0546134377382982e-03  2.9716269737332084e-03  2.8763189706738045e-03  2.7694868831664708e-03  2.6565262012666021e-03  2.5683754831394841e-03  2.5254471549623235e-03  2.5086396283690374e-03  2.5029672223362705e-03  2.4998072443709360e-03  4.9843224587804167e-03  5.0114540038200400e-03  2.5297571943502669e-03  2.6442710853685544e-03  2.8998682300025386e-03  3.3815649217879317e-03  4.6240275230932252e-03  7.9190528405821449e-03  1.8406219113204031e-02  4.2185624187540127e-02  7.0544834263922190e-02  9.4128035402728863e-02  1.2373694826530605e-01  1.5218944283039246e-01  1.5390957681050177e-01  1.4359095456860432e-01  1.4065147666192102e-01  1.4415169990199184e-01  1.5029188758891204e-01  1.5650129139471064e-01  1.6020356605343961e-01  1.6118618877235227e-01  1.6068504666670086e-01  1.5741451894773778e-01  1.5049414914998227e-01  1.4245793062247081e-01  1.3814921709386263e-01  1.4602108108773304e-01  1.6469533804236242e-01  1.5784748373240473e-01  1.1942487133707697e-01  9.4690385865657631e-02  7.4984364477473101e-02  3.8634650334924310e-02  1.9018786535964109e-02  8.0585964392930649e-03  4.6177058942034532e-03  3.4859437207166964e-03  2.7855968476406998e-03  2.5305586652083541e-03  2.5154083429565245e-03  4.9895157683338609e-03  5.5947704866085119e-03  2.7279408049385718e-03  4.1542756880771472e-03  7.6969295898260182e-02  3.3391073665601795e-01  5.3569433325065319e-01  7.2377279692971586e-01  8.6465443144630694e-01  9.4444465018865087e-01  9.7186745505843009e-01  9.8085302377679751e-01  9.8480992539208734e-01  9.8699660470307171e-01  9.8824875496199294e-01  9.8900686463262077e-01  9.8954830328873145e-01  9.8995808908223359e-01  9.9026148458124374e-01  9.9047397890041367e-01  9.9060277537869701e-01  9.9064989199034137e-01  9.9061602699500761e-01  9.9049650706133852e-01  9.9028032093274243e-01  9.8995560640670743e-01  9.8950783064959424e-01  9.8891486377905746e-01  9.8812258642730710e-01  9.8689410735621985e-01  9.8456792609723509e-01  9.8006061696426816e-01  9.7012626027990456e-01  9.3912157683908226e-01  8.5806415300876127e-01  7.2636835456612825e-01  5.2886956184676537e-01  3.0950248624175414e-01  6.5170432873598583e-02  4.6486333059970967e-03  2.7170551116532777e-03  5.1872353091100198e-03  6.8999866149900618e-03  9.3096676303336512e-02  8.0628312631722410e-01  9.9232230897806528e-01  9.9646463439980137e-01  9.9729642039886968e-01  9.9764289269584028e-01  9.9782009248996828e-01  9.9792977606384536e-01  9.9800960677853601e-01  9.9807186806299653e-01  9.9811853986011501e-01  9.9815373703935772e-01  9.9818027009450183e-01  9.9820074172207507e-01  9.9821728373144003e-01  9.9823092216164500e-01  9.9824188716158624e-01  9.9825004517181848e-01  9.9825518845077021e-01  9.9825717727771635e-01  9.9825597214579753e-01  9.9825161787012229e-01  9.9824426290712198e-01  9.9823415371067636e-01  9.9822144752661357e-01  9.9820575712646653e-01  9.9818557604471114e-01  9.9815837036633404e-01  9.9812170740594219e-01  9.9807285975457749e-01  9.9800474700761277e-01  9.9790403013355300e-01  9.9775497734159491e-01  9.9751865116607452e-01  9.9708152822401985e-01  9.9599668968602184e-01  9.9149481343502732e-01  7.7044361751092427e-01  2.0885498309205278e-02  5.5642806324169335e-03  9.9692489213214142e-01  9.9844820272977619e-01  9.9894044392794568e-01  9.9900856048309938e-01  9.9906521901666179e-01  9.9909627347818963e-01  9.9910972457914005e-01  9.9911635076376615e-01  9.9911992829022656e-01  9.9912170277753354e-01  9.9912271070239078e-01  9.9912367287630732e-01  9.9912482698809635e-01  9.9912609359184601e-01  9.9912743800501636e-01  9.9912890447994229e-01  9.9913048022724837e-01  9.9913203878625301e-01  9.9913338628627169e-01  9.9913433217359970e-01  9.9913474188956009e-01  9.9913456639167575e-01  9.9913385126489807e-01  9.9913273191629637e-01  9.9913140523329913e-01  9.9913006135860682e-01  9.9912879114861763e-01  9.9912755038471723e-01  9.9912629402642805e-01  9.9912520585306386e-01  9.9912464292075043e-01  9.9912468616518246e-01  9.9912490729122327e-01  9.9912463881867264e-01  9.9912288926422865e-01  9.9911654316545773e-01  9.9909530109730482e-01  9.9903239367367069e-01  9.9887730423795018e-01  9.9845776567590638e-01  9.8115432320267648e-01  9.9949557762339880e-01  9.9967965684167648e-01  9.9964313846256647e-01  9.9959681111946752e-01  9.9955116002711797e-01  9.9951023800905092e-01  9.9947659931814226e-01  9.9945081926034085e-01  9.9943200225426065e-01  9.9941862563297190e-01  9.9940929864320094e-01  9.9940292379237083e-01  9.9939865569337993e-01  9.9939585198110925e-01  9.9939407029306138e-01  9.9939302780427630e-01  9.9939252375920951e-01  9.9939238236249262e-01  9.9939244028268504e-01  9.9939255938462324e-01  9.9939264610795842e-01  9.9939266641780766e-01  9.9939265154592394e-01  9.9939269363706629e-01  9.9939293037699983e-01  9.9939352148279681e-01  9.9939463323092415e-01  9.9939646162918050e-01  9.9939931307518182e-01  9.9940370369519493e-01  9.9941039618851690e-01  9.9942037180849697e-01  9.9943484387190418e-01  9.9945529964817903e-01  9.9948329941578284e-01  9.9951975518863068e-01  9.9956388772756499e-01  9.9961258441404899e-01  9.9965986462151579e-01  9.9969660716998743e-01  9.9926221862863851e-01  9.9972545685555658e-01  9.9983731789750041e-01  9.9979810291156834e-01  9.9974699343137152e-01  9.9969341374040921e-01  9.9964387048188297e-01  9.9960218405004819e-01  9.9956947260325058e-01  9.9954509712638528e-01  9.9952755265985882e-01  9.9951519381182696e-01  9.9950659573478773e-01  9.9950065357796347e-01  9.9949656101446482e-01  9.9949376030464165e-01  9.9949187885408841e-01  9.9949066241346973e-01  9.9948992390062552e-01  9.9948951733509339e-01  9.9948933199436096e-01  9.9948929692916710e-01  9.9948938701630996e-01  9.9948962567591704e-01  9.9949008252103655e-01  9.9949086692453093e-01  9.9949212261770504e-01  9.9949403410470783e-01  9.9949685792755127e-01  9.9950098265365017e-01  9.9950700156573691e-01  9.9951577226730115e-01  9.9952845233766252e-01  9.9954650199065664e-01  9.9957157802228891e-01  9.9960516320604120e-01  9.9964780339632486e-01  9.9969813828411425e-01  9.9975209762472228e-01  9.9980263412075909e-01  9.9984021513981347e-01  9.9968671695188649e-01  9.9975834260835106e-01  9.9986591554898196e-01  9.9983061797189654e-01  9.9978211985352827e-01  9.9972882082219872e-01  9.9967805246526176e-01  9.9963440140203474e-01  9.9959957550504275e-01  9.9957327900578186e-01  9.9955414745159721e-01  9.9954053167620549e-01  9.9953093716184860e-01  9.9952418566832824e-01  9.9951942016945505e-01  9.9951604923757886e-01  9.9951367645780909e-01  9.9951203533316868e-01  9.9951094017570863e-01  9.9951025684036598e-01  9.9950989031296800e-01  9.9950978242453192e-01  9.9950991326748062e-01  9.9951030217011938e-01  9.9951100667125981e-01  9.9951212075727003e-01  9.9951377680095543e-01  9.9951615848812148e-01  9.9951953200363464e-01  9.9952429760417172e-01  9.9953105488025884e-01  9.9954066915324857e-01  9.9955431936195338e-01  9.9957348796885925e-01  9.9959980377885405e-01  9.9963461558673650e-01  9.9967822267004802e-01  9.9972893625265891e-01  9.9978218960707532e-01  9.9983065933917248e-01  9.9986593888329445e-01  9.9975836046317434e-01  9.9968659786746861e-01  9.9983995679360937e-01  9.9980182591974309e-01  9.9975040318277453e-01  9.9969521994374710e-01  9.9964334234081975e-01  9.9959891955810742e-01  9.9956346938819018e-01  9.9953660552950363e-01  9.9951691788639330e-01  9.9950273177245363e-01  9.9949254407620658e-01  9.9948518578998058e-01  9.9947982039783090e-01  9.9947587845924368e-01  9.9947298188657596e-01  9.9947087932528467e-01  9.9946939939425183e-01  9.9946842230127630e-01  9.9946786617168493e-01  9.9946768245418138e-01  9.9946785527942139e-01  9.9946840151177219e-01  9.9946937034956340e-01  9.9947084344868919e-01  9.9947293891745803e-01  9.9947582455563744e-01  9.9947974576692633e-01  9.9948507091927330e-01  9.9949235244328660e-01  9.9950239757801329e-01  9.9951632795728496e-01  9.9953558679397825e-01  9.9956179099477938e-01  9.9959633719926222e-01  9.9963971285768216e-01  9.9969068444737130e-01  9.9974540003109380e-01  9.9979735440614959e-01  9.9983710495143252e-01  9.9972540322726344e-01  9.9926142252206296e-01  9.9969534825368989e-01  9.9965639239123749e-01  9.9960623856866726e-01  9.9955404122587177e-01  9.9950572585407971e-01  9.9946453052295159e-01  9.9943164227158476e-01  9.9940655452450189e-01  9.9938784310945550e-01  9.9937391728171610e-01  9.9936343337905575e-01  9.9935540633186226e-01  9.9934916682643316e-01  9.9934427771228207e-01  9.9934045703785557e-01  9.9933752022568278e-01  9.9933534174783656e-01  9.9933383364481787e-01  9.9933293618584429e-01  9.9933261491854741e-01  9.9933285984740605e-01  9.9933368505687681e-01  9.9933512841840277e-01  9.9933725149794650e-01  9.9934014133446170e-01  9.9934391813005052e-01  9.9934875371709608e-01  9.9935490438030727e-01  9.9936276029149473e-01  9.9937291354029056e-01  9.9938623356475476e-01  9.9940392227792474e-01  9.9942740657304852e-01  9.9945802429190977e-01  9.9949627052395873e-01  9.9954122555888214e-01  9.9959025757711439e-01  9.9963943302524727e-01  9.9967826643899282e-01  9.9949520079370269e-01  9.8085244795050386e-01  9.9844233519849246e-01  9.9885084405301461e-01  9.9899438158813592e-01  9.9904990108629177e-01  9.9906148111788717e-01  9.9905638226969196e-01  9.9904649598963913e-01  9.9903595656507571e-01  9.9902571636120285e-01  9.9901586730984526e-01  9.9900644212904943e-01  9.9899755465074069e-01  9.9898935939865008e-01  9.9898200572183016e-01  9.9897561580964112e-01  9.9897027860467036e-01  9.9896605153969620e-01  9.9896296813850149e-01  9.9896104845178002e-01  9.9896030612699305e-01  9.9896074998851703e-01  9.9896238383748936e-01  9.9896520645507136e-01  9.9896920819292534e-01  9.9897436076729573e-01  9.9898060292898772e-01  9.9898782632542427e-01  9.9899586141950636e-01  9.9900446361316209e-01  9.9901331062963006e-01  9.9902202686580077e-01  9.9903023611758579e-01  9.9903737856617647e-01  9.9904217043075416e-01  9.9903973284590819e-01  9.9901817520941372e-01  9.9897478695515707e-01  9.9891600558634785e-01  9.9841943746264594e-01  9.9691253452360507e-01  5.5470138302294997e-03  1.9122118826625890e-02  7.4727295459414345e-01  9.8966795569196564e-01  9.9540965085424571e-01  9.9667068396469061e-01  9.9713619312607060e-01  9.9736238242442687e-01  9.9748236598076423e-01  9.9754437820855668e-01  9.9757131428456924e-01  9.9757662706033323e-01  9.9756916759677539e-01  9.9755482161410047e-01  9.9753736765810430e-01  9.9751928317397620e-01  9.9750238884995113e-01  9.9748798222425095e-01  9.9747682851517316e-01  9.9746938106859229e-01  9.9746595225313683e-01  9.9746670741273136e-01  9.9747164476464723e-01  9.9748060883978718e-01  9.9749325494528795e-01  9.9750897757583268e-01  9.9752686454825423e-01  9.9754553117355205e-01  9.9756279461738673e-01  9.9757532529617909e-01  9.9757824204857626e-01  9.9756451539264279e-01  9.9752352046063630e-01  9.9743543139831514e-01  9.9726079636055387e-01  9.9687341545662644e-01  9.9589466827116202e-01  9.9045586620785486e-01  7.7402989554505508e-01  6.9305105337467907e-02  6.8785863991653396e-03  5.1269661831529383e-03  2.7132272233891426e-03  4.5656509025871900e-03  5.2178728045784453e-02  2.9189120216832121e-01  4.8157692629584381e-01  6.3251475947994451e-01  7.4256266101549950e-01  8.1602568746473803e-01  8.5966337563853534e-01  8.8307132886196393e-01  8.9430423675877813e-01  8.9883503340690563e-01  9.0019845299357748e-01  9.0026491986815560e-01  8.9948980557180025e-01  8.9811791780094996e-01  8.9691622080637656e-01  8.9651829939774619e-01  8.9680852787516485e-01  8.9708046816876175e-01  8.9688121200410209e-01  8.9653243806114025e-01  8.9661016269473259e-01  8.9721726687354675e-01  8.9798610856683403e-01  8.9854024399647170e-01  8.9856127734194791e-01  8.9722612304167615e-01  8.9270122972604793e-01  8.8176585042839772e-01  8.5921543749581086e-01  8.1744112080492637e-01  7.4659946208836958e-01  6.3816838661945496e-01  4.8260193122064410e-01  2.9729264780620412e-01  6.7982023180724202e-02  4.0833996281721624e-03  2.7204843595336706e-03  5.5465487104180726e-03  4.9905544626778105e-03  2.5280783833199123e-03  2.6016191107182470e-03  2.8613932845281951e-03  3.4401473669133037e-03  4.1349180944553338e-03  5.5388004120778579e-03  7.8553309369952945e-03  1.1251845815517247e-02  1.5402600770945848e-02  1.9388873257958048e-02  2.2310806870549506e-02  2.3882074876571235e-02  2.4344461836055351e-02  2.4093929450936382e-02  2.3462879432424633e-02  2.2692382753959975e-02  2.1967836616751685e-02  2.1408874902936283e-02  2.1060774230338683e-02  2.0923493371378308e-02  2.0985429913693308e-02  2.1242254596638449e-02  2.1688471291762251e-02  2.2287016326702193e-02  2.2939483556811437e-02  2.3471652549730861e-02  2.3635824568463717e-02  2.3114884373912181e-02  2.1563173594596696e-02  1.8780485089114566e-02  1.5017562063240892e-02  1.1079339990789170e-02  7.8159479753168812e-03  5.5384921644356187e-03  4.1285735464392532e-03  3.3178603303191168e-03  2.9637997140913447e-03  2.7201269086881245e-03  2.5432322145920029e-03  4.9881420482286495e-03  5.0032588938255145e-03  2.5231062074718069e-03  2.5532004505349460e-03  2.5824500575671338e-03  2.6057220822435726e-03  2.6419023577225497e-03  2.6942631108453192e-03  2.7436457072568558e-03  2.7833371749604232e-03  2.8104588646526590e-03  2.8263017037635173e-03  2.8338857049396231e-03  2.8360264199346523e-03  2.8348169178340639e-03  2.8316979623303892e-03  2.8276821896163632e-03  2.8235232426367467e-03  2.8197838466454267e-03  2.8168215840240459e-03  2.8148040212658196e-03  2.8138122054798755e-03  2.8139039952950061e-03  2.8150981410631688e-03  2.8173449586850609e-03  2.8205045927801125e-03  2.8243276414279847e-03  2.8284186731074965e-03  2.8321917804575631e-03  2.8348369266283100e-03  2.8352902307057577e-03  2.8321745026470440e-03  2.8236187088375893e-03  2.8070581803897308e-03  2.7796217327557579e-03  2.7399407243989867e-03  2.6902649773665474e-03  2.6388163085177925e-03  2.5924834200914074e-03  2.5583820149084370e-03  2.5279063483650151e-03  4.9963874307681908e-03  5.0103435436349274e-03  2.5305566359431265e-03  2.5461244454156344e-03  2.5601754548824456e-03  2.5722828512417246e-03  2.5820426652661457e-03  2.5878064507286209e-03  2.5890075566406641e-03  2.5879555540946138e-03  2.5855566622874468e-03  2.5827201061792522e-03  2.5799330596120770e-03  2.5773966258006210e-03  2.5751690343009809e-03  2.5732537155560269e-03  2.5716429005001361e-03  2.5703318155224464e-03  2.5693181865285570e-03  2.5685964926897109e-03  2.5681574457718688e-03  2.5679945245774189e-03  2.5681069460869437e-03  2.5684979443625893e-03  2.5691737815295313e-03  2.5701439041303244e-03  2.5714209671124505e-03  2.5730199041295631e-03  2.5749567289533410e-03  2.5772458777201471e-03  2.5798897537966667e-03  2.5828485843018435e-03  2.5859698990771353e-03  2.5888610825456093e-03  2.5907301765927663e-03  2.5902864560927558e-03  2.5860199945802191e-03  2.5769503049672534e-03  2.5640927554164464e-03  2.5497499394733303e-03  2.5328171879484803e-03  5.0080375285455354e-03  5.0119643741072424e-03  2.5321365636461479e-03  2.5419811532541429e-03  2.5492037913094597e-03  2.5561443045303950e-03  2.5617182637503199e-03  2.5654066712816094e-03  2.5671064265242729e-03  2.5671812556252436e-03  2.5661745484684482e-03  2.5646705907421720e-03  2.5630257775383415e-03  2.5614424582393234e-03  2.5600151555680690e-03  2.5587791307333917e-03  2.5577425994810776e-03  2.5569037839748821e-03  2.5562579595376322e-03  2.5557995364753625e-03  2.5555231941933100e-03  2.5554254314418792e-03  2.5555053495721989e-03  2.5557643972466183e-03  2.5562060192552503e-03  2.5568355525332018e-03  2.5576599095256162e-03  2.5586863750193655e-03  2.5599199049767245e-03  2.5613573110488271e-03  2.5629744438874897e-03  2.5647008276730161e-03  2.5663775505816635e-03  2.5677035140807937e-03  2.5681960540804762e-03  2.5672272112588451e-03  2.5642068970454473e-03  2.5589504382463844e-03  2.5520000043686027e-03  2.5444494834869140e-03  2.5336270487387289e-03  5.0124333270179329e-03  5.0104952795794683e-03  2.5303979483918835e-03  2.5377099028136211e-03  2.5415583898477888e-03  2.5454372232518378e-03  2.5488675275896111e-03  2.5514517250977854e-03  2.5530196484502502e-03  2.553655192