<?xml version="1.0"?>
<VTKFile type="UnstructuredGrid"  version="0.1"  >
<UnstructuredGrid>
<Piece  NumberOfPoints="1681" NumberOfCells="3200">
<Points>
<DataArray  type="Float64"  NumberOfComponents="3"  format="ascii">0 0 0  0.025 0 0  0.05 0 0  0.075 0 0  0.1 0 0  0.125 0 0  0.15 0 0  0.175 0 0  0.2 0 0  0.225 0 0  0.25 0 0  0.275 0 0  0.3 0 0  0.325 0 0  0.35 0 0  0.375 0 0  0.4 0 0  0.425 0 0  0.45 0 0  0.475 0 0  0.5 0 0  0.525 0 0  0.55 0 0  0.575 0 0  0.6 0 0  0.625 0 0  0.65 0 0  0.675 0 0  0.7 0 0  0.725 0 0  0.75 0 0  0.775 0 0  0.8 0 0  0.825 0 0  0.85 0 0  0.875 0 0  0.9 0 0  0.925 0 0  0.95 0 0  0.975 0 0  1 0 0  0 0.025 0  0.025 0.025 0  0.05 0.025 0  0.075 0.025 0  0.1 0.025 0  0.125 0.025 0  0.15 0.025 0  0.175 0.025 0  0.2 0.025 0  0.225 0.025 0  0.25 0.025 0  0.275 0.025 0  0.3 0.025 0  0.325 0.025 0  0.35 0.025 0  0.375 0.025 0  0.4 0.025 0  0.425 0.025 0  0.45 0.025 0  0.475 0.025 0  0.5 0.025 0  0.525 0.025 0  0.55 0.025 0  0.575 0.025 0  0.6 0.025 0  0.625 0.025 0  0.65 0.025 0  0.675 0.025 0  0.7 0.025 0  0.725 0.025 0  0.75 0.025 0  0.775 0.025 0  0.8 0.025 0  0.825 0.025 0  0.85 0.025 0  0.875 0.025 0  0.9 0.025 0  0.925 0.025 0  0.95 0.025 0  0.975 0.025 0  1 0.025 0  0 0.05 0  0.025 0.05 0  0.05 0.05 0  0.075 0.05 0  0.1 0.05 0  0.125 0.05 0  0.15 0.05 0  0.175 0.05 0  0.2 0.05 0  0.225 0.05 0  0.25 0.05 0  0.275 0.05 0  0.3 0.05 0  0.325 0.05 0  0.35 0.05 0  0.375 0.05 0  0.4 0.05 0  0.425 0.05 0  0.45 0.05 0  0.475 0.05 0  0.5 0.05 0  0.525 0.05 0  0.55 0.05 0  0.575 0.05 0  0.6 0.05 0  0.625 0.05 0  0.65 0.05 0  0.675 0.05 0  0.7 0.05 0  0.725 0.05 0  0.75 0.05 0  0.775 0.05 0  0.8 0.05 0  0.825 0.05 0  0.85 0.05 0  0.875 0.05 0  0.9 0.05 0  0.925 0.05 0  0.95 0.05 0  0.975 0.05 0  1 0.05 0  0 0.075 0  0.025 0.075 0  0.05 0.075 0  0.075 0.075 0  0.1 0.075 0  0.125 0.075 0  0.15 0.075 0  0.175 0.075 0  0.2 0.075 0  0.225 0.075 0  0.25 0.075 0  0.275 0.075 0  0.3 0.075 0  0.325 0.075 0  0.35 0.075 0  0.375 0.075 0  0.4 0.075 0  0.425 0.075 0  0.45 0.075 0  0.475 0.075 0  0.5 0.075 0  0.525 0.075 0  0.55 0.075 0  0.575 0.075 0  0.6 0.075 0  0.625 0.075 0  0.65 0.075 0  0.675 0.075 0  0.7 0.075 0  0.725 0.075 0  0.75 0.075 0  0.775 0.075 0  0.8 0.075 0  0.825 0.075 0  0.85 0.075 0  0.875 0.075 0  0.9 0.075 0  0.925 0.075 0  0.95 0.075 0  0.975 0.075 0  1 0.075 0  0 0.1 0  0.025 0.1 0  0.05 0.1 0  0.075 0.1 0  0.1 0.1 0  0.125 0.1 0  0.15 0.1 0  0.175 0.1 0  0.2 0.1 0  0.225 0.1 0  0.25 0.1 0  0.275 0.1 0  0.3 0.1 0  0.325 0.1 0  0.35 0.1 0  0.375 0.1 0  0.4 0.1 0  0.425 0.1 0  0.45 0.1 0  0.475 0.1 0  0.5 0.1 0  0.525 0.1 0  0.55 0.1 0  0.575 0.1 0  0.6 0.1 0  0.625 0.1 0  0.65 0.1 0  0.675 0.1 0  0.7 0.1 0  0.725 0.1 0  0.75 0.1 0  0.775 0.1 0  0.8 0.1 0  0.825 0.1 0  0.85 0.1 0  0.875 0.1 0  0.9 0.1 0  0.925 0.1 0  0.95 0.1 0  0.975 0.1 0  1 0.1 0  0 0.125 0  0.025 0.125 0  0.05 0.125 0  0.075 0.125 0  0.1 0.125 0  0.125 0.125 0  0.15 0.125 0  0.175 0.125 0  0.2 0.125 0  0.225 0.125 0  0.25 0.125 0  0.275 0.125 0  0.3 0.125 0  0.325 0.125 0  0.35 0.125 0  0.375 0.125 0  0.4 0.125 0  0.425 0.125 0  0.45 0.125 0  0.475 0.125 0  0.5 0.125 0  0.525 0.125 0  0.55 0.125 0  0.575 0.125 0  0.6 0.125 0  0.625 0.125 0  0.65 0.125 0  0.675 0.125 0  0.7 0.125 0  0.725 0.125 0  0.75 0.125 0  0.775 0.125 0  0.8 0.125 0  0.825 0.125 0  0.85 0.125 0  0.875 0.125 0  0.9 0.125 0  0.925 0.125 0  0.95 0.125 0  0.975 0.125 0  1 0.125 0  0 0.15 0  0.025 0.15 0  0.05 0.15 0  0.075 0.15 0  0.1 0.15 0  0.125 0.15 0  0.15 0.15 0  0.175 0.15 0  0.2 0.15 0  0.225 0.15 0  0.25 0.15 0  0.275 0.15 0  0.3 0.15 0  0.325 0.15 0  0.35 0.15 0  0.375 0.15 0  0.4 0.15 0  0.425 0.15 0  0.45 0.15 0  0.475 0.15 0  0.5 0.15 0  0.525 0.15 0  0.55 0.15 0  0.575 0.15 0  0.6 0.15 0  0.625 0.15 0  0.65 0.15 0  0.675 0.15 0  0.7 0.15 0  0.725 0.15 0  0.75 0.15 0  0.775 0.15 0  0.8 0.15 0  0.825 0.15 0  0.85 0.15 0  0.875 0.15 0  0.9 0.15 0  0.925 0.15 0  0.95 0.15 0  0.975 0.15 0  1 0.15 0  0 0.175 0  0.025 0.175 0  0.05 0.175 0  0.075 0.175 0  0.1 0.175 0  0.125 0.175 0  0.15 0.175 0  0.175 0.175 0  0.2 0.175 0  0.225 0.175 0  0.25 0.175 0  0.275 0.175 0  0.3 0.175 0  0.325 0.175 0  0.35 0.175 0  0.375 0.175 0  0.4 0.175 0  0.425 0.175 0  0.45 0.175 0  0.475 0.175 0  0.5 0.175 0  0.525 0.175 0  0.55 0.175 0  0.575 0.175 0  0.6 0.175 0  0.625 0.175 0  0.65 0.175 0  0.675 0.175 0  0.7 0.175 0  0.725 0.175 0  0.75 0.175 0  0.775 0.175 0  0.8 0.175 0  0.825 0.175 0  0.85 0.175 0  0.875 0.175 0  0.9 0.175 0  0.925 0.175 0  0.95 0.175 0  0.975 0.175 0  1 0.175 0  0 0.2 0  0.025 0.2 0  0.05 0.2 0  0.075 0.2 0  0.1 0.2 0  0.125 0.2 0  0.15 0.2 0  0.175 0.2 0  0.2 0.2 0  0.225 0.2 0  0.25 0.2 0  0.275 0.2 0  0.3 0.2 0  0.325 0.2 0  0.35 0.2 0  0.375 0.2 0  0.4 0.2 0  0.425 0.2 0  0.45 0.2 0  0.475 0.2 0  0.5 0.2 0  0.525 0.2 0  0.55 0.2 0  0.575 0.2 0  0.6 0.2 0  0.625 0.2 0  0.65 0.2 0  0.675 0.2 0  0.7 0.2 0  0.725 0.2 0  0.75 0.2 0  0.775 0.2 0  0.8 0.2 0  0.825 0.2 0  0.85 0.2 0  0.875 0.2 0  0.9 0.2 0  0.925 0.2 0  0.95 0.2 0  0.975 0.2 0  1 0.2 0  0 0.225 0  0.025 0.225 0  0.05 0.225 0  0.075 0.225 0  0.1 0.225 0  0.125 0.225 0  0.15 0.225 0  0.175 0.225 0  0.2 0.225 0  0.225 0.225 0  0.25 0.225 0  0.275 0.225 0  0.3 0.225 0  0.325 0.225 0  0.35 0.225 0  0.375 0.225 0  0.4 0.225 0  0.425 0.225 0  0.45 0.225 0  0.475 0.225 0  0.5 0.225 0  0.525 0.225 0  0.55 0.225 0  0.575 0.225 0  0.6 0.225 0  0.625 0.225 0  0.65 0.225 0  0.675 0.225 0  0.7 0.225 0  0.725 0.225 0  0.75 0.225 0  0.775 0.225 0  0.8 0.225 0  0.825 0.225 0  0.85 0.225 0  0.875 0.225 0  0.9 0.225 0  0.925 0.225 0  0.95 0.225 0  0.975 0.225 0  1 0.225 0  0 0.25 0  0.025 0.25 0  0.05 0.25 0  0.075 0.25 0  0.1 0.25 0  0.125 0.25 0  0.15 0.25 0  0.175 0.25 0  0.2 0.25 0  0.225 0.25 0  0.25 0.25 0  0.275 0.25 0  0.3 0.25 0  0.325 0.25 0  0.35 0.25 0  0.375 0.25 0  0.4 0.25 0  0.425 0.25 0  0.45 0.25 0  0.475 0.25 0  0.5 0.25 0  0.525 0.25 0  0.55 0.25 0  0.575 0.25 0  0.6 0.25 0  0.625 0.25 0  0.65 0.25 0  0.675 0.25 0  0.7 0.25 0  0.725 0.25 0  0.75 0.25 0  0.775 0.25 0  0.8 0.25 0  0.825 0.25 0  0.85 0.25 0  0.875 0.25 0  0.9 0.25 0  0.925 0.25 0  0.95 0.25 0  0.975 0.25 0  1 0.25 0  0 0.275 0  0.025 0.275 0  0.05 0.275 0  0.075 0.275 0  0.1 0.275 0  0.125 0.275 0  0.15 0.275 0  0.175 0.275 0  0.2 0.275 0  0.225 0.275 0  0.25 0.275 0  0.275 0.275 0  0.3 0.275 0  0.325 0.275 0  0.35 0.275 0  0.375 0.275 0  0.4 0.275 0  0.425 0.275 0  0.45 0.275 0  0.475 0.275 0  0.5 0.275 0  0.525 0.275 0  0.55 0.275 0  0.575 0.275 0  0.6 0.275 0  0.625 0.275 0  0.65 0.275 0  0.675 0.275 0  0.7 0.275 0  0.725 0.275 0  0.75 0.275 0  0.775 0.275 0  0.8 0.275 0  0.825 0.275 0  0.85 0.275 0  0.875 0.275 0  0.9 0.275 0  0.925 0.275 0  0.95 0.275 0  0.975 0.275 0  1 0.275 0  0 0.3 0  0.025 0.3 0  0.05 0.3 0  0.075 0.3 0  0.1 0.3 0  0.125 0.3 0  0.15 0.3 0  0.175 0.3 0  0.2 0.3 0  0.225 0.3 0  0.25 0.3 0  0.275 0.3 0  0.3 0.3 0  0.325 0.3 0  0.35 0.3 0  0.375 0.3 0  0.4 0.3 0  0.425 0.3 0  0.45 0.3 0  0.475 0.3 0  0.5 0.3 0  0.525 0.3 0  0.55 0.3 0  0.575 0.3 0  0.6 0.3 0  0.625 0.3 0  0.65 0.3 0  0.675 0.3 0  0.7 0.3 0  0.725 0.3 0  0.75 0.3 0  0.775 0.3 0  0.8 0.3 0  0.825 0.3 0  0.85 0.3 0  0.875 0.3 0  0.9 0.3 0  0.925 0.3 0  0.95 0.3 0  0.975 0.3 0  1 0.3 0  0 0.325 0  0.025 0.325 0  0.05 0.325 0  0.075 0.325 0  0.1 0.325 0  0.125 0.325 0  0.15 0.325 0  0.175 0.325 0  0.2 0.325 0  0.225 0.325 0  0.25 0.325 0  0.275 0.325 0  0.3 0.325 0  0.325 0.325 0  0.35 0.325 0  0.375 0.325 0  0.4 0.325 0  0.425 0.325 0  0.45 0.325 0  0.475 0.325 0  0.5 0.325 0  0.525 0.325 0  0.55 0.325 0  0.575 0.325 0  0.6 0.325 0  0.625 0.325 0  0.65 0.325 0  0.675 0.325 0  0.7 0.325 0  0.725 0.325 0  0.75 0.325 0  0.775 0.325 0  0.8 0.325 0  0.825 0.325 0  0.85 0.325 0  0.875 0.325 0  0.9 0.325 0  0.925 0.325 0  0.95 0.325 0  0.975 0.325 0  1 0.325 0  0 0.35 0  0.025 0.35 0  0.05 0.35 0  0.075 0.35 0  0.1 0.35 0  0.125 0.35 0  0.15 0.35 0  0.175 0.35 0  0.2 0.35 0  0.225 0.35 0  0.25 0.35 0  0.275 0.35 0  0.3 0.35 0  0.325 0.35 0  0.35 0.35 0  0.375 0.35 0  0.4 0.35 0  0.425 0.35 0  0.45 0.35 0  0.475 0.35 0  0.5 0.35 0  0.525 0.35 0  0.55 0.35 0  0.575 0.35 0  0.6 0.35 0  0.625 0.35 0  0.65 0.35 0  0.675 0.35 0  0.7 0.35 0  0.725 0.35 0  0.75 0.35 0  0.775 0.35 0  0.8 0.35 0  0.825 0.35 0  0.85 0.35 0  0.875 0.35 0  0.9 0.35 0  0.925 0.35 0  0.95 0.35 0  0.975 0.35 0  1 0.35 0  0 0.375 0  0.025 0.375 0  0.05 0.375 0  0.075 0.375 0  0.1 0.375 0  0.125 0.375 0  0.15 0.375 0  0.175 0.375 0  0.2 0.375 0  0.225 0.375 0  0.25 0.375 0  0.275 0.375 0  0.3 0.375 0  0.325 0.375 0  0.35 0.375 0  0.375 0.375 0  0.4 0.375 0  0.425 0.375 0  0.45 0.375 0  0.475 0.375 0  0.5 0.375 0  0.525 0.375 0  0.55 0.375 0  0.575 0.375 0  0.6 0.375 0  0.625 0.375 0  0.65 0.375 0  0.675 0.375 0  0.7 0.375 0  0.725 0.375 0  0.75 0.375 0  0.775 0.375 0  0.8 0.375 0  0.825 0.375 0  0.85 0.375 0  0.875 0.375 0  0.9 0.375 0  0.925 0.375 0  0.95 0.375 0  0.975 0.375 0  1 0.375 0  0 0.4 0  0.025 0.4 0  0.05 0.4 0  0.075 0.4 0  0.1 0.4 0  0.125 0.4 0  0.15 0.4 0  0.175 0.4 0  0.2 0.4 0  0.225 0.4 0  0.25 0.4 0  0.275 0.4 0  0.3 0.4 0  0.325 0.4 0  0.35 0.4 0  0.375 0.4 0  0.4 0.4 0  0.425 0.4 0  0.45 0.4 0  0.475 0.4 0  0.5 0.4 0  0.525 0.4 0  0.55 0.4 0  0.575 0.4 0  0.6 0.4 0  0.625 0.4 0  0.65 0.4 0  0.675 0.4 0  0.7 0.4 0  0.725 0.4 0  0.75 0.4 0  0.775 0.4 0  0.8 0.4 0  0.825 0.4 0  0.85 0.4 0  0.875 0.4 0  0.9 0.4 0  0.925 0.4 0  0.95 0.4 0  0.975 0.4 0  1 0.4 0  0 0.425 0  0.025 0.425 0  0.05 0.425 0  0.075 0.425 0  0.1 0.425 0  0.125 0.425 0  0.15 0.425 0  0.175 0.425 0  0.2 0.425 0  0.225 0.425 0  0.25 0.425 0  0.275 0.425 0  0.3 0.425 0  0.325 0.425 0  0.35 0.425 0  0.375 0.425 0  0.4 0.425 0  0.425 0.425 0  0.45 0.425 0  0.475 0.425 0  0.5 0.425 0  0.525 0.425 0  0.55 0.425 0  0.575 0.425 0  0.6 0.425 0  0.625 0.425 0  0.65 0.425 0  0.675 0.425 0  0.7 0.425 0  0.725 0.425 0  0.75 0.425 0  0.775 0.425 0  0.8 0.425 0  0.825 0.425 0  0.85 0.425 0  0.875 0.425 0  0.9 0.425 0  0.925 0.425 0  0.95 0.425 0  0.975 0.425 0  1 0.425 0  0 0.45 0  0.02
[...]
<PointData  Scalars="ControlVisualisation"> 
<DataArray  type="Float64"  Name="ControlVisualisation"  format="ascii">2.2834077811335254e-03  1.5111417371643527e-03  1.5111112309975040e-03  1.5111630664672217e-03  1.5115984864087339e-03  1.5126830716505786e-03  1.5144250940193971e-03  1.5166535443426428e-03  1.5190786304265574e-03  1.5212814417566471e-03  1.5229062816313876e-03  1.5239000930047297e-03  1.5245227919255941e-03  1.5250779322110424e-03  1.5256684763851345e-03  1.5262283723884492e-03  1.5266914878103634e-03  1.5270681057097512e-03  1.5274016904680060e-03  1.5277174516301782e-03  1.5280264751511494e-03  1.5283440483169018e-03  1.5286817082919993e-03  1.5290289928008016e-03  1.5293525258139396e-03  1.5296107378427407e-03  1.5297633262148797e-03  1.5297660355412567e-03  1.5295592600046625e-03  1.5290650456766600e-03  1.5281984597047809e-03  1.5268833933893477e-03  1.5250769512967456e-03  1.5228074354495420e-03  1.5202090020907518e-03  1.5175246102783384e-03  1.5150619969319544e-03  1.5131131502723423e-03  1.5118541741838071e-03  1.5112689438241808e-03  4.9894910189641553e-03  1.5111619418677761e-03  7.5053212355662797e-04  7.5050221388233123e-04  7.5051920844753468e-04  7.5084466711352466e-04  7.5176415745914320e-04  7.5334058877435514e-04  7.5545850671031051e-04  7.5791163848381140e-04  7.6027612138372972e-04  7.6202983176339124e-04  7.6298481640645413e-04  7.6346356658913133e-04  7.6390811004562300e-04  7.6447411888264007e-04  7.6504559949771862e-04  7.6549567797097725e-04  7.6583353383307849e-04  7.6612693526209195e-04  7.6640536487961866e-04  7.6667180095565642e-04  7.6694447886764853e-04  7.6724904602365257e-04  7.6758317536778460e-04  7.6790956148085508e-04  7.6818032752016142e-04  7.6835658209319872e-04  7.6840340175270052e-04  7.6827122196546430e-04  7.6788875532194691e-04  7.6717259594241824e-04  7.6604485407748193e-04  7.6445249962277338e-04  7.6239643149787935e-04  7.5997914826091140e-04  7.5741190476574056e-04  7.5497594697424442e-04  7.5296840892531518e-04  7.5159466102898585e-04  7.5088202756673191e-04  1.5112664517248752e-03  1.5114659517442034e-03  7.5072318650588150e-04  7.5070500016542925e-04  7.5082466344385300e-04  7.5141921732905549e-04  7.5278126882593168e-04  7.5464665759544065e-04  7.5681418099484993e-04  7.5976452494652636e-04  7.6278637182534579e-04  7.6454230585518319e-04  7.6486813440739248e-04  7.6467191774986284e-04  7.6493072762172506e-04  7.6576337961759998e-04  7.6658158361280404e-04  7.6702252919265803e-04  7.6726324103029491e-04  7.6753182621717162e-04  7.6782938624656537e-04  7.6808017034045569e-04  7.6832010240167944e-04  7.6864057917426726e-04  7.6904795031564445e-04  7.6945903619540226e-04  7.6979103370306522e-04  7.7001305338345039e-04  7.7011779314913693e-04  7.7006882371448773e-04  7.6978458135762732e-04  7.6915804623341449e-04  7.6811325113287487e-04  7.6657702745414535e-04  7.6448848168176025e-04  7.6193659875936105e-04  7.5915548552087271e-04  7.5644121015541136e-04  7.5411047084494040e-04  7.5240025217607458e-04  7.5147330823611014e-04  1.5117746071084369e-03  1.5139521152413658e-03  7.5241496383157387e-04  7.5177271075554768e-04  7.5222939615316765e-04  7.5581872126100633e-04  7.6077504294750709e-04  7.6326238597736054e-04  7.6328103706847002e-04  7.6623970265820218e-04  7.6913397313101107e-04  7.6897427724612532e-04  7.6684775200486525e-04  7.6425258298562287e-04  7.6408646398005422e-04  7.6605377564791443e-04  7.6747190082707313e-04  7.6755501019836175e-04  7.6734802673892591e-04  7.6760589162342850e-04  7.6804396577451108e-04  7.6821649684489374e-04  7.6829149110121215e-04  7.6861291747518752e-04  7.6918523413285192e-04  7.6975903577516588e-04  7.7016130242609252e-04  7.7041470677912012e-04  7.7060806873770551e-04  7.7075611933262022e-04  7.7073763803007936e-04  7.7038770520999238e-04  7.6968858630572503e-04  7.6854963280067893e-04  7.6678584249881970e-04  7.6439332478830469e-04  7.6169152281924590e-04  7.5893425408224153e-04  7.5620322512086899e-04  7.5369831377097244e-04  7.5222055241993798e-04  1.5126460421537235e-03  1.5324528098208355e-03  7.6994785042021731e-04  7.9347532590577858e-04  8.3940735188221208e-04  8.7648995795398810e-04  9.7393680931949153e-04  1.0213110210035132e-03  9.8768079767171417e-04  9.6792573298406506e-04  9.2602000350699987e-04  8.5064010109270165e-04  8.0316309778552747e-04  7.7558993703959666e-04  7.6802484465396045e-04  7.7064897257457998e-04  7.7125278542030003e-04  7.6868515723380092e-04  7.6664086159135758e-04  7.6742875404745481e-04  7.6859981516031036e-04  7.6842812587413255e-04  7.6785715735486117e-04  7.6817261236008941e-04  7.6924943322550501e-04  7.7018424922277364e-04  7.7059128063376812e-04  7.7074104272658673e-04  7.7101603568368801e-04  7.7152575562863118e-04  7.7195845151062847e-04  7.7199683677232206e-04  7.7163811174177062e-04  7.7134793767820713e-04  7.7066382736930110e-04  7.6846641860894502e-04  7.6597230016481723e-04  7.6377389458440106e-04  7.6155499526617829e-04  7.5817893942025207e-04  7.5378425681168430e-04  1.5132032887535110e-03  1.8970605072399747e-03  8.2713544599450272e-04  1.1455281151139187e-03  8.6468047607918611e-03  1.4153899077182450e-01  2.1611355744046873e-01  2.3448993636627868e-01  2.0150241451871245e-01  1.3830252545627272e-01  6.0004638360871936e-02  9.4190957346393031e-03  2.7767331188174472e-03  1.4473614678814769e-03  1.0996585873846061e-03  9.6501571069427606e-04  8.4852491933457225e-04  7.9210832843671633e-04  7.7201076786424013e-04  7.7164780935581791e-04  7.7274454733631008e-04  7.6992976644056979e-04  7.6631837300351413e-04  7.6688402355792754e-04  7.6973975814220502e-04  7.7136132025995086e-04  7.7131246018471425e-04  7.7088798748723222e-04  7.7116562647189420e-04  7.7226961721561576e-04  7.7369982345922884e-04  7.7454194673122131e-04  7.7396359939915739e-04  7.7690315624227542e-04  7.8073145476907678e-04  7.8132897084223340e-04  7.8888591391986992e-04  8.0597364660127012e-04  8.1441694058524477e-04  7.8514420744140931e-04  7.6470345090641533e-04  1.5212529223415996e-03  2.4209198231943188e-03  6.4702173973732985e-02  7.5989770701618875e-01  9.9666133070457918e-01  9.9877814482192062e-01  9.9885687562953207e-01  9.9887807577297927e-01  9.9865763418139664e-01  9.9758097964623138e-01  9.8344532468528389e-01  8.4378521505950310e-01  6.3776764385975537e-01  4.2722642102020991e-01  2.3270241898767480e-01  8.9245007369259791e-02  7.1486082785340490e-03  1.9940137709972376e-03  1.2061191056082854e-03  1.0020209276731776e-03  8.7982106679095886e-04  8.0474075896763350e-04  7.7283502614177270e-04  7.7024609191697147e-04  7.7527012066773210e-04  7.7574898261477962e-04  7.7294110669655358e-04  7.7063159498771136e-04  7.7077761763489532e-04  7.7334257828004299e-04  7.7836427200610788e-04  7.8107848225989060e-04  7.7904687862891250e-04  8.0821882290280219e-04  8.8159215899400248e-04  9.6442111730049703e-04  1.1479883687427594e-03  1.6154124160196563e-03  2.2047595606082982e-03  1.6174560467718284e-03  9.7520584766409889e-04  1.6027011666661321e-03  9.9939783135191340e-01  9.9968341281575590e-01  9.9975522318298660e-01  9.9974724240567370e-01  9.9974233800683276e-01  9.9972837567204564e-01  9.9970310794104089e-01  9.9966659722221851e-01  9.9961482692105241e-01  9.9953430657526010e-01  9.9941963065177675e-01  9.9928164267541419e-01  9.9906217740931147e-01  9.9819930451375405e-01  9.7646652898460107e-01  7.6847891005694513e-01  5.1953182713154933e-01  2.8257594085195648e-01  1.2181934392055692e-01  1.1568720598572387e-02  2.5269869560818102e-03  1.2975054409649234e-03  1.0609630924052196e-03  9.5317161178199925e-04  8.5464288662270111e-04  8.1215472392035795e-04  7.9442486695298440e-04  7.9120249066603077e-04  7.9988085726109088e-04  8.3348377778995775e-04  8.9241332851615254e-04  9.4637923940360568e-04  1.2447346940974270e-03  3.1761725511333530e-03  6.5953736973729693e-02  2.6871615373173235e-01  4.7951556739729545e-01  6.5181181604708804e-01  7.2599080311303588e-01  7.3834107614970312e-01  2.8943235882477841e-01  9.9989200883327334e-01  9.9993039881571444e-01  9.9991932446974241e-01  9.9990452213055392e-01  9.9988817985661038e-01  9.9987093014089989e-01  9.9985313593167646e-01  9.9983457949128718e-01  9.9981451482655548e-01  9.9979137135475993e-01  9.9976251767969060e-01  9.9972459588382234e-01  9.9967384583645325e-01  9.9960386790739009e-01  9.9949288212349108e-01  9.9933990050314125e-01  9.9917190403809364e-01  9.9881588872733418e-01  9.9077199251923587e-01  8.1358883153626504e-01  5.7222963420422035e-01  3.5601262425434249e-01  1.7081380696258294e-01  4.9546007160876003e-02  6.7735794150782513e-03  2.5937265238773783e-03  1.7529606893247522e-03  1.5291002371267048e-03  1.5954310204006157e-03  2.0897101728919237e-03  5.0749840974941875e-03  6.8163965611523714e-02  2.6969936007812351e-01  5.5488021985873381e-01  9.0676424962492086e-01  9.9711832624199881e-01  9.9884472693580550e-01  9.9927318271976884e-01  9.9948423337591974e-01  9.9961701572670203e-01  9.9917852243514149e-01  9.9994092386959688e-01  9.9996476719316785e-01  9.9995533885110643e-01  9.9994247377747336e-01  9.9992808705373504e-01  9.9991350025180770e-01  9.9989949676127987e-01  9.9988625619956106e-01  9.9987349215177213e-01  9.9986056437023241e-01  9.9984662739207131e-01  9.9983086083330541e-01  9.9981263376029550e-01  9.9979128959385621e-01  9.9976541708969180e-01  9.9973205794219111e-01  9.9968683498324740e-01  9.9962366104297573e-01  9.9952389926577967e-01  9.9938768265054712e-01  9.9924697372689275e-01  9.9896367019914878e-01  9.9735507121840850e-01  9.2181786697120749e-01  7.3965786430565628e-01  5.7059108210075560e-01  4.5610766577350703e-01  4.0121554334276854e-01  3.8959106212522104e-01  4.5371452887346447e-01  6.0897550919791610e-01  8.5624960492022806e-01  9.9453677298306675e-01  9.9852252548418630e-01  9.9913275946130087e-01  9.9941087961384734e-01  9.9959687895509219e-01  9.9970903326019966e-01  9.9978560812053996e-01  9.9983583408435406e-01  9.9968083469337010e-01  9.9994802226884194e-01  9.9997115943002013e-01  9.9996334297225686e-01  9.9995234919313403e-01  9.9993986004477198e-01  9.9992735325607507e-01  9.9991575497204865e-01  9.9990538676130314e-01  9.9989612734534528e-01  9.9988758984128223e-01  9.9987929510763840e-01  9.9987081011483914e-01  9.9986179697186839e-01  9.9985192469486261e-01  9.9984070399750691e-01  9.9982741996816704e-01  9.9981126835568779e-01  9.9979146367135852e-01  9.9976686851568131e-01  9.9973514681815612e-01  9.9969267743896384e-01  9.9963598813888099e-01  9.9955647035071638e-01  9.9944479086749072e-01  9.9932600910764391e-01  9.9920627752050439e-01  9.9899213291463362e-01  9.9860718948123783e-01  9.9836525937263843e-01  9.9851946065243979e-01  9.9875986544406992e-01  9.9895822181553828e-01  9.9920534322723720e-01  9.9943466774870238e-01  9.9958285388145574e-01  9.9967654048602228e-01  9.9974388912314271e-01  9.9979714532975383e-01  9.9984046089074252e-01  9.9987143860067162e-01  9.9976548623053851e-01  9.9993291488505420e-01  9.9996602211343022e-01  9.9995839678100296e-01  9.9994801950263090e-01  9.9993677931924763e-01  9.9992603033059602e-01  9.9991653534584757e-01  9.9990853107124777e-01  9.9990188234984057e-01  9.9989625395006365e-01  9.9989125736414308e-01  9.9988654389307685e-01  9.9988183206288206e-01  9.9987687350279975e-01  9.9987140095088922e-01  9.9986511453645743e-01  9.9985771235317877e-01  9.9984889252389442e-01  9.9983826454768876e-01  9.9982527291244006e-01  9.9980933863871435e-01  9.9979013181627996e-01  9.9976739092442524e-01  9.9973992199174744e-01  9.9970496481241877e-01  9.9965978530572197e-01  9.9960448691204218e-01  9.9954433494696271e-01  9.9949176905753612e-01  9.9946270357879463e-01  9.9946915112060619e-01  9.9950973855612069e-01  9.9956912353838057e-01  9.9963056726126687e-01  9.9968412915114147e-01  9.9972765469691749e-01  9.9976352853250705e-01  9.9979501191426856e-01  9.9982363575834921e-01  9.9984616125630732e-01  9.9973127187890620e-01  9.9984429133566644e-01  9.9993747015567680e-01  9.9993210873110838e-01  9.9992454379007123e-01  9.9991654297340116e-01  9.9990922509270896e-01  9.9990314292882754e-01  9.9989842497264059e-01  9.9989491997549085e-01  9.9989233104476627e-01  9.9989032224490759e-01  9.9988859479754455e-01  9.9988691327178192e-01  9.9988508749467508e-01  9.9988294483778561e-01  9.9988031915671671e-01  9.9987705229514678e-01  9.9987298576915329e-01  9.9986793811072794e-01  9.9986169887518361e-01  9.9985406029980828e-01  9.9984482771756333e-01  9.9983370196399834e-01  9.9982007283203922e-01  9.9980301493949153e-01  9.9978167686733332e-01  9.9975580846797052e-01  9.9972608629912707e-01  9.9969431250429230e-01  9.9966402348107697e-01  9.9964124518137520e-01  9.9963309082067708e-01  9.9964218380431813e-01  9.9966279353740173e-01  9.9968506900969178e-01  9.9970167107252450e-01  9.9970965883363028e-01  9.9970824166889816e-01  9.9969237583162229e-01  9.9967185918656165e-01  9.9945582862961291e-01  9.9746730702687791e-01  9.9971870274072661e-01  9.9980859600920846e-01  9.9984328578100767e-01  9.9985682674222687e-01  9.9986315680389215e-01  9.9986677151069403e-01  9.9986944006404832e-01  9.9987186864082567e-01  9.9987423119710550e-01  9.9987645802822200e-01  9.9987843511330254e-01  9.9988007726717643e-01  9.9988131778936939e-01  9.9988209039340847e-01  9.9988232749710348e-01  9.9988196044761257e-01  9.9988091318047789e-01  9.9987909437872580e-01  9.9987639405353101e-01  9.9987267945386094e-01  9.9986777005323457e-01  9.9986137794063801e-01  9.9985304498257577e-01  9.9984213972140845e-01  9.9982792658551545e-01  9.9980963379753862e-01  9.9978646519484904e-01  9.9975768668404796e-01  9.9972318061870036e-01  9.9968493152967697e-01  9.9964915461791515e-01  9.9962468947230698e-01  9.9961376116240519e-01  9.9960449584003552e-01  9.9957609786444634e-01  9.9948884155833251e-01  9.9935746247631896e-01  9.9906591887716167e-01  9.7918017639040944e-01  7.8168693620536456e-01  1.7182055467271562e-03  1.5819086292676712e-01  9.9782467908544681e-01  9.9935304554517812e-01  9.9962080559742228e-01  9.9972301144352593e-01  9.9976989317333975e-01  9.9979753749288791e-01  9.9981651259157966e-01  9.9983076288166461e-01  9.9984189763295173e-01  9.9985077678561707e-01  9.9985797393429365e-01  9.9986384081519120e-01  9.9986857510385341e-01  9.9987230106327729e-01  9.9987509758287696e-01  9.9987699842153932e-01  9.9987799856270132e-01  9.9987805878231650e-01  9.9987709359862453e-01  9.9987494383478659e-01  9.9987134234454766e-01  9.9986588178565672e-01  9.9985798635628320e-01  9.9984686760238206e-01  9.9983142096689792e-01  9.9981002374946093e-01  9.9978023438382302e-01  9.9973849419016636e-01  9.9968028359804817e-01  9.9960304677286560e-01  9.9951414992462517e-01  9.9942836637414012e-01  9.9930310596592975e-01  9.9910806547121112e-01  9.9859888510735073e-01  9.8103350443384707e-01  4.5049939431796782e-01  3.3027954452895230e-03  1.7590069009000460e-03  1.5901972670572815e-03  9.0067033613529159e-04  3.4297416136747687e-02  5.1913754546169577e-01  9.9183817894894555e-01  9.9881220569376661e-01  9.9934121780094243e-01  9.9954721756314135e-01  9.9965565573803339e-01  9.9971688700218553e-01  9.9975684685292066e-01  9.9978488275971689e-01  9.9980580907488581e-01  9.9982201967025264e-01  9.9983477585127667e-01  9.9984491488733351e-01  9.9985300448353376e-01  9.9985937889763776e-01  9.9986423484927833e-01  9.9986769044456003e-01  9.9986977282116596e-01  9.9987038949622187e-01  9.9986931570414639e-01  9.9986618224213930e-01  9.9986043311852191e-01  9.9985122111061908e-01  9.9983719480731204e-01  9.9981608331326355e-01  9.9978386347093662e-01  9.9973290745849563e-01  9.9964734975414682e-01  9.9948595250718442e-01  9.9914001715272494e-01  9.9867938043081250e-01  9.9794613407518828e-01  9.8660495392952008e-01  5.9987088281420931e-01  1.2933735941689778e-01  1.5826968259995593e-03  8.6299953565183423e-04  1.6039502741868944e-03  1.5118498610879475e-03  7.5918668673137903e-04  8.4555504429442057e-04  1.8090908823357090e-03  7.1920471567480687e-02  3.8668410035595152e-01  7.7261938897752391e-01  9.9447890720045606e-01  9.9869266768781573e-01  9.9919737910877182e-01  9.9943079607593566e-01  9.9957728027892012e-01  9.9966044393221054e-01  9.9971437620552284e-01  9.9975204096094727e-01  9.9977974580429041e-01  9.9980094949812981e-01  9.9981739239993273e-01  9.9983012630612622e-01  9.9983992126212173e-01  9.9984723971880596e-01  9.9985222978565713e-01  9.9985480917090741e-01  9.9985472201676706e-01  9.9985150114352872e-01  9.9984431880667024e-01  9.9983169091661450e-01  9.9981088713733124e-01  9.9977660343500463e-01  9.9971747338423267e-01  9.9960643701999286e-01  9.9931922389647476e-01  9.9765853553947648e-01  9.3034517271092176e-01  6.2345206561860489e-01  2.5829300587255810e-01  6.5377238024511980e-03  1.1895487715789851e-03  8.2992236089040336e-04  7.5670237986950667e-04  1.5111287515936480e-03  1.5155302510602613e-03  7.5493254784464187e-04  7.6288432830114855e-04  7.8293077312123873e-04  9.0757448138510102e-04  1.4898802046607621e-03  6.1790898676910427e-03  1.3939557810156172e-01  3.8320742505198113e-01  6.7711591822010053e-01  9.5044821881755259e-01  9.9767404833105311e-01  9.9892927968444845e-01  9.9924061233369010e-01  9.9944218622977554e-01  9.9957698713369569e-01  9.9965680589451755e-01  9.9970986415709040e-01  9.9974711519934301e-01  9.9977446689883331e-01  9.9979502248539853e-01  9.9981018220245355e-01  9.9982059196568029e-01  9.9982655458767311e-01  9.9982805379085560e-01  9.9982457098305744e-01  9.9981475785148588e-01  9.9979580758441267e-01  9.9976193980125327e-01  9.9970024816750258e-01  9.9958110780560538e-01  9.9931270208948808e-01  9.3747277041913890e-01  4.2964908332245916e-01  7.7048996967550062e-02  2.1180724124467663e-03  9.8975415852323168e-04  8.1741840156992216e-04  7.5594481230078971e-04  7.5121389605081225e-04  1.5112106286364977e-03  1.5190110952110550e-03  7.5793670227574479e-04  7.6234221264559259e-04  7.6781657636670582e-04  7.7387116778299863e-04  7.8527941696166642e-04  8.3559805119107038e-04  9.9291280987539926e-04  1.4016110447553432e-03  3.9516361642994548e-03  6.1011256833456678e-02  2.3098209868920075e-01  4.6929659167491899e-01  7.3982580276500032e-01  9.7191338776095682e-01  9.9791150322059075e-01  9.9894315134757783e-01  9.9923962160541246e-01  9.9944125166620057e-01  9.9957399866028929e-01  9.9965325487403955e-01  9.9970561479716091e-01  9.9974086001766882e-01  9.9976401380167679e-01  9.9977792727372117e-01  9.9978380731691907e-01  9.9978132157146737e-01  9.9976841175751396e-01  9.9974019403735737e-01  9.9968547926289775e-01  9.9957679405220623e-01  9.9933336222051428e-01  9.9298717150511706e-01  5.3774771174011304e-01  1.3431323634108971e-01  1.4402297239587084e-03  8.1699551313697306e-04  7.7118152435218723e-04  7.5720330569666256e-04  7.5341795246268873e-04  1.5127477604967793e-03  1.5209903696398143e-03  7.5984256606352000e-04  7.6237985471528996e-04  7.6533906674491154e-04  7.6840315767024922e-04  7.7066634453744082e-04  7.7141236602698820e-04  7.7458013357413003e-04  7.9007482334255861e-04  8.2867530233737005e-04  9.3007494863581956e-04  1.1207192951132568e-03  1.7359254530254281e-03  6.2863900944473963e-03  8.6676702384240231e-02  2.6240584610487555e-01  5.0470397207310580e-01  7.6842011258411447e-01  9.8166889195099527e-01  9.9799000071484278e-01  9.9893031533748577e-01  9.9927305982071868e-01  9.9947807181532655e-01  9.9959189529077608e-01  9.9965659111989214e-01  9.9969512201234367e-01  9.9971540092466249e-01  9.9971983611852300e-01  9.9970731020212023e-01  9.9967197100090532e-01  9.9959778048091930e-01  9.9943978779237386e-01  9.9903864638084583e-01  9.3545063351983859e-01  4.3793748112627701e-01  5.8913983676661666e-03  8.8827110904317417e-04  7.7099544319705979e-04  7.6180251737673803e-04  7.5768106840905193e-04  1.5164354685775223e-03  1.5215638490089240e-03  7.6051050504010679e-04  7.6228331680131857e-04  7.6396898775782894e-04  7.6573909456189660e-04  7.6724149657743813e-04  7.6849866696723909e-04  7.7033367403918146e-04  7.728331807