<?xml version="1.0"?>
<VTKFile type="UnstructuredGrid"  version="0.1"  >
<UnstructuredGrid>
<Piece  NumberOfPoints="1681" NumberOfCells="3200">
<Points>
<DataArray  type="Float64"  NumberOfComponents="3"  format="ascii">0 0 0  0.025 0 0  0.05 0 0  0.075 0 0  0.1 0 0  0.125 0 0  0.15 0 0  0.175 0 0  0.2 0 0  0.225 0 0  0.25 0 0  0.275 0 0  0.3 0 0  0.325 0 0  0.35 0 0  0.375 0 0  0.4 0 0  0.425 0 0  0.45 0 0  0.475 0 0  0.5 0 0  0.525 0 0  0.55 0 0  0.575 0 0  0.6 0 0  0.625 0 0  0.65 0 0  0.675 0 0  0.7 0 0  0.725 0 0  0.75 0 0  0.775 0 0  0.8 0 0  0.825 0 0  0.85 0 0  0.875 0 0  0.9 0 0  0.925 0 0  0.95 0 0  0.975 0 0  1 0 0  0 0.025 0  0.025 0.025 0  0.05 0.025 0  0.075 0.025 0  0.1 0.025 0  0.125 0.025 0  0.15 0.025 0  0.175 0.025 0  0.2 0.025 0  0.225 0.025 0  0.25 0.025 0  0.275 0.025 0  0.3 0.025 0  0.325 0.025 0  0.35 0.025 0  0.375 0.025 0  0.4 0.025 0  0.425 0.025 0  0.45 0.025 0  0.475 0.025 0  0.5 0.025 0  0.525 0.025 0  0.55 0.025 0  0.575 0.025 0  0.6 0.025 0  0.625 0.025 0  0.65 0.025 0  0.675 0.025 0  0.7 0.025 0  0.725 0.025 0  0.75 0.025 0  0.775 0.025 0  0.8 0.025 0  0.825 0.025 0  0.85 0.025 0  0.875 0.025 0  0.9 0.025 0  0.925 0.025 0  0.95 0.025 0  0.975 0.025 0  1 0.025 0  0 0.05 0  0.025 0.05 0  0.05 0.05 0  0.075 0.05 0  0.1 0.05 0  0.125 0.05 0  0.15 0.05 0  0.175 0.05 0  0.2 0.05 0  0.225 0.05 0  0.25 0.05 0  0.275 0.05 0  0.3 0.05 0  0.325 0.05 0  0.35 0.05 0  0.375 0.05 0  0.4 0.05 0  0.425 0.05 0  0.45 0.05 0  0.475 0.05 0  0.5 0.05 0  0.525 0.05 0  0.55 0.05 0  0.575 0.05 0  0.6 0.05 0  0.625 0.05 0  0.65 0.05 0  0.675 0.05 0  0.7 0.05 0  0.725 0.05 0  0.75 0.05 0  0.775 0.05 0  0.8 0.05 0  0.825 0.05 0  0.85 0.05 0  0.875 0.05 0  0.9 0.05 0  0.925 0.05 0  0.95 0.05 0  0.975 0.05 0  1 0.05 0  0 0.075 0  0.025 0.075 0  0.05 0.075 0  0.075 0.075 0  0.1 0.075 0  0.125 0.075 0  0.15 0.075 0  0.175 0.075 0  0.2 0.075 0  0.225 0.075 0  0.25 0.075 0  0.275 0.075 0  0.3 0.075 0  0.325 0.075 0  0.35 0.075 0  0.375 0.075 0  0.4 0.075 0  0.425 0.075 0  0.45 0.075 0  0.475 0.075 0  0.5 0.075 0  0.525 0.075 0  0.55 0.075 0  0.575 0.075 0  0.6 0.075 0  0.625 0.075 0  0.65 0.075 0  0.675 0.075 0  0.7 0.075 0  0.725 0.075 0  0.75 0.075 0  0.775 0.075 0  0.8 0.075 0  0.825 0.075 0  0.85 0.075 0  0.875 0.075 0  0.9 0.075 0  0.925 0.075 0  0.95 0.075 0  0.975 0.075 0  1 0.075 0  0 0.1 0  0.025 0.1 0  0.05 0.1 0  0.075 0.1 0  0.1 0.1 0  0.125 0.1 0  0.15 0.1 0  0.175 0.1 0  0.2 0.1 0  0.225 0.1 0  0.25 0.1 0  0.275 0.1 0  0.3 0.1 0  0.325 0.1 0  0.35 0.1 0  0.375 0.1 0  0.4 0.1 0  0.425 0.1 0  0.45 0.1 0  0.475 0.1 0  0.5 0.1 0  0.525 0.1 0  0.55 0.1 0  0.575 0.1 0  0.6 0.1 0  0.625 0.1 0  0.65 0.1 0  0.675 0.1 0  0.7 0.1 0  0.725 0.1 0  0.75 0.1 0  0.775 0.1 0  0.8 0.1 0  0.825 0.1 0  0.85 0.1 0  0.875 0.1 0  0.9 0.1 0  0.925 0.1 0  0.95 0.1 0  0.975 0.1 0  1 0.1 0  0 0.125 0  0.025 0.125 0  0.05 0.125 0  0.075 0.125 0  0.1 0.125 0  0.125 0.125 0  0.15 0.125 0  0.175 0.125 0  0.2 0.125 0  0.225 0.125 0  0.25 0.125 0  0.275 0.125 0  0.3 0.125 0  0.325 0.125 0  0.35 0.125 0  0.375 0.125 0  0.4 0.125 0  0.425 0.125 0  0.45 0.125 0  0.475 0.125 0  0.5 0.125 0  0.525 0.125 0  0.55 0.125 0  0.575 0.125 0  0.6 0.125 0  0.625 0.125 0  0.65 0.125 0  0.675 0.125 0  0.7 0.125 0  0.725 0.125 0  0.75 0.125 0  0.775 0.125 0  0.8 0.125 0  0.825 0.125 0  0.85 0.125 0  0.875 0.125 0  0.9 0.125 0  0.925 0.125 0  0.95 0.125 0  0.975 0.125 0  1 0.125 0  0 0.15 0  0.025 0.15 0  0.05 0.15 0  0.075 0.15 0  0.1 0.15 0  0.125 0.15 0  0.15 0.15 0  0.175 0.15 0  0.2 0.15 0  0.225 0.15 0  0.25 0.15 0  0.275 0.15 0  0.3 0.15 0  0.325 0.15 0  0.35 0.15 0  0.375 0.15 0  0.4 0.15 0  0.425 0.15 0  0.45 0.15 0  0.475 0.15 0  0.5 0.15 0  0.525 0.15 0  0.55 0.15 0  0.575 0.15 0  0.6 0.15 0  0.625 0.15 0  0.65 0.15 0  0.675 0.15 0  0.7 0.15 0  0.725 0.15 0  0.75 0.15 0  0.775 0.15 0  0.8 0.15 0  0.825 0.15 0  0.85 0.15 0  0.875 0.15 0  0.9 0.15 0  0.925 0.15 0  0.95 0.15 0  0.975 0.15 0  1 0.15 0  0 0.175 0  0.025 0.175 0  0.05 0.175 0  0.075 0.175 0  0.1 0.175 0  0.125 0.175 0  0.15 0.175 0  0.175 0.175 0  0.2 0.175 0  0.225 0.175 0  0.25 0.175 0  0.275 0.175 0  0.3 0.175 0  0.325 0.175 0  0.35 0.175 0  0.375 0.175 0  0.4 0.175 0  0.425 0.175 0  0.45 0.175 0  0.475 0.175 0  0.5 0.175 0  0.525 0.175 0  0.55 0.175 0  0.575 0.175 0  0.6 0.175 0  0.625 0.175 0  0.65 0.175 0  0.675 0.175 0  0.7 0.175 0  0.725 0.175 0  0.75 0.175 0  0.775 0.175 0  0.8 0.175 0  0.825 0.175 0  0.85 0.175 0  0.875 0.175 0  0.9 0.175 0  0.925 0.175 0  0.95 0.175 0  0.975 0.175 0  1 0.175 0  0 0.2 0  0.025 0.2 0  0.05 0.2 0  0.075 0.2 0  0.1 0.2 0  0.125 0.2 0  0.15 0.2 0  0.175 0.2 0  0.2 0.2 0  0.225 0.2 0  0.25 0.2 0  0.275 0.2 0  0.3 0.2 0  0.325 0.2 0  0.35 0.2 0  0.375 0.2 0  0.4 0.2 0  0.425 0.2 0  0.45 0.2 0  0.475 0.2 0  0.5 0.2 0  0.525 0.2 0  0.55 0.2 0  0.575 0.2 0  0.6 0.2 0  0.625 0.2 0  0.65 0.2 0  0.675 0.2 0  0.7 0.2 0  0.725 0.2 0  0.75 0.2 0  0.775 0.2 0  0.8 0.2 0  0.825 0.2 0  0.85 0.2 0  0.875 0.2 0  0.9 0.2 0  0.925 0.2 0  0.95 0.2 0  0.975 0.2 0  1 0.2 0  0 0.225 0  0.025 0.225 0  0.05 0.225 0  0.075 0.225 0  0.1 0.225 0  0.125 0.225 0  0.15 0.225 0  0.175 0.225 0  0.2 0.225 0  0.225 0.225 0  0.25 0.225 0  0.275 0.225 0  0.3 0.225 0  0.325 0.225 0  0.35 0.225 0  0.375 0.225 0  0.4 0.225 0  0.425 0.225 0  0.45 0.225 0  0.475 0.225 0  0.5 0.225 0  0.525 0.225 0  0.55 0.225 0  0.575 0.225 0  0.6 0.225 0  0.625 0.225 0  0.65 0.225 0  0.675 0.225 0  0.7 0.225 0  0.725 0.225 0  0.75 0.225 0  0.775 0.225 0  0.8 0.225 0  0.825 0.225 0  0.85 0.225 0  0.875 0.225 0  0.9 0.225 0  0.925 0.225 0  0.95 0.225 0  0.975 0.225 0  1 0.225 0  0 0.25 0  0.025 0.25 0  0.05 0.25 0  0.075 0.25 0  0.1 0.25 0  0.125 0.25 0  0.15 0.25 0  0.175 0.25 0  0.2 0.25 0  0.225 0.25 0  0.25 0.25 0  0.275 0.25 0  0.3 0.25 0  0.325 0.25 0  0.35 0.25 0  0.375 0.25 0  0.4 0.25 0  0.425 0.25 0  0.45 0.25 0  0.475 0.25 0  0.5 0.25 0  0.525 0.25 0  0.55 0.25 0  0.575 0.25 0  0.6 0.25 0  0.625 0.25 0  0.65 0.25 0  0.675 0.25 0  0.7 0.25 0  0.725 0.25 0  0.75 0.25 0  0.775 0.25 0  0.8 0.25 0  0.825 0.25 0  0.85 0.25 0  0.875 0.25 0  0.9 0.25 0  0.925 0.25 0  0.95 0.25 0  0.975 0.25 0  1 0.25 0  0 0.275 0  0.025 0.275 0  0.05 0.275 0  0.075 0.275 0  0.1 0.275 0  0.125 0.275 0  0.15 0.275 0  0.175 0.275 0  0.2 0.275 0  0.225 0.275 0  0.25 0.275 0  0.275 0.275 0  0.3 0.275 0  0.325 0.275 0  0.35 0.275 0  0.375 0.275 0  0.4 0.275 0  0.425 0.275 0  0.45 0.275 0  0.475 0.275 0  0.5 0.275 0  0.525 0.275 0  0.55 0.275 0  0.575 0.275 0  0.6 0.275 0  0.625 0.275 0  0.65 0.275 0  0.675 0.275 0  0.7 0.275 0  0.725 0.275 0  0.75 0.275 0  0.775 0.275 0  0.8 0.275 0  0.825 0.275 0  0.85 0.275 0  0.875 0.275 0  0.9 0.275 0  0.925 0.275 0  0.95 0.275 0  0.975 0.275 0  1 0.275 0  0 0.3 0  0.025 0.3 0  0.05 0.3 0  0.075 0.3 0  0.1 0.3 0  0.125 0.3 0  0.15 0.3 0  0.175 0.3 0  0.2 0.3 0  0.225 0.3 0  0.25 0.3 0  0.275 0.3 0  0.3 0.3 0  0.325 0.3 0  0.35 0.3 0  0.375 0.3 0  0.4 0.3 0  0.425 0.3 0  0.45 0.3 0  0.475 0.3 0  0.5 0.3 0  0.525 0.3 0  0.55 0.3 0  0.575 0.3 0  0.6 0.3 0  0.625 0.3 0  0.65 0.3 0  0.675 0.3 0  0.7 0.3 0  0.725 0.3 0  0.75 0.3 0  0.775 0.3 0  0.8 0.3 0  0.825 0.3 0  0.85 0.3 0  0.875 0.3 0  0.9 0.3 0  0.925 0.3 0  0.95 0.3 0  0.975 0.3 0  1 0.3 0  0 0.325 0  0.025 0.325 0  0.05 0.325 0  0.075 0.325 0  0.1 0.325 0  0.125 0.325 0  0.15 0.325 0  0.175 0.325 0  0.2 0.325 0  0.225 0.325 0  0.25 0.325 0  0.275 0.325 0  0.3 0.325 0  0.325 0.325 0  0.35 0.325 0  0.375 0.325 0  0.4 0.325 0  0.425 0.325 0  0.45 0.325 0  0.475 0.325 0  0.5 0.325 0  0.525 0.325 0  0.55 0.325 0  0.575 0.325 0  0.6 0.325 0  0.625 0.325 0  0.65 0.325 0  0.675 0.325 0  0.7 0.325 0  0.725 0.325 0  0.75 0.325 0  0.775 0.325 0  0.8 0.325 0  0.825 0.325 0  0.85 0.325 0  0.875 0.325 0  0.9 0.325 0  0.925 0.325 0  0.95 0.325 0  0.975 0.325 0  1 0.325 0  0 0.35 0  0.025 0.35 0  0.05 0.35 0  0.075 0.35 0  0.1 0.35 0  0.125 0.35 0  0.15 0.35 0  0.175 0.35 0  0.2 0.35 0  0.225 0.35 0  0.25 0.35 0  0.275 0.35 0  0.3 0.35 0  0.325 0.35 0  0.35 0.35 0  0.375 0.35 0  0.4 0.35 0  0.425 0.35 0  0.45 0.35 0  0.475 0.35 0  0.5 0.35 0  0.525 0.35 0  0.55 0.35 0  0.575 0.35 0  0.6 0.35 0  0.625 0.35 0  0.65 0.35 0  0.675 0.35 0  0.7 0.35 0  0.725 0.35 0  0.75 0.35 0  0.775 0.35 0  0.8 0.35 0  0.825 0.35 0  0.85 0.35 0  0.875 0.35 0  0.9 0.35 0  0.925 0.35 0  0.95 0.35 0  0.975 0.35 0  1 0.35 0  0 0.375 0  0.025 0.375 0  0.05 0.375 0  0.075 0.375 0  0.1 0.375 0  0.125 0.375 0  0.15 0.375 0  0.175 0.375 0  0.2 0.375 0  0.225 0.375 0  0.25 0.375 0  0.275 0.375 0  0.3 0.375 0  0.325 0.375 0  0.35 0.375 0  0.375 0.375 0  0.4 0.375 0  0.425 0.375 0  0.45 0.375 0  0.475 0.375 0  0.5 0.375 0  0.525 0.375 0  0.55 0.375 0  0.575 0.375 0  0.6 0.375 0  0.625 0.375 0  0.65 0.375 0  0.675 0.375 0  0.7 0.375 0  0.725 0.375 0  0.75 0.375 0  0.775 0.375 0  0.8 0.375 0  0.825 0.375 0  0.85 0.375 0  0.875 0.375 0  0.9 0.375 0  0.925 0.375 0  0.95 0.375 0  0.975 0.375 0  1 0.375 0  0 0.4 0  0.025 0.4 0  0.05 0.4 0  0.075 0.4 0  0.1 0.4 0  0.125 0.4 0  0.15 0.4 0  0.175 0.4 0  0.2 0.4 0  0.225 0.4 0  0.25 0.4 0  0.275 0.4 0  0.3 0.4 0  0.325 0.4 0  0.35 0.4 0  0.375 0.4 0  0.4 0.4 0  0.425 0.4 0  0.45 0.4 0  0.475 0.4 0  0.5 0.4 0  0.525 0.4 0  0.55 0.4 0  0.575 0.4 0  0.6 0.4 0  0.625 0.4 0  0.65 0.4 0  0.675 0.4 0  0.7 0.4 0  0.725 0.4 0  0.75 0.4 0  0.775 0.4 0  0.8 0.4 0  0.825 0.4 0  0.85 0.4 0  0.875 0.4 0  0.9 0.4 0  0.925 0.4 0  0.95 0.4 0  0.975 0.4 0  1 0.4 0  0 0.425 0  0.025 0.425 0  0.05 0.425 0  0.075 0.425 0  0.1 0.425 0  0.125 0.425 0  0.15 0.425 0  0.175 0.425 0  0.2 0.425 0  0.225 0.425 0  0.25 0.425 0  0.275 0.425 0  0.3 0.425 0  0.325 0.425 0  0.35 0.425 0  0.375 0.425 0  0.4 0.425 0  0.425 0.425 0  0.45 0.425 0  0.475 0.425 0  0.5 0.425 0  0.525 0.425 0  0.55 0.425 0  0.575 0.425 0  0.6 0.425 0  0.625 0.425 0  0.65 0.425 0  0.675 0.425 0  0.7 0.425 0  0.725 0.425 0  0.75 0.425 0  0.775 0.425 0  0.8 0.425 0  0.825 0.425 0  0.85 0.425 0  0.875 0.425 0  0.9 0.425 0  0.925 0.425 0  0.95 0.425 0  0.975 0.425 0  1 0.425 0  0 0.45 0  0.02
[...]
<PointData  Scalars="ControlVisualisation"> 
<DataArray  type="Float64"  Name="ControlVisualisation"  format="ascii">4.0168514513413817e-01  3.9501108900440768e-01  3.9502323801828521e-01  3.9507916071187021e-01  3.9517558161451594e-01  3.9529158591017122e-01  3.9540682899130580e-01  3.9550837498559921e-01  3.9559086280601136e-01  3.9565409042193689e-01  3.9570049888816305e-01  3.9573341675774493e-01  3.9575610002859218e-01  3.9577132281727712e-01  3.9578127562519666e-01  3.9578760637905563e-01  3.9579151143267521e-01  3.9579383121895961e-01  3.9579513171070446e-01  3.9579576583182663e-01  3.9579591442022066e-01  3.9579560797369057e-01  3.9579473025138590e-01  3.9579300392223166e-01  3.9578995746261081e-01  3.9578487195218365e-01  3.9577670710642904e-01  3.9576400945633827e-01  3.9574481476675250e-01  3.9571657691411505e-01  3.9567619389148295e-01  3.9562026045688498e-01  3.9554576998086921e-01  3.9545151669789869e-01  3.9534033678806885e-01  3.9522186553971828e-01  3.9511377837009315e-01  3.9503839731997381e-01  3.9500977018385741e-01  3.9501297966155691e-01  4.0835664961250950e-01  3.9501044330494900e-01  3.7505744682379916e-01  3.7535277759372876e-01  3.7603620072154781e-01  3.7708721261321732e-01  3.7832718348381206e-01  3.7956149007470885e-01  3.8065970533986487e-01  3.8156412453218819e-01  3.8226902364966486e-01  3.8279658940203642e-01  3.8317935734467529e-01  3.8345019342744846e-01  3.8363773888491481e-01  3.8376503845070159e-01  3.8384972580670579e-01  3.8390481214637245e-01  3.8393959024009267e-01  3.8396043744871206e-01  3.8397144025220975e-01  3.8397482531921051e-01  3.8397120413554547e-01  3.8395964047971015e-01  3.8393754382576051e-01  3.8390038348940125e-01  3.8384121320295450e-01  3.8375000081060046e-01  3.8361278601846105e-01  3.8341076289265419e-01  3.8311954695587053e-01  3.8270919002641718e-01  3.8214602182301777e-01  3.8139814568147840e-01  3.8044686099189612e-01  3.7930615069804857e-01  3.7804776325108114e-01  3.7681824240931228e-01  3.7582093459067689e-01  3.7521891525390444e-01  3.7500618636715871e-01  3.9501287681502989e-01  3.9501795858694627e-01  3.7536554005296441e-01  3.7646767099674994e-01  3.7826026505154231e-01  3.8066077312642765e-01  3.8335697054669476e-01  3.8598619099815829e-01  3.8830356256557452e-01  3.9020539172475588e-01  3.9168844182926155e-01  3.9280220298482865e-01  3.9361487243336318e-01  3.9419426341164548e-01  3.9459923807434127e-01  3.9487720249063946e-01  3.9506455688988756e-01  3.9518829145807050e-01  3.9526779943457485e-01  3.9531649106055727e-01  3.9534305675449638e-01  3.9535234849372525e-01  3.9534589202525772e-01  3.9532204806422022e-01  3.9527582934315997e-01  3.9519836441363737e-01  3.9507598796911947e-01  3.9488894340795999e-01  3.9460972872311750e-01  3.9420123993953787e-01  3.9361514273803500e-01  3.9279142007654749e-01  3.9166099136988952e-01  3.9015459425182225e-01  3.8822253807447682e-01  3.8587038461274331e-01  3.8320690229634696e-01  3.8048556421784485e-01  3.7807366823555361e-01  3.7627247869509428e-01  3.7521472571387365e-01  3.9500742426017449e-01  3.9506918242931072e-01  3.7621902440298721e-01  3.7876028937804129e-01  3.8169755972925279e-01  3.8490486813139618e-01  3.8818829383159947e-01  3.9124247169855747e-01  3.9385930625099475e-01  3.9596711225780518e-01  3.9758959363234520e-01  3.9879660705934250e-01  3.9967082210044308e-01  4.0029008853305020e-01  4.0072022366421373e-01  4.0101349247612439e-01  4.0120971588713406e-01  4.0133829898313306e-01  4.0142033197943155e-01  4.0147039927279854e-01  4.0149797547608801e-01  4.0150839510185288e-01  4.0150341866960337e-01  4.0148141885395133e-01  4.0143719547837292e-01  4.0136140877719068e-01  4.0123960479253401e-01  4.0105080583624020e-01  4.0076567221916298e-01  4.0034434305069999e-01  3.9973430513468255e-01  3.9886909983599450e-01  3.9766959864868112e-01  3.9605079208580618e-01  3.9393927876555956e-01  3.9130653295551693e-01  3.8821724189598500e-01  3.8487456663665731e-01  3.8156183385926956e-01  3.7846912085208084e-01  3.7588644496793322e-01  3.9502782504303929e-01  3.9519211779162527e-01  3.7802891326404536e-01  3.8330870893051022e-01  3.8760741182046687e-01  3.9101223286366427e-01  3.9393893134514735e-01  3.9644589482125858e-01  3.9849847501951025e-01  4.0010228716904056e-01  4.0130792713350227e-01  4.0218623111369545e-01  4.0280925638349857e-01  4.0324064800970255e-01  4.0353241640898024e-01  4.0372504306127444e-01  4.0384898479302223e-01  4.0392654644325043e-01  4.0397363824496141e-01  4.0400122794409832e-01  4.0401643992372227e-01  4.0402331271612768e-01  4.0402324235214182e-01  4.0401513407595302e-01  4.0399527081470060e-01  4.0395688980616690e-01  4.0388944370027102e-01  4.0377751528691508e-01  4.0359936659544543e-01  4.0332515318813017e-01  4.0291496673942634e-01  4.0231712330678349e-01  4.0146769227373486e-01  4.0029290693321279e-01  3.9871793517395893e-01  3.9668281811034695e-01  3.9416522579293489e-01  3.9116597913318668e-01  3.8755523457710950e-01  3.8288887971019220e-01  3.7742938901095280e-01  3.9510301493610211e-01  3.9541851557158086e-01  3.8224650743524963e-01  3.9263907779541934e-01  3.9826452962268921e-01  4.0061132382613884e-01  4.0186115195224698e-01  4.0275906618446333e-01  4.0346177212198486e-01  4.0399788579026386e-01  4.0438682893457745e-01  4.0465407082833843e-01  4.0482697334309109e-01  4.0493061913107425e-01  4.0498595906447349e-01  4.0500949811207004e-01  4.0501372368503669e-01  4.0500779117450347e-01  4.0499822196599172e-01  4.0498950625265107e-01  4.0498457336134641e-01  4.0498512441690121e-01  4.0499183377086823e-01  4.0500442671657805e-01  4.0502163733885282e-01  4.0504104522456486e-01  4.0505878579301385e-01  4.0506912934521122e-01  4.0506393342585206e-01  4.0503200112822402e-01  4.0495844066000192e-01  4.0482422894770986e-01  4.0460644070344604e-01  4.0427959604220581e-01  4.0381905723703582e-01  4.0320045847227381e-01  4.0237823139266576e-01  4.0111627179597620e-01  3.9848026985219065e-01  3.9196275335698466e-01  3.8062373540028338e-01  3.9521938707118126e-01  3.9776780226570130e-01  3.9521806839368617e-01  4.1301739625548350e-01  4.1703476393048722e-01  4.1515471655328279e-01  4.1255574841576936e-01  4.1051589242776942e-01  4.0907902699739079e-01  4.0807668650688600e-01  4.0736387857080159e-01  4.0684386507451270e-01  4.0645537826905970e-01  4.0615963407354561e-01  4.0593168855929851e-01  4.0575516540489248e-01  4.0561909873013718e-01  4.0551603762809785e-01  4.0544090104903241e-01  4.0539028369241104e-01  4.0536203923435615e-01  4.0535504110306875e-01  4.0536906550544477e-01  4.0540476981181167e-01  4.0546375993920347e-01  4.0554875884060587e-01  4.0566390967377342e-01  4.0581527767274017e-01  4.0601166284483597e-01  4.0626591630230380e-01  4.0659708696459912e-01  4.0703395578487922e-01  4.0762089410164865e-01  4.0842721939559462e-01  4.0956154772932923e-01  4.1118268965373861e-01  4.1347038351089638e-01  4.1632332127049104e-01  4.1824789524143152e-01  4.1323306536759946e-01  3.9228550023282088e-01  3.9588280391783864e-01  4.2406329907953877e-01  4.3934674726376244e-01  4.5369904852110987e-01  4.4633692715639117e-01  4.3476359988899443e-01  4.2556097985401864e-01  4.1923916492383628e-01  4.1501603183840063e-01  4.1216701271249440e-01  4.1020807160493433e-01  4.0883531388676225e-01  4.0785753632210514e-01  4.0715205077428340e-01  4.0663835532984477e-01  4.0626258277931870e-01  4.0598815126976689e-01  4.0579001323986102e-01  4.0565104648855943e-01  4.0555976298021046e-01  4.0550886119568474e-01  4.0549434712988697e-01  4.0551506816835436e-01  4.0557258106554772e-01  4.0567133220317464e-01  4.0581917987619037e-01  4.0602834731834642e-01  4.0631697700608799e-01  4.0671158534604540e-01  4.0725093412234731e-01  4.0799221722151108e-01  4.0902116479074319e-01  4.1046890421074095e-01  4.1254060307725116e-01  4.1556398984370729e-01  4.2006091065449458e-01  4.2681358230467459e-01  4.3662045290040274e-01  4.4879004845024989e-01  4.5636941284278543e-01  4.4422211489642399e-01  4.0991931470604465e-01  4.9452944047638225e-01  5.3249651606679249e-01  5.1230954485822333e-01  4.8216685766726836e-01  4.5647413905583861e-01  4.3889591518753102e-01  4.2765738520973828e-01  4.2047324952536813e-01  4.1577795594554079e-01  4.1263092534254148e-01  4.1047409355176268e-01  4.0896919461022457e-01  4.0790482156303376e-01  4.0714490418357863e-01  4.0659968021542431e-01  4.0620883958732046e-01  4.0593142386843722e-01  4.0573960655222430e-01  4.0561479439552467e-01  4.0554518229405029e-01  4.0552427182465645e-01  4.0555008076646815e-01  4.0562490653897654e-01  4.0575560396536769e-01  4.0595442477116528e-01  4.0624056606798636e-01  4.0664271646379652e-01  4.0720311723598163e-01  4.0798405616190631e-01  4.0907844858205594e-01  4.1062756269202427e-01  4.1285163582743678e-01  4.1610444135067087e-01  4.2097146517017114e-01  4.2844076997278607e-01  4.4015039824679730e-01  4.5838821609270636e-01  4.8449386801499578e-01  5.1281789863247007e-01  5.4346383736921955e-01  4.7529932071076314e-01  5.4722983513900436e-01  6.0897115299307480e-01  5.6003323156155060e-01  5.1229903680955413e-01  4.7421626516402676e-01  4.4934622655305667e-01  4.3399379724799897e-01  4.2443089255580624e-01  4.1830767136030456e-01  4.1427105607482606e-01  4.1154271322489294e-01  4.0966208558077638e-01  4.0834673043646780e-01  4.0741752627815597e-01  4.0675763542134769e-01  4.0628921525057343e-01  4.0595972705431971e-01  4.0573363375056321e-01  4.0558725609542856e-01  4.0550557234222900e-01  4.0548028742256964e-01  4.0550880146775392e-01  4.0559389265071805e-01  4.0574405955583231e-01  4.0597458293556044e-01  4.0630949858730669e-01  4.0678486228038357e-01  4.0745399958036160e-01  4.0839599062201637e-01  4.0972968805930560e-01  4.1163760247439057e-01  4.1440805668562025e-01  4.1851211493399176e-01  4.2474651239562178e-01  4.3449705202848554e-01  4.5015712564585630e-01  4.7541507508403130e-01  5.1355788029048199e-01  5.5821010673162585e-01  6.1239934288632203e-01  5.4148171032642978e-01  5.6227302253091094e-01  6.3145625027775032e-01  5.7650479052310122e-01  5.2495862288176431e-01  4.8188155916792852e-01  4.5382370504384650e-01  4.3662991269852774e-01  4.2600547136209321e-01  4.1925386325583097e-01  4.1483260443453446e-01  4.1186236545083477e-01  4.0982670764837714e-01  4.0841096258265053e-01  4.0741659560584775e-01  4.0671459970709523e-01  4.0621925740778381e-01  4.0587282013011589e-01  4.0563626962685445e-01  4.0548361740645594e-01  4.0539836674843599e-01  4.0537137956978442e-01  4.0539973395136353e-01  4.0548636541917277e-01  4.0564042930183580e-01  4.0587844734366241e-01  4.0622644608629721e-01  4.0672350213304431e-01  4.0742745344813697e-01  4.0842415440166191e-01  4.0984282218804569e-01  4.1188231449475160e-01  4.1485779150676133e-01  4.1928640923707367e-01  4.2604839431732877e-01  4.3668677837945569e-01  4.5389564690198553e-01  4.8195557683447660e-01  5.2498759258038152e-01  5.7644136036351634e-01  6.3144154948497921e-01  5.6236920224219045e-01  5.4142645790964516e-01  6.1325848375922809e-01  5.6031659432987146e-01  5.1562489947080525e-01  4.7680325099813142e-01  4.5091868457647971e-01  4.3482695150274031e-01  4.2480133306393930e-01  4.1839599592386878e-01  4.1418799820888785e-01  4.1135701659015178e-01  4.0941695728912880e-01  4.0806960190907177e-01  4.0712569406660298e-01  4.0646165736978046e-01  4.0599505209503495e-01  4.0567015433171549e-01  4.0544921159560843e-01  4.0530701937465829e-01  4.0522753916333981e-01  4.0520185002363029e-01  4.0522704512200969e-01  4.0530587803804435e-01  4.0544709823593122e-01  4.0566653212110265e-01  4.0598909921584631e-01  4.0645214275749370e-01  4.0711076595483259e-01  4.0804642173036026e-01  4.0938104851038792e-01  4.1130107736157456e-01  4.1409967432491235e-01  4.1825357512607475e-01  4.2456602432761403e-01  4.3442772990305389e-01  4.5023675599463459e-01  4.7573914079156476e-01  5.1444220367197846e-01  5.6210778027432784e-01  6.0978333788883909e-01  5.4724444540533834e-01  4.7559721027753349e-01  5.4585879191492781e-01  5.1686419516313431e-01  4.8823050699525927e-01  4.6092621344907059e-01  4.4157140047168053e-01  4.2906629265655966e-01  4.2107611949486001e-01  4.1587913467818916e-01  4.1242327595587253e-01  4.1008023576973152e-01  4.0846787412906238e-01  4.0734676106939599e-01  4.0656231171030915e-01  4.0601219495597912e-01  4.0562740153197474e-01  4.0536089340601172e-01  4.0518059757032071e-01  4.0506499380006844e-01  4.0500032791128487e-01  4.0497890584515139e-01  4.0499816552625573e-01  4.0506037224472080e-01  4.0517288825279368e-01  4.0534905863975362e-01  4.0560985812579858e-01  4.0598658650133151e-01  4.0652513034884130e-01  4.0729270977014642e-01  4.0838876474979141e-01  4.0996303060191230e-01  4.1224653298183861e-01  4.1560632162956246e-01  4.2064338931127720e-01  4.2836118218841818e-01  4.4040505423453702e-01  4.5910124837305932e-01  4.8599647764797882e-01  5.1650795396014471e-01  5.3488600679555298e-01  4.9468513885885285e-01  4.1039909470405811e-01  4.4774287467707141e-01  4.6158752932839325e-01  4.5339617058578069e-01  4.3976857235009181e-01  4.2858967601156583e-01  4.2082012787530082e-01  4.1563354052008245e-01  4.1216283938117643e-01  4.0981290584104185e-01  4.0820275846601811e-01  4.0708971827535623e-01  4.0631613276883072e-01  4.0577732488783724e-01  4.0540248119328931e-01  4.0514304878581592e-01  4.0496552034507949e-01  4.0484683810374650e-01  4.0477142284659362e-01  4.0472925697159501e-01  4.0471469074139921e-01  4.0472578287290895e-01  4.0476407717649970e-01  4.0483478260252009e-01  4.0494738163589322e-01  4.0511675539316078e-01  4.0536499908802415e-01  4.0572423306242450e-01  4.0624093482689166e-01  4.0698270437847961e-01  4.0804907062039536e-01  4.0958919065633320e-01  4.1183135059109138e-01  4.1513143403717273e-01  4.2004382849563393e-01  4.2737327604437342e-01  4.3792883738962313e-01  4.5095719247274130e-01  4.5895838948763851e-01  4.4280356958843614e-01  4.2450868922858048e-01  3.9619453928708287e-01  3.9522395230149626e-01  4.1818016738436997e-01  4.2278438228742943e-01  4.1950136648103431e-01  4.1527168459058722e-01  4.1189986073898255e-01  4.0951045890359722e-01  4.0786517110047182e-01  4.0673930005401804e-01  4.0596945058277029e-01  4.0544414258549183e-01  4.0508740090664747e-01  4.0484706014734656e-01  4.0468695556270762e-01  4.0458185852464651e-01  4.0451415093221793e-01  4.0447161138490684e-01  4.0444593227636444e-01  4.0443173490117540e-01  4.0442594141158972e-01  4.0442741974820906e-01  4.0443685638870508e-01  4.0445684100868179e-01  4.0449217319249531e-01  4.0455042929635038e-01  4.0464286338003103e-01  4.0478576809964523e-01  4.0500250329835469e-01  4.0532653393422324e-01  4.0580603779423535e-01  4.0651096910940554e-01  4.0754374553444001e-01  4.0905382571954269e-01  4.1124846024828426e-01  4.1435043387246784e-01  4.1829291067362434e-01  4.2150276238940471e-01  4.1788915785141267e-01  3.9819474661774235e-01  3.9817151187258532e-01  3.9543311613304183e-01  3.8271318520465236e-01  3.9588456367654701e-01  4.0233020621806415e-01  4.0391210953265017e-01  4.0396539051596253e-01  4.0376640347023302e-01  4.0363062707579433e-01  4.0358182712746571e-01  4.0359500850582936e-01  4.0364444662303783e-01  4.0371235619950085e-01  4.0378715009725702e-01  4.0386147724323795e-01  4.0393068475705579e-01  4.0399184772367353e-01  4.0404314260259416e-01  4.0408344211247643e-01  4.0411204864522721e-01  4.0412851767953401e-01  4.0413254283255273e-01  4.0412388599154125e-01  4.0410234354984748e-01  4.0406774511038240e-01  4.0401998571878417e-01  4.0395909793825197e-01  4.0388537751078180e-01  4.0379958841620789e-01  4.0370329405712463e-01  4.0359939803065864e-01  4.0349303935960656e-01  4.0339306339179831e-01  4.0331425125701154e-01  4.0327957185442220e-01  4.0331627248850044e-01  4.0341589841937409e-01  4.0334820596912035e-01  4.0204757160952942e-01  3.9654612412874413e-01  3.8445594662211796e-01  3.9567000337896602e-01  3.9526794006156468e-01  3.7899788373316268e-01  3.8586141338436097e-01  3.9057955789416710e-01  3.9344705164263805e-01  3.9550554314074782e-01  3.9718786967929215e-01  3.9859724095481425e-01  3.9976153565779271e-01  4.0070707261526906e-01  4.0146457376570677e-01  4.0206593489761389e-01  4.0254017378595541e-01  4.0291192033637019e-01  4.0320113644225997e-01  4.0342350964921914e-01  4.0359105031166076e-01  4.0371269626311773e-01  4.0379483111886860e-01  4.0384168527295400e-01  4.0385561397223352e-01  4.0383725612038029e-01  4.0378557842702339e-01  4.0369780685183304e-01  4.0356924388552001e-01  4.0339296833024518e-01  4.0315941701532781e-01  4.0285586056010686e-01  4.0246581749447424e-01  4.0196852098756475e-01  4.0133868955197860e-01  4.0054709835585056e-01  3.9956281079202660e-01  3.9835809045898124e-01  3.9691524387773602e-01  3.9522436273220335e-01  3.9322438823808736e-01  3.9057266785612016e-01  3.8627919458195648e-01  3.7967671795712399e-01  3.9538665887558716e-01  3.9513985241321725e-01  3.7698170326458252e-01  3.8060662889479246e-01  3.8387884735823874e-01  3.8683959826998382e-01  3.8967992829692177e-01  3.9233311890696826e-01  3.9468222104532719e-01  3.9667201609525049e-01  3.9830404656240803e-01  3.9961321291839930e-01  4.0064745076178376e-01  4.0145547828863593e-01  4.0208107135300120e-01  4.0256093948603228e-01  4.0292453741396944e-01  4.0319470473380015e-01  4.0338857241605797e-01  4.0351844680967269e-01  4.0359254286843699e-01  4.0361551623488462e-01  4.0358878002412529e-01  4.0351060523013399e-01  4.0337600612071800e-01  4.0317641164557522e-01  4.0289912743446521e-01  4.0252660851841748e-01  4.0203560289241064e-01  4.0139631137373705e-01  4.0057187413555551e-01  3.9951878864146168e-01  3.9818935845711406e-01  3.9653799038747928e-01  3.9453387456245292e-01  3.9218211525044877e-01  3.8954924043778921e-01  3.8676657928329389e-01  3.8393936525791489e-01  3.8089691453527380e-01  3.7740015004918093e-01  3.9521164667919551e-01  3.9506481650023162e-01  3.7586550451793715e-01  3.7774036987233706e-01  3.8007212732903878e-01  3.8286392370919586e-01  3.8596316790532598e-01  3.8906967665869058e-01  3.9193792394215782e-01  3.9443515077459118e-01  3.9652148142549576e-01  3.9821522828559985e-01  3.9956260269254762e-01  4.0061857285414032e-01  4.0143635212314127e-01  4.0206255397495549e-01  4.0253562371686152e-01  4.0288591629093229e-01  4.0313647768404959e-01  4.0330400505329717e-01  4.0339972191146228e-01  4.0343004568110691e-01  4.0339699760253306e-01  4.0329833809871229e-01  4.0312742471787583e-01  4.0287279827742151e-01  4.0251751778041772e-01  4.0203829989171325e-01  4.0140459403204287e-01  4.0057787035543824e-01  3.9951165717615833e-01  3.9815329229051494e-01  3.9644899051410831e-01  3.9435458953059127e-01  3.9185486128414282e-01  3.8899312976105943e-01  3.8590664133367425e-01  3.8284547615980069e-01  3.8011797069038555e-01  3.7789651107030869e-01  3.7608806116032589e-01  3.9510645662448479e-01  3.9502673442646513e-01  3.7528700200708515e-01  3.7625571537145075e-01  3.7808489728246480e-01  3.8073887893343217e-01  3.8390705741307035e-01  3.8720241382542003e-01  3.9032158951623375e-01  3.9308653056831866e-01  3.9542730208825516e-01  3.9734550737469376e-01  3.9888105111994332e-01  4.0008915687359076e-01  4.0102664560390505e-01  4.0174499688056942e-01  4.0228756003620658e-01  4.0268903035626141e-01  4.0297599213883162e-01  4.0316783113614374e-01  4.0327764474175587e-01  4.0331296572074848e-01  4.0327621687196807e-01  4.0316486434270737e-01  4.0297126197998506e-01  4.0268219608035666e-01  4.0227816508246877e-01  4.0173248020091668e-01  4.0101037576878090e-01  4.0006850818146661e-01  3.9885554405395879e-01  3.9731504329911760e-01  3.9539250737561693e-01  3.9304912289458149e-01  3.9028480575728686e-01  3.8717091045237306e-01  3.8388636525450570e-01  3.8073626988079501e-01  3.7811040809376723e-01  3.7632664380605352e-01  3.7538711049582318e-01  3.9504616293877559e-01  3.9502069774032994e-01  3.7513634776001753e-01  3.7581561198518038e-01  3.7747458649931742e-01  3.8007031804870317e-01  3.8324474308832412e-01  3.8658768466973525e-01  3.8977888215960488e-01  3.926262464