<?xml version="1.0"?>
<VTKFile type="UnstructuredGrid"  version="0.1"  >
<UnstructuredGrid>
<Piece  NumberOfPoints="1681" NumberOfCells="3200">
<Points>
<DataArray  type="Float64"  NumberOfComponents="3"  format="ascii">0 0 0  0.025 0 0  0.05 0 0  0.075 0 0  0.1 0 0  0.125 0 0  0.15 0 0  0.175 0 0  0.2 0 0  0.225 0 0  0.25 0 0  0.275 0 0  0.3 0 0  0.325 0 0  0.35 0 0  0.375 0 0  0.4 0 0  0.425 0 0  0.45 0 0  0.475 0 0  0.5 0 0  0.525 0 0  0.55 0 0  0.575 0 0  0.6 0 0  0.625 0 0  0.65 0 0  0.675 0 0  0.7 0 0  0.725 0 0  0.75 0 0  0.775 0 0  0.8 0 0  0.825 0 0  0.85 0 0  0.875 0 0  0.9 0 0  0.925 0 0  0.95 0 0  0.975 0 0  1 0 0  0 0.025 0  0.025 0.025 0  0.05 0.025 0  0.075 0.025 0  0.1 0.025 0  0.125 0.025 0  0.15 0.025 0  0.175 0.025 0  0.2 0.025 0  0.225 0.025 0  0.25 0.025 0  0.275 0.025 0  0.3 0.025 0  0.325 0.025 0  0.35 0.025 0  0.375 0.025 0  0.4 0.025 0  0.425 0.025 0  0.45 0.025 0  0.475 0.025 0  0.5 0.025 0  0.525 0.025 0  0.55 0.025 0  0.575 0.025 0  0.6 0.025 0  0.625 0.025 0  0.65 0.025 0  0.675 0.025 0  0.7 0.025 0  0.725 0.025 0  0.75 0.025 0  0.775 0.025 0  0.8 0.025 0  0.825 0.025 0  0.85 0.025 0  0.875 0.025 0  0.9 0.025 0  0.925 0.025 0  0.95 0.025 0  0.975 0.025 0  1 0.025 0  0 0.05 0  0.025 0.05 0  0.05 0.05 0  0.075 0.05 0  0.1 0.05 0  0.125 0.05 0  0.15 0.05 0  0.175 0.05 0  0.2 0.05 0  0.225 0.05 0  0.25 0.05 0  0.275 0.05 0  0.3 0.05 0  0.325 0.05 0  0.35 0.05 0  0.375 0.05 0  0.4 0.05 0  0.425 0.05 0  0.45 0.05 0  0.475 0.05 0  0.5 0.05 0  0.525 0.05 0  0.55 0.05 0  0.575 0.05 0  0.6 0.05 0  0.625 0.05 0  0.65 0.05 0  0.675 0.05 0  0.7 0.05 0  0.725 0.05 0  0.75 0.05 0  0.775 0.05 0  0.8 0.05 0  0.825 0.05 0  0.85 0.05 0  0.875 0.05 0  0.9 0.05 0  0.925 0.05 0  0.95 0.05 0  0.975 0.05 0  1 0.05 0  0 0.075 0  0.025 0.075 0  0.05 0.075 0  0.075 0.075 0  0.1 0.075 0  0.125 0.075 0  0.15 0.075 0  0.175 0.075 0  0.2 0.075 0  0.225 0.075 0  0.25 0.075 0  0.275 0.075 0  0.3 0.075 0  0.325 0.075 0  0.35 0.075 0  0.375 0.075 0  0.4 0.075 0  0.425 0.075 0  0.45 0.075 0  0.475 0.075 0  0.5 0.075 0  0.525 0.075 0  0.55 0.075 0  0.575 0.075 0  0.6 0.075 0  0.625 0.075 0  0.65 0.075 0  0.675 0.075 0  0.7 0.075 0  0.725 0.075 0  0.75 0.075 0  0.775 0.075 0  0.8 0.075 0  0.825 0.075 0  0.85 0.075 0  0.875 0.075 0  0.9 0.075 0  0.925 0.075 0  0.95 0.075 0  0.975 0.075 0  1 0.075 0  0 0.1 0  0.025 0.1 0  0.05 0.1 0  0.075 0.1 0  0.1 0.1 0  0.125 0.1 0  0.15 0.1 0  0.175 0.1 0  0.2 0.1 0  0.225 0.1 0  0.25 0.1 0  0.275 0.1 0  0.3 0.1 0  0.325 0.1 0  0.35 0.1 0  0.375 0.1 0  0.4 0.1 0  0.425 0.1 0  0.45 0.1 0  0.475 0.1 0  0.5 0.1 0  0.525 0.1 0  0.55 0.1 0  0.575 0.1 0  0.6 0.1 0  0.625 0.1 0  0.65 0.1 0  0.675 0.1 0  0.7 0.1 0  0.725 0.1 0  0.75 0.1 0  0.775 0.1 0  0.8 0.1 0  0.825 0.1 0  0.85 0.1 0  0.875 0.1 0  0.9 0.1 0  0.925 0.1 0  0.95 0.1 0  0.975 0.1 0  1 0.1 0  0 0.125 0  0.025 0.125 0  0.05 0.125 0  0.075 0.125 0  0.1 0.125 0  0.125 0.125 0  0.15 0.125 0  0.175 0.125 0  0.2 0.125 0  0.225 0.125 0  0.25 0.125 0  0.275 0.125 0  0.3 0.125 0  0.325 0.125 0  0.35 0.125 0  0.375 0.125 0  0.4 0.125 0  0.425 0.125 0  0.45 0.125 0  0.475 0.125 0  0.5 0.125 0  0.525 0.125 0  0.55 0.125 0  0.575 0.125 0  0.6 0.125 0  0.625 0.125 0  0.65 0.125 0  0.675 0.125 0  0.7 0.125 0  0.725 0.125 0  0.75 0.125 0  0.775 0.125 0  0.8 0.125 0  0.825 0.125 0  0.85 0.125 0  0.875 0.125 0  0.9 0.125 0  0.925 0.125 0  0.95 0.125 0  0.975 0.125 0  1 0.125 0  0 0.15 0  0.025 0.15 0  0.05 0.15 0  0.075 0.15 0  0.1 0.15 0  0.125 0.15 0  0.15 0.15 0  0.175 0.15 0  0.2 0.15 0  0.225 0.15 0  0.25 0.15 0  0.275 0.15 0  0.3 0.15 0  0.325 0.15 0  0.35 0.15 0  0.375 0.15 0  0.4 0.15 0  0.425 0.15 0  0.45 0.15 0  0.475 0.15 0  0.5 0.15 0  0.525 0.15 0  0.55 0.15 0  0.575 0.15 0  0.6 0.15 0  0.625 0.15 0  0.65 0.15 0  0.675 0.15 0  0.7 0.15 0  0.725 0.15 0  0.75 0.15 0  0.775 0.15 0  0.8 0.15 0  0.825 0.15 0  0.85 0.15 0  0.875 0.15 0  0.9 0.15 0  0.925 0.15 0  0.95 0.15 0  0.975 0.15 0  1 0.15 0  0 0.175 0  0.025 0.175 0  0.05 0.175 0  0.075 0.175 0  0.1 0.175 0  0.125 0.175 0  0.15 0.175 0  0.175 0.175 0  0.2 0.175 0  0.225 0.175 0  0.25 0.175 0  0.275 0.175 0  0.3 0.175 0  0.325 0.175 0  0.35 0.175 0  0.375 0.175 0  0.4 0.175 0  0.425 0.175 0  0.45 0.175 0  0.475 0.175 0  0.5 0.175 0  0.525 0.175 0  0.55 0.175 0  0.575 0.175 0  0.6 0.175 0  0.625 0.175 0  0.65 0.175 0  0.675 0.175 0  0.7 0.175 0  0.725 0.175 0  0.75 0.175 0  0.775 0.175 0  0.8 0.175 0  0.825 0.175 0  0.85 0.175 0  0.875 0.175 0  0.9 0.175 0  0.925 0.175 0  0.95 0.175 0  0.975 0.175 0  1 0.175 0  0 0.2 0  0.025 0.2 0  0.05 0.2 0  0.075 0.2 0  0.1 0.2 0  0.125 0.2 0  0.15 0.2 0  0.175 0.2 0  0.2 0.2 0  0.225 0.2 0  0.25 0.2 0  0.275 0.2 0  0.3 0.2 0  0.325 0.2 0  0.35 0.2 0  0.375 0.2 0  0.4 0.2 0  0.425 0.2 0  0.45 0.2 0  0.475 0.2 0  0.5 0.2 0  0.525 0.2 0  0.55 0.2 0  0.575 0.2 0  0.6 0.2 0  0.625 0.2 0  0.65 0.2 0  0.675 0.2 0  0.7 0.2 0  0.725 0.2 0  0.75 0.2 0  0.775 0.2 0  0.8 0.2 0  0.825 0.2 0  0.85 0.2 0  0.875 0.2 0  0.9 0.2 0  0.925 0.2 0  0.95 0.2 0  0.975 0.2 0  1 0.2 0  0 0.225 0  0.025 0.225 0  0.05 0.225 0  0.075 0.225 0  0.1 0.225 0  0.125 0.225 0  0.15 0.225 0  0.175 0.225 0  0.2 0.225 0  0.225 0.225 0  0.25 0.225 0  0.275 0.225 0  0.3 0.225 0  0.325 0.225 0  0.35 0.225 0  0.375 0.225 0  0.4 0.225 0  0.425 0.225 0  0.45 0.225 0  0.475 0.225 0  0.5 0.225 0  0.525 0.225 0  0.55 0.225 0  0.575 0.225 0  0.6 0.225 0  0.625 0.225 0  0.65 0.225 0  0.675 0.225 0  0.7 0.225 0  0.725 0.225 0  0.75 0.225 0  0.775 0.225 0  0.8 0.225 0  0.825 0.225 0  0.85 0.225 0  0.875 0.225 0  0.9 0.225 0  0.925 0.225 0  0.95 0.225 0  0.975 0.225 0  1 0.225 0  0 0.25 0  0.025 0.25 0  0.05 0.25 0  0.075 0.25 0  0.1 0.25 0  0.125 0.25 0  0.15 0.25 0  0.175 0.25 0  0.2 0.25 0  0.225 0.25 0  0.25 0.25 0  0.275 0.25 0  0.3 0.25 0  0.325 0.25 0  0.35 0.25 0  0.375 0.25 0  0.4 0.25 0  0.425 0.25 0  0.45 0.25 0  0.475 0.25 0  0.5 0.25 0  0.525 0.25 0  0.55 0.25 0  0.575 0.25 0  0.6 0.25 0  0.625 0.25 0  0.65 0.25 0  0.675 0.25 0  0.7 0.25 0  0.725 0.25 0  0.75 0.25 0  0.775 0.25 0  0.8 0.25 0  0.825 0.25 0  0.85 0.25 0  0.875 0.25 0  0.9 0.25 0  0.925 0.25 0  0.95 0.25 0  0.975 0.25 0  1 0.25 0  0 0.275 0  0.025 0.275 0  0.05 0.275 0  0.075 0.275 0  0.1 0.275 0  0.125 0.275 0  0.15 0.275 0  0.175 0.275 0  0.2 0.275 0  0.225 0.275 0  0.25 0.275 0  0.275 0.275 0  0.3 0.275 0  0.325 0.275 0  0.35 0.275 0  0.375 0.275 0  0.4 0.275 0  0.425 0.275 0  0.45 0.275 0  0.475 0.275 0  0.5 0.275 0  0.525 0.275 0  0.55 0.275 0  0.575 0.275 0  0.6 0.275 0  0.625 0.275 0  0.65 0.275 0  0.675 0.275 0  0.7 0.275 0  0.725 0.275 0  0.75 0.275 0  0.775 0.275 0  0.8 0.275 0  0.825 0.275 0  0.85 0.275 0  0.875 0.275 0  0.9 0.275 0  0.925 0.275 0  0.95 0.275 0  0.975 0.275 0  1 0.275 0  0 0.3 0  0.025 0.3 0  0.05 0.3 0  0.075 0.3 0  0.1 0.3 0  0.125 0.3 0  0.15 0.3 0  0.175 0.3 0  0.2 0.3 0  0.225 0.3 0  0.25 0.3 0  0.275 0.3 0  0.3 0.3 0  0.325 0.3 0  0.35 0.3 0  0.375 0.3 0  0.4 0.3 0  0.425 0.3 0  0.45 0.3 0  0.475 0.3 0  0.5 0.3 0  0.525 0.3 0  0.55 0.3 0  0.575 0.3 0  0.6 0.3 0  0.625 0.3 0  0.65 0.3 0  0.675 0.3 0  0.7 0.3 0  0.725 0.3 0  0.75 0.3 0  0.775 0.3 0  0.8 0.3 0  0.825 0.3 0  0.85 0.3 0  0.875 0.3 0  0.9 0.3 0  0.925 0.3 0  0.95 0.3 0  0.975 0.3 0  1 0.3 0  0 0.325 0  0.025 0.325 0  0.05 0.325 0  0.075 0.325 0  0.1 0.325 0  0.125 0.325 0  0.15 0.325 0  0.175 0.325 0  0.2 0.325 0  0.225 0.325 0  0.25 0.325 0  0.275 0.325 0  0.3 0.325 0  0.325 0.325 0  0.35 0.325 0  0.375 0.325 0  0.4 0.325 0  0.425 0.325 0  0.45 0.325 0  0.475 0.325 0  0.5 0.325 0  0.525 0.325 0  0.55 0.325 0  0.575 0.325 0  0.6 0.325 0  0.625 0.325 0  0.65 0.325 0  0.675 0.325 0  0.7 0.325 0  0.725 0.325 0  0.75 0.325 0  0.775 0.325 0  0.8 0.325 0  0.825 0.325 0  0.85 0.325 0  0.875 0.325 0  0.9 0.325 0  0.925 0.325 0  0.95 0.325 0  0.975 0.325 0  1 0.325 0  0 0.35 0  0.025 0.35 0  0.05 0.35 0  0.075 0.35 0  0.1 0.35 0  0.125 0.35 0  0.15 0.35 0  0.175 0.35 0  0.2 0.35 0  0.225 0.35 0  0.25 0.35 0  0.275 0.35 0  0.3 0.35 0  0.325 0.35 0  0.35 0.35 0  0.375 0.35 0  0.4 0.35 0  0.425 0.35 0  0.45 0.35 0  0.475 0.35 0  0.5 0.35 0  0.525 0.35 0  0.55 0.35 0  0.575 0.35 0  0.6 0.35 0  0.625 0.35 0  0.65 0.35 0  0.675 0.35 0  0.7 0.35 0  0.725 0.35 0  0.75 0.35 0  0.775 0.35 0  0.8 0.35 0  0.825 0.35 0  0.85 0.35 0  0.875 0.35 0  0.9 0.35 0  0.925 0.35 0  0.95 0.35 0  0.975 0.35 0  1 0.35 0  0 0.375 0  0.025 0.375 0  0.05 0.375 0  0.075 0.375 0  0.1 0.375 0  0.125 0.375 0  0.15 0.375 0  0.175 0.375 0  0.2 0.375 0  0.225 0.375 0  0.25 0.375 0  0.275 0.375 0  0.3 0.375 0  0.325 0.375 0  0.35 0.375 0  0.375 0.375 0  0.4 0.375 0  0.425 0.375 0  0.45 0.375 0  0.475 0.375 0  0.5 0.375 0  0.525 0.375 0  0.55 0.375 0  0.575 0.375 0  0.6 0.375 0  0.625 0.375 0  0.65 0.375 0  0.675 0.375 0  0.7 0.375 0  0.725 0.375 0  0.75 0.375 0  0.775 0.375 0  0.8 0.375 0  0.825 0.375 0  0.85 0.375 0  0.875 0.375 0  0.9 0.375 0  0.925 0.375 0  0.95 0.375 0  0.975 0.375 0  1 0.375 0  0 0.4 0  0.025 0.4 0  0.05 0.4 0  0.075 0.4 0  0.1 0.4 0  0.125 0.4 0  0.15 0.4 0  0.175 0.4 0  0.2 0.4 0  0.225 0.4 0  0.25 0.4 0  0.275 0.4 0  0.3 0.4 0  0.325 0.4 0  0.35 0.4 0  0.375 0.4 0  0.4 0.4 0  0.425 0.4 0  0.45 0.4 0  0.475 0.4 0  0.5 0.4 0  0.525 0.4 0  0.55 0.4 0  0.575 0.4 0  0.6 0.4 0  0.625 0.4 0  0.65 0.4 0  0.675 0.4 0  0.7 0.4 0  0.725 0.4 0  0.75 0.4 0  0.775 0.4 0  0.8 0.4 0  0.825 0.4 0  0.85 0.4 0  0.875 0.4 0  0.9 0.4 0  0.925 0.4 0  0.95 0.4 0  0.975 0.4 0  1 0.4 0  0 0.425 0  0.025 0.425 0  0.05 0.425 0  0.075 0.425 0  0.1 0.425 0  0.125 0.425 0  0.15 0.425 0  0.175 0.425 0  0.2 0.425 0  0.225 0.425 0  0.25 0.425 0  0.275 0.425 0  0.3 0.425 0  0.325 0.425 0  0.35 0.425 0  0.375 0.425 0  0.4 0.425 0  0.425 0.425 0  0.45 0.425 0  0.475 0.425 0  0.5 0.425 0  0.525 0.425 0  0.55 0.425 0  0.575 0.425 0  0.6 0.425 0  0.625 0.425 0  0.65 0.425 0  0.675 0.425 0  0.7 0.425 0  0.725 0.425 0  0.75 0.425 0  0.775 0.425 0  0.8 0.425 0  0.825 0.425 0  0.85 0.425 0  0.875 0.425 0  0.9 0.425 0  0.925 0.425 0  0.95 0.425 0  0.975 0.425 0  1 0.425 0  0 0.45 0  0.02
[...]
<PointData  Scalars="ControlVisualisation"> 
<DataArray  type="Float64"  Name="ControlVisualisation"  format="ascii">9.0551126541241145e-02  7.0892691232059157e-02  7.0981315662415750e-02  7.1168387150431001e-02  7.1439774523686356e-02  7.1767145246639047e-02  7.2119480200009495e-02  7.2472175012310458e-02  7.2809951575707257e-02  7.3125230822068732e-02  7.3415259832749172e-02  7.3679746969516097e-02  7.3919403718420568e-02  7.4135184789999642e-02  7.4327941310409429e-02  7.4498285262810854e-02  7.4646551346304754e-02  7.4772798853555825e-02  7.4876825756569468e-02  7.4958181614726310e-02  7.5016173126226549e-02  7.5049860209441710e-02  7.5058042603334332e-02  7.5039237659486890e-02  7.4991649669814683e-02  7.4913131190411195e-02  7.4801139783753967e-02  7.4652704036966583e-02  7.4464434287611236e-02  7.4232655246283738e-02  7.3953793365121090e-02  7.3625217098460233e-02  7.3246825964805418e-02  7.2823567342498730e-02  7.2369107776644875e-02  7.1909902941959189e-02  7.1486776202516839e-02  7.1149398563321364e-02  7.0941142816433211e-02  7.0875303328195666e-02  1.5170424477156302e-01  7.0891378991951998e-02  3.9123140990173222e-02  3.9518266674493166e-02  4.0269791700635535e-02  4.1368761686582711e-02  4.2729487680216213e-02  4.4245084875713735e-02  4.5823993476782413e-02  4.7404735646375817e-02  4.8953922001330544e-02  5.0455166138342916e-02  5.1897943427906768e-02  5.3271174194250148e-02  5.4561687154972165e-02  5.5755416310729583e-02  5.6839159403570150e-02  5.7801713376192887e-02  5.8634137389140632e-02  5.9329385478215833e-02  5.9881654628692500e-02  6.0285701047155311e-02  6.0536244180688641e-02  6.0627483357852695e-02  6.0552718110392492e-02  6.0304083744344088e-02  5.9872471969864179e-02  5.9247774209472838e-02  5.8419620857771144e-02  5.7378731172894368e-02  5.6118822153057538e-02  5.4638781697345526e-02  5.2944880913195630e-02  5.1053458960264024e-02  4.8995778158849715e-02  4.6828740309574346e-02  4.4650549392269478e-02  4.2614599576347070e-02  4.0920377225986238e-02  3.9750534779475780e-02  3.9117860666933138e-02  7.0875127609442215e-02  7.0966047337976179e-02  3.9495876662582419e-02  4.0337467393420305e-02  4.1639088804379595e-02  4.3475856789424241e-02  4.5694622977347471e-02  4.8145863620086576e-02  5.0753134727216029e-02  5.3500038085161926e-02  5.6373292686145056e-02  5.9319958907084601e-02  6.2248984534315488e-02  6.5061985817127133e-02  6.7683561240832635e-02  7.0074133325085108e-02  7.2225026688200411e-02  7.4143953701805376e-02  7.5839581900164543e-02  7.7310671947795451e-02  7.8541707342999492e-02  7.9504430890845981e-02  8.0163426780254593e-02  8.0483450507640469e-02  8.0436166941950785e-02  8.0004105431332323e-02  7.9180141523966144e-02  7.7962115928505507e-02  7.6344648806911594e-02  7.4313282559399188e-02  7.1847763041942403e-02  6.8938324735183548e-02  6.5610146842020281e-02  6.1940400603961297e-02  5.8052657247807823e-02  5.4092595532919285e-02  5.0214433815146765e-02  4.6617451641081276e-02  4.3578400508766053e-02  4.1363361578944526e-02  3.9757212808338570e-02  7.0938199760062076e-02  7.1108143981326033e-02  4.0184690164988893e-02  4.1665841322497767e-02  4.3459431535412235e-02  4.5751131222101615e-02  4.8405378339184901e-02  5.1403734528493950e-02  5.4788771940036493e-02  5.8507645412647073e-02  6.2365712186919116e-02  6.6109532222071304e-02  6.9547389977179047e-02  7.2621384376511250e-02  7.5405635308229996e-02  7.8051456528462876e-02  8.0714327322145993e-02  8.3491058657096912e-02  8.6382784219588074e-02  8.9287733010599724e-02  9.2019724902719952e-02  9.4344323645168662e-02  9.6023795377661564e-02  9.6862954187428324e-02  9.6748954264753051e-02  9.5677977490191718e-02  9.3760733545624225e-02  9.1198808787200006e-02  8.8228953700042578e-02  8.5045508130880743e-02  8.1729783649073837e-02  7.8226627380880306e-02  7.4395616795355834e-02  7.0121283364703940e-02  6.5420902032439179e-02  6.0472588360324632e-02  5.5551341868959742e-02  5.0954334771388443e-02  4.6975598279056320e-02  4.3901585193159245e-02  4.1018029492845547e-02  7.1140274695430383e-02  7.1274668648234479e-02  4.1133248806024827e-02  4.4112704323461621e-02  4.6907025398359968e-02  4.9969834317003775e-02  5.3556382337256847e-02  5.7819162047827055e-02  6.2450893047595615e-02  6.6903107840323023e-02  7.0767498202871856e-02  7.3990167580356134e-02  7.6867835719506034e-02  7.9905350233744066e-02  8.3629683559484080e-02  8.8427581474014971e-02  9.4441505610059429e-02  1.0153411512307939e-01  1.0931466836384465e-01  1.1720951588402206e-01  1.2455391416712921e-01  1.3068445016961561e-01  1.3501875679284761e-01  1.3711811065025722e-01  1.3673500474993491e-01  1.3384936233595174e-01  1.2869294033491938e-01  1.2175263713237167e-01  1.1373347716200660e-01  1.0545878586345897e-01  9.7699917267434919e-02  9.0967006022990057e-02  8.5343597666818788e-02  8.0468957245819567e-02  7.5728933557877659e-02  7.0589301533954013e-02  6.4909689711445617e-02  5.8995626067188889e-02  5.3399621812194945e-02  4.8665265998432072e-02  4.3261721387641311e-02  7.1497564180495771e-02  7.1528422301451261e-02  4.3690439675354228e-02  5.0840850174360429e-02  5.6889132210835969e-02  6.2411726109988318e-02  6.7544200227547452e-02  7.1827531702709696e-02  7.5054042998277948e-02  7.7588484172353339e-02  8.0297369898525511e-02  8.4277822511648365e-02  9.0501023585178253e-02  9.9524686291211195e-02  1.1137505246767559e-01  1.2559539827909741e-01  1.4139257460774801e-01  1.5780766410573466e-01  1.7386297020770017e-01  1.8866548974690517e-01  2.0146530740327995e-01  2.1167664334667716e-01  2.1887297351009405e-01  2.2276815113930443e-01  2.2319426041838963e-01  2.2008512239631667e-01  2.1347276662975917e-01  2.0350304359238797e-01  1.9047501486665888e-01  1.7490406401812555e-01  1.5759550912336273e-01  1.3968710392042755e-01  1.2258296705090302e-01  1.0768137584057361e-01  9.5900817438588928e-02  8.7181659718567006e-02  8.0414418654642467e-02  7.3916568378141201e-02  6.6524086824962220e-02  5.8224511558058391e-02  4.6910271091892636e-02  7.1871623433049550e-02  7.7784954764215430e-02  6.1014423712897232e-02  8.8415124875950199e-02  1.0173483001375180e-01  1.0900309656687401e-01  1.1377732172462351e-01  1.1847299353853949e-01  1.2551482779328199e-01  1.3650407101816014e-01  1.5189517720349838e-01  1.7111353647327074e-01  1.9291507329975321e-01  2.1583637437950667e-01  2.3855360300698658e-01  2.6006149833122638e-01  2.7969986058381924e-01  2.9710002955057291e-01  3.1210982952307204e-01  3.2472638443541846e-01  3.3504494684213837e-01  3.4322150754281311e-01  3.4944374752328766e-01  3.5390495177855413e-01  3.5677646761379478e-01  3.5817521972027583e-01  3.5812369926348298e-01  3.5650124895516616e-01  3.5298808933572529e-01  3.4700817348238749e-01  3.3768379408757476e-01  3.2382559016620460e-01  3.0400650379634958e-01  2.7680913372284682e-01  2.4149719459782584e-01  1.9923399978540171e-01  1.5494097445650590e-01  1.1700451298883935e-01  9.3209312603905192e-02  8.0071875398601750e-02  5.9625785711533631e-02  7.3511855567059831e-02  8.9448945923936285e-01  9.9637556870284494e-01  9.7750829274361073e-01  9.5092157925067144e-01  9.1482659948013700e-01  8.5883083270083671e-01  7.8223255461968244e-01  7.0429159416188158e-01  6.4273416621895607e-01  6.0118083885419271e-01  5.7504464715209003e-01  5.5846900762866236e-01  5.4705189029725931e-01  5.3814675006072010e-01  5.3041298501906942e-01  5.2331506243471559e-01  5.1675917708864028e-01  5.1087238789675049e-01  5.0588470612901981e-01  5.0207457120446275e-01  4.9974758617732268e-01  4.9922742743477333e-01  5.0084428831695826e-01  5.0490986581245423e-01  5.1166984833594698e-01  5.2122801406234909e-01  5.3344582075195301e-01  5.4784403495516310e-01  5.6356606904103457e-01  5.7947607677891733e-01  5.9440313061593697e-01  6.0738704442222846e-01  6.1763921457914095e-01  6.2393744108346261e-01  6.2308470123381154e-01  6.0795102236067899e-01  5.6494722344377279e-01  4.9105342513501360e-01  3.7401086078788315e-01  1.9780087415102982e-01  1.0467382274151200e-01  9.8928332205217084e-01  9.9170591064362923e-01  9.9101730496029017e-01  9.7600105350478450e-01  9.5998594786552160e-01  9.4480116965211780e-01  9.3902592072355262e-01  9.4229227553612149e-01  9.4156873997611257e-01  9.2881498776901794e-01  9.0580404375336987e-01  8.7732439583641608e-01  8.4670212211793661e-01  8.1547716153696359e-01  7.8435332117841683e-01  7.5391292043441382e-01  7.2488074630536292e-01  6.9810710294142431e-01  6.7445615329523290e-01  6.5471241772836508e-01  6.3954109937904136e-01  6.2948787200813272e-01  6.2498466837895406e-01  6.2632812691041295e-01  6.3360669876086839e-01  6.4657339028430405e-01  6.6450728798164127e-01  6.8618175197607578e-01  7.1010460154365795e-01  7.3508427517835495e-01  7.6086489513446431e-01  7.8834122524493688e-01  8.1901215550029571e-01  8.5346179891981078e-01  8.8857330590752337e-01  9.1527886022014315e-01  9.2387897066100333e-01  9.2107897977011077e-01  9.2580549905664355e-01  9.3031688272340585e-01  9.2462921176335311e-01  9.9092678748751206e-01  9.9477185614313168e-01  9.9151866479652984e-01  9.8543125482929328e-01  9.7938374635749237e-01  9.7679805201147729e-01  9.6714323821133252e-01  9.5323905468995551e-01  9.4953905869565836e-01  9.5609701429147465e-01  9.6354064212106960e-01  9.6456396233489650e-01  9.5668258737145939e-01  9.4034054582565962e-01  9.1702002146753214e-01  8.8846847951981500e-01  8.5658093005043112e-01  8.2340507159823784e-01  7.9104899089875857e-01  7.6150802522387606e-01  7.3650476495413897e-01  7.1740039007694500e-01  7.0516886532303436e-01  7.0038396935648262e-01  7.0316741228857149e-01  7.1308418292012332e-01  7.2905311423406483e-01  7.4944581995121662e-01  7.7255843052562800e-01  7.9738205266367901e-01  8.2416182646465508e-01  8.5413068127603720e-01  8.8815133976094085e-01  9.2402108115995252e-01  9.5282157085521035e-01  9.6085125861290344e-01  9.4728277049093135e-01  9.3376619549074524e-01  9.3923385600515719e-01  9.5724498383239831e-01  9.3901719636225311e-01  9.9294304991390492e-01  9.9497797373916763e-01  9.9399851602698264e-01  9.8989444441382846e-01  9.8329511954487736e-01  9.7997509470292121e-01  9.8222019884889855e-01  9.7455089754827207e-01  9.6079812122345676e-01  9.5559009338917278e-01  9.6176575471691328e-01  9.7246977990580064e-01  9.7976426815741946e-01  9.7887259243547353e-01  9.6833158280398357e-01  9.4874560948090991e-01  9.2176512295692370e-01  8.8959138027238827e-01  8.5475153054456066e-01  8.1989890341283367e-01  7.8757436020091842e-01  7.5998398129869682e-01  7.3885244724827104e-01  7.2535324999215844e-01  7.2006823882056747e-01  7.2293121002564664e-01  7.3317609856816324e-01  7.4942191163062355e-01  7.7008156450518639e-01  7.9409133726517556e-01  8.2152123504599317e-01  8.5339098620028753e-01  8.9022092326867530e-01  9.2887903172784947e-01  9.5832943721938668e-01  9.6307622624000921e-01  9.4611682276458253e-01  9.3578575979185930e-01  9.4656312649377028e-01  9.6508781258097887e-01  9.4729722414259498e-01  9.8895506308080894e-01  9.9524348767072879e-01  9.9327087805545200e-01  9.8852887911317400e-01  9.8258885164521437e-01  9.7860571110432604e-01  9.8158370395709060e-01  9.8039005345136820e-01  9.6917466092399884e-01  9.5931265681766409e-01  9.6005618785106672e-01  9.7001790302809998e-01  9.8176385267922539e-01  9.8804106129391422e-01  9.8474691551384486e-01  9.7086228481508519e-01  9.4727559225874458e-01  9.1582931515073840e-01  8.7886587500880142e-01  8.3903569702516834e-01  7.9911984901735167e-01  7.6179266258060019e-01  7.2938256534881019e-01  7.0370843662623439e-01  6.8601181500935771e-01  6.7694680928495632e-01  6.7658065663914613e-01  6.8441285897791493e-01  6.9951399489619592e-01  7.2091719551506983e-01  7.4821972124338576e-01  7.8199648573808844e-01  8.2335475056102048e-01  8.7170854704713996e-01  9.1973679421477239e-01  9.4940676218407749e-01  9.4739857668415350e-01  9.3288734949512531e-01  9.3560827827053106e-01  9.5418281909976510e-01  9.4293446528122438e-01  9.7350789233347379e-01  9.9000615827556637e-01  9.8885017825640376e-01  9.8184971682042532e-01  9.7594000425894123e-01  9.7306829265128703e-01  9.7413406262375379e-01  9.7260311141159195e-01  9.6506087320103662e-01  9.5843806888313543e-01  9.6005520283507162e-01  9.6991791870369781e-01  9.8203053203767865e-01  9.8928083223900398e-01  9.8693529600198482e-01  9.7331103049844714e-01  9.4880760401727171e-01  9.1483227469444572e-01  8.7325569872023534e-01  8.2629215606697515e-01  7.7648056608252136e-01  7.2655034209644787e-01  6.7915361831815824e-01  6.3657806545653817e-01  6.0056305909845098e-01  5.7226479095736271e-01  5.5233387396760603e-01  5.4103427811689608e-01  5.3835073541649991e-01  5.4408683416678860e-01  5.5802020341828273e-01  5.8019568027196466e-01  6.1132074577118567e-01  6.5292461779195876e-01  7.0636761500112943e-01  7.6904630257025275e-01  8.2901970566361038e-01  8.7195950512672837e-01  9.0897919458777254e-01  9.2978756710342025e-01  9.4463456735749596e-01  4.2200087247966539e-01  9.5513251327870297e-01  9.6400249855313302e-01  9.5947535633880854e-01  9.5544489978764646e-01  9.5385724179092868e-01  9.5404630644293509e-01  9.5373183152030394e-01  9.5267961714025118e-01  9.5432923655310853e-01  9.6149758442465916e-01  9.7264723688944565e-01  9.8262501078939024e-01  9.8585250503526556e-01  9.7875463414920660e-01  9.6014575838128291e-01  9.3035970888062236e-01  8.9034222913877659e-01  8.4127222485679398e-01  7.8464664591108435e-01  7.2250456266756691e-01  6.5748250191995627e-01  5.9256695064340703e-01  5.3063183079308540e-01  4.7398268454513526e-01  4.2409848277866696e-01  3.8162303270933323e-01  3.4653208204043068e-01  3.1835673935561098e-01  2.9636564675784827e-01  2.7965752142643074e-01  2.6716918436603121e-01  2.5765037019748072e-01  2.4965610689328055e-01  2.4150512453144818e-01  2.3096228438817992e-01  2.1463901347727507e-01  1.8927427844492409e-01  1.6344455290688964e-01  1.0087446380103413e-01  1.6468626174888318e-01  7.6920197528905776e-02  9.2918058995869954e-02  7.7962900934422719e-01  9.1065503222621946e-01  9.1306478419566495e-01  9.1927292696998908e-01  9.2708864210370356e-01  9.3533913442514915e-01  9.4403476449186652e-01  9.5378918667445634e-01  9.6415578575254290e-01  9.7260200311774303e-01  9.7541648798966718e-01  9.6944045027656589e-01  9.5302826934775520e-01  9.2584060049981787e-01  8.8812337797314778e-01  8.4018935704996767e-01  7.8239200716726909e-01  7.1551527622823219e-01  6.4129658461848227e-01  5.6271260558738279e-01  4.8373945223404191e-01  4.0859291417960664e-01  3.4079780435220364e-01  2.8253887058216753e-01  2.3452509675190597e-01  1.9628075241746437e-01  1.6661361762655261e-01  1.4404295971638942e-01  1.2708520637603568e-01  1.1439384433258065e-01  1.0480127688850245e-01  9.7320293638554059e-02  9.1142885797475079e-02  8.5629724835169202e-02  8.0230544323705591e-02  7.4229834378344711e-02  6.6338097423896569e-02  5.3494029241257408e-02  7.5343985231772354e-02  7.3692074751842807e-02  5.7880550224920405e-02  8.6754044065471686e-02  2.6917816568712538e-01  6.2191021114089673e-01  8.0514796112762732e-01  8.7283351056253189e-01  9.0465601828259423e-01  9.2408942193098753e-01  9.3695112848682149e-01  9.4399237325056773e-01  9.4422876159406788e-01  9.3638423589795106e-01  9.1964974301444924e-01  8.9377418319083279e-01  8.5872902295128006e-01  8.1435846968042225e-01  7.6031152726582096e-01  6.9636493016353018e-01  6.2307897252963906e-01  5.4253147216961772e-01  4.5867234507949944e-01  3.7685312779967040e-01  3.0252502837441148e-01  2.3973331960584482e-01  1.9023261279193612e-01  1.5356505412094434e-01  1.2780120573234410e-01  1.1041067689304579e-01  9.8907717245300356e-02  9.1186034911650768e-02  8.5614777067553244e-02  8.1006024787313127e-02  7.6543908117150894e-02  7.1729158089711975e-02  6.6351467617544707e-02  6.0469102718636675e-02  5.4390524753220898e-02  4.8740642772977488e-02  4.3580323354559233e-02  7.1615530145223510e-02  7.3614540086953117e-02  5.2647832881531575e-02  6.9148125173933137e-02  6.9570207307283721e-02  1.1683846341936358e-01  2.8426739957124680e-01  4.9883265284331330e-01  6.5670487889508089e-01  7.4911629245478539e-01  7.9910114861250980e-01  8.2314388674610484e-01  8.2987489309621021e-01  8.2370840210764640e-01  8.0701731013632738e-01  7.8104709067043365e-01  7.4626200987281532e-01  7.0256351081947244e-01  6.4961944870225463e-01  5.8741387737371964e-01  5.1698445186769337e-01  4.4109054923842728e-01  3.6433640329527200e-01  2.9235213476088651e-01  2.3020873298901190e-01  1.8091409791030422e-01  1.4484929026204199e-01  1.2028032083793173e-01  1.0440209436649391e-01  9.4296321535230460e-02  8.7511550753453515e-02  8.2277789438294141e-02  7.7488861603373427e-02  7.2579123632144596e-02  6.7374579477571528e-02  6.1955221921673895e-02  5.6537520829972383e-02  5.1389305305208813e-02  4.6822791280316828e-02  4.3274093080068236e-02  4.0762129303846123e-02  7.1232924776292783e-02  7.3495793874242071e-02  5.1194031226726999e-02  6.3417008675922926e-02  6.8820781527389338e-02  7.0730607157198422e-02  9.0318048410759993e-02  1.5106786200490888e-01  2.5300566815624415e-01  3.6873926270650037e-01  4.6915601971381199e-01  5.4169063269305340e-01  5.8686514536119905e-01  6.0968675921517568e-01  6.1508620123180080e-01  6.0661893991467419e-01  5.8647491344576208e-01  5.5587473807251953e-01  5.1559535167619375e-01  4.6658005695472515e-01  4.1056514028527991e-01  3.5051854358528256e-01  2.9057837279305132e-01  2.3530403525347277e-01  1.8847404719287789e-01  1.5206392400145380e-01  1.2596284857626516e-01  1.0846646209553169e-01  9.7133837848373913e-02  8.9558196387228700e-02  8.3832392932808281e-02  7.8710529717632441e-02  7.3561426915208949e-02  6.8213165219456973e-02  6.2763560055046963e-02  5.7412446901135034e-02  5.2360051945682586e-02  4.7800426275719496e-02  4.3985914012577149e-02  4.1241179120036976e-02  3.9694260614153959e-02  7.1005099736866473e-02  7.3422772814556531e-02  5.0862711141943746e-02  6.0774430587951331e-02  6.7057795237671913e-02  7.1677329661873512e-02  7.6381133000578513e-02  8.6341200376347182e-02  1.0831427683164072e-01  1.4679347156299422e-01  1.9974519027268850e-01  2.5862486586123024e-01  3.1333264285275775e-01  3.5690729662106474e-01  3.8653765039581045e-01  4.0216819154414696e-01  4.0491252125561633e-01  3.9614940415057920e-01  3.7725920306754129e-01  3.4974059707722815e-01  3.1547452129144565e-01  2.7693061912234673e-01  2.3713142623451622e-01  1.9927621215670965e-01  1.6611269344138163e-01  1.3933366736117947e-01  1.1929910809645046e-01  1.0519723543722836e-01  9.5515722439246761e-02  8.8581450809283674e-02  8.2975896975501437e-02  7.7748037272527756e-02  7.2437701176597313e-02  6.6966867226580393e-02  6.1472561852771279e-02  5.6157760993172545e-02  5.1218689305427938e-02  4.6858145394922446e-02  4.3319678444640075e-02  4.0857758891621423e-02  3.9489411240896027e-02  7.0974167264380827e-02  7.3321038370275510e-02  5.0477386668667454e-02  5.9144590152963000e-02  6.4220184201661756e-02  6.9268967956944566e-02  7.4063774701401575e-02  7.8810095396703833e-02  8.4678283741754401e-02  9.3821875637164792e-02  1.0855950551223578e-01  1.2996165948943317e-01  1.5680776947035044e-01  1.8585964739562061e-01  2.1321600608974553e-01  2.3563934040649553e-01  2.5112932155763396e-01  2.5883849206223181e-01  2.5875377066427302e-01  2.5143365980877230e-01  2.3787829310403663e-01  2.1948442723618181e-01  1.9799615548210397e-01  1.7537315550325153e-01  1.5354738456383682e-01  1.3411122552603416e-01  1.1804114030271673e-01  1.0556944345697408e-01  9.6259338125887925e-02  8.9248747347636451e-02  8.3562630555834877e-02  7.8383365616885733e-02  7.3205275112642951e-02  6.7854193742846958e-02  6.2404127576339716e-02  5.7057710806801810e-02  5.2059078851030366e-02  4.7665948935807584e-02  4.4138493438315149e-02  4.1680040992879093e-02  4.0001632995007891e-02  7.1105901563297297e-02  7.3187576421508249e-02  4.9942261548038283e-02  5.7815385425106718e-02  6.1690161725350953e-02  6.5725392329695514e-02  6.9990908813299918e-02  7.4252518073356616e-02  7.8350601985954324e-02  8.249857059