<?xml version="1.0"?>
<VTKFile type="UnstructuredGrid"  version="0.1"  >
<UnstructuredGrid>
<Piece  NumberOfPoints="1681" NumberOfCells="3200">
<Points>
<DataArray  type="Float64"  NumberOfComponents="3"  format="ascii">0 0 0  0.025 0 0  0.05 0 0  0.075 0 0  0.1 0 0  0.125 0 0  0.15 0 0  0.175 0 0  0.2 0 0  0.225 0 0  0.25 0 0  0.275 0 0  0.3 0 0  0.325 0 0  0.35 0 0  0.375 0 0  0.4 0 0  0.425 0 0  0.45 0 0  0.475 0 0  0.5 0 0  0.525 0 0  0.55 0 0  0.575 0 0  0.6 0 0  0.625 0 0  0.65 0 0  0.675 0 0  0.7 0 0  0.725 0 0  0.75 0 0  0.775 0 0  0.8 0 0  0.825 0 0  0.85 0 0  0.875 0 0  0.9 0 0  0.925 0 0  0.95 0 0  0.975 0 0  1 0 0  0 0.025 0  0.025 0.025 0  0.05 0.025 0  0.075 0.025 0  0.1 0.025 0  0.125 0.025 0  0.15 0.025 0  0.175 0.025 0  0.2 0.025 0  0.225 0.025 0  0.25 0.025 0  0.275 0.025 0  0.3 0.025 0  0.325 0.025 0  0.35 0.025 0  0.375 0.025 0  0.4 0.025 0  0.425 0.025 0  0.45 0.025 0  0.475 0.025 0  0.5 0.025 0  0.525 0.025 0  0.55 0.025 0  0.575 0.025 0  0.6 0.025 0  0.625 0.025 0  0.65 0.025 0  0.675 0.025 0  0.7 0.025 0  0.725 0.025 0  0.75 0.025 0  0.775 0.025 0  0.8 0.025 0  0.825 0.025 0  0.85 0.025 0  0.875 0.025 0  0.9 0.025 0  0.925 0.025 0  0.95 0.025 0  0.975 0.025 0  1 0.025 0  0 0.05 0  0.025 0.05 0  0.05 0.05 0  0.075 0.05 0  0.1 0.05 0  0.125 0.05 0  0.15 0.05 0  0.175 0.05 0  0.2 0.05 0  0.225 0.05 0  0.25 0.05 0  0.275 0.05 0  0.3 0.05 0  0.325 0.05 0  0.35 0.05 0  0.375 0.05 0  0.4 0.05 0  0.425 0.05 0  0.45 0.05 0  0.475 0.05 0  0.5 0.05 0  0.525 0.05 0  0.55 0.05 0  0.575 0.05 0  0.6 0.05 0  0.625 0.05 0  0.65 0.05 0  0.675 0.05 0  0.7 0.05 0  0.725 0.05 0  0.75 0.05 0  0.775 0.05 0  0.8 0.05 0  0.825 0.05 0  0.85 0.05 0  0.875 0.05 0  0.9 0.05 0  0.925 0.05 0  0.95 0.05 0  0.975 0.05 0  1 0.05 0  0 0.075 0  0.025 0.075 0  0.05 0.075 0  0.075 0.075 0  0.1 0.075 0  0.125 0.075 0  0.15 0.075 0  0.175 0.075 0  0.2 0.075 0  0.225 0.075 0  0.25 0.075 0  0.275 0.075 0  0.3 0.075 0  0.325 0.075 0  0.35 0.075 0  0.375 0.075 0  0.4 0.075 0  0.425 0.075 0  0.45 0.075 0  0.475 0.075 0  0.5 0.075 0  0.525 0.075 0  0.55 0.075 0  0.575 0.075 0  0.6 0.075 0  0.625 0.075 0  0.65 0.075 0  0.675 0.075 0  0.7 0.075 0  0.725 0.075 0  0.75 0.075 0  0.775 0.075 0  0.8 0.075 0  0.825 0.075 0  0.85 0.075 0  0.875 0.075 0  0.9 0.075 0  0.925 0.075 0  0.95 0.075 0  0.975 0.075 0  1 0.075 0  0 0.1 0  0.025 0.1 0  0.05 0.1 0  0.075 0.1 0  0.1 0.1 0  0.125 0.1 0  0.15 0.1 0  0.175 0.1 0  0.2 0.1 0  0.225 0.1 0  0.25 0.1 0  0.275 0.1 0  0.3 0.1 0  0.325 0.1 0  0.35 0.1 0  0.375 0.1 0  0.4 0.1 0  0.425 0.1 0  0.45 0.1 0  0.475 0.1 0  0.5 0.1 0  0.525 0.1 0  0.55 0.1 0  0.575 0.1 0  0.6 0.1 0  0.625 0.1 0  0.65 0.1 0  0.675 0.1 0  0.7 0.1 0  0.725 0.1 0  0.75 0.1 0  0.775 0.1 0  0.8 0.1 0  0.825 0.1 0  0.85 0.1 0  0.875 0.1 0  0.9 0.1 0  0.925 0.1 0  0.95 0.1 0  0.975 0.1 0  1 0.1 0  0 0.125 0  0.025 0.125 0  0.05 0.125 0  0.075 0.125 0  0.1 0.125 0  0.125 0.125 0  0.15 0.125 0  0.175 0.125 0  0.2 0.125 0  0.225 0.125 0  0.25 0.125 0  0.275 0.125 0  0.3 0.125 0  0.325 0.125 0  0.35 0.125 0  0.375 0.125 0  0.4 0.125 0  0.425 0.125 0  0.45 0.125 0  0.475 0.125 0  0.5 0.125 0  0.525 0.125 0  0.55 0.125 0  0.575 0.125 0  0.6 0.125 0  0.625 0.125 0  0.65 0.125 0  0.675 0.125 0  0.7 0.125 0  0.725 0.125 0  0.75 0.125 0  0.775 0.125 0  0.8 0.125 0  0.825 0.125 0  0.85 0.125 0  0.875 0.125 0  0.9 0.125 0  0.925 0.125 0  0.95 0.125 0  0.975 0.125 0  1 0.125 0  0 0.15 0  0.025 0.15 0  0.05 0.15 0  0.075 0.15 0  0.1 0.15 0  0.125 0.15 0  0.15 0.15 0  0.175 0.15 0  0.2 0.15 0  0.225 0.15 0  0.25 0.15 0  0.275 0.15 0  0.3 0.15 0  0.325 0.15 0  0.35 0.15 0  0.375 0.15 0  0.4 0.15 0  0.425 0.15 0  0.45 0.15 0  0.475 0.15 0  0.5 0.15 0  0.525 0.15 0  0.55 0.15 0  0.575 0.15 0  0.6 0.15 0  0.625 0.15 0  0.65 0.15 0  0.675 0.15 0  0.7 0.15 0  0.725 0.15 0  0.75 0.15 0  0.775 0.15 0  0.8 0.15 0  0.825 0.15 0  0.85 0.15 0  0.875 0.15 0  0.9 0.15 0  0.925 0.15 0  0.95 0.15 0  0.975 0.15 0  1 0.15 0  0 0.175 0  0.025 0.175 0  0.05 0.175 0  0.075 0.175 0  0.1 0.175 0  0.125 0.175 0  0.15 0.175 0  0.175 0.175 0  0.2 0.175 0  0.225 0.175 0  0.25 0.175 0  0.275 0.175 0  0.3 0.175 0  0.325 0.175 0  0.35 0.175 0  0.375 0.175 0  0.4 0.175 0  0.425 0.175 0  0.45 0.175 0  0.475 0.175 0  0.5 0.175 0  0.525 0.175 0  0.55 0.175 0  0.575 0.175 0  0.6 0.175 0  0.625 0.175 0  0.65 0.175 0  0.675 0.175 0  0.7 0.175 0  0.725 0.175 0  0.75 0.175 0  0.775 0.175 0  0.8 0.175 0  0.825 0.175 0  0.85 0.175 0  0.875 0.175 0  0.9 0.175 0  0.925 0.175 0  0.95 0.175 0  0.975 0.175 0  1 0.175 0  0 0.2 0  0.025 0.2 0  0.05 0.2 0  0.075 0.2 0  0.1 0.2 0  0.125 0.2 0  0.15 0.2 0  0.175 0.2 0  0.2 0.2 0  0.225 0.2 0  0.25 0.2 0  0.275 0.2 0  0.3 0.2 0  0.325 0.2 0  0.35 0.2 0  0.375 0.2 0  0.4 0.2 0  0.425 0.2 0  0.45 0.2 0  0.475 0.2 0  0.5 0.2 0  0.525 0.2 0  0.55 0.2 0  0.575 0.2 0  0.6 0.2 0  0.625 0.2 0  0.65 0.2 0  0.675 0.2 0  0.7 0.2 0  0.725 0.2 0  0.75 0.2 0  0.775 0.2 0  0.8 0.2 0  0.825 0.2 0  0.85 0.2 0  0.875 0.2 0  0.9 0.2 0  0.925 0.2 0  0.95 0.2 0  0.975 0.2 0  1 0.2 0  0 0.225 0  0.025 0.225 0  0.05 0.225 0  0.075 0.225 0  0.1 0.225 0  0.125 0.225 0  0.15 0.225 0  0.175 0.225 0  0.2 0.225 0  0.225 0.225 0  0.25 0.225 0  0.275 0.225 0  0.3 0.225 0  0.325 0.225 0  0.35 0.225 0  0.375 0.225 0  0.4 0.225 0  0.425 0.225 0  0.45 0.225 0  0.475 0.225 0  0.5 0.225 0  0.525 0.225 0  0.55 0.225 0  0.575 0.225 0  0.6 0.225 0  0.625 0.225 0  0.65 0.225 0  0.675 0.225 0  0.7 0.225 0  0.725 0.225 0  0.75 0.225 0  0.775 0.225 0  0.8 0.225 0  0.825 0.225 0  0.85 0.225 0  0.875 0.225 0  0.9 0.225 0  0.925 0.225 0  0.95 0.225 0  0.975 0.225 0  1 0.225 0  0 0.25 0  0.025 0.25 0  0.05 0.25 0  0.075 0.25 0  0.1 0.25 0  0.125 0.25 0  0.15 0.25 0  0.175 0.25 0  0.2 0.25 0  0.225 0.25 0  0.25 0.25 0  0.275 0.25 0  0.3 0.25 0  0.325 0.25 0  0.35 0.25 0  0.375 0.25 0  0.4 0.25 0  0.425 0.25 0  0.45 0.25 0  0.475 0.25 0  0.5 0.25 0  0.525 0.25 0  0.55 0.25 0  0.575 0.25 0  0.6 0.25 0  0.625 0.25 0  0.65 0.25 0  0.675 0.25 0  0.7 0.25 0  0.725 0.25 0  0.75 0.25 0  0.775 0.25 0  0.8 0.25 0  0.825 0.25 0  0.85 0.25 0  0.875 0.25 0  0.9 0.25 0  0.925 0.25 0  0.95 0.25 0  0.975 0.25 0  1 0.25 0  0 0.275 0  0.025 0.275 0  0.05 0.275 0  0.075 0.275 0  0.1 0.275 0  0.125 0.275 0  0.15 0.275 0  0.175 0.275 0  0.2 0.275 0  0.225 0.275 0  0.25 0.275 0  0.275 0.275 0  0.3 0.275 0  0.325 0.275 0  0.35 0.275 0  0.375 0.275 0  0.4 0.275 0  0.425 0.275 0  0.45 0.275 0  0.475 0.275 0  0.5 0.275 0  0.525 0.275 0  0.55 0.275 0  0.575 0.275 0  0.6 0.275 0  0.625 0.275 0  0.65 0.275 0  0.675 0.275 0  0.7 0.275 0  0.725 0.275 0  0.75 0.275 0  0.775 0.275 0  0.8 0.275 0  0.825 0.275 0  0.85 0.275 0  0.875 0.275 0  0.9 0.275 0  0.925 0.275 0  0.95 0.275 0  0.975 0.275 0  1 0.275 0  0 0.3 0  0.025 0.3 0  0.05 0.3 0  0.075 0.3 0  0.1 0.3 0  0.125 0.3 0  0.15 0.3 0  0.175 0.3 0  0.2 0.3 0  0.225 0.3 0  0.25 0.3 0  0.275 0.3 0  0.3 0.3 0  0.325 0.3 0  0.35 0.3 0  0.375 0.3 0  0.4 0.3 0  0.425 0.3 0  0.45 0.3 0  0.475 0.3 0  0.5 0.3 0  0.525 0.3 0  0.55 0.3 0  0.575 0.3 0  0.6 0.3 0  0.625 0.3 0  0.65 0.3 0  0.675 0.3 0  0.7 0.3 0  0.725 0.3 0  0.75 0.3 0  0.775 0.3 0  0.8 0.3 0  0.825 0.3 0  0.85 0.3 0  0.875 0.3 0  0.9 0.3 0  0.925 0.3 0  0.95 0.3 0  0.975 0.3 0  1 0.3 0  0 0.325 0  0.025 0.325 0  0.05 0.325 0  0.075 0.325 0  0.1 0.325 0  0.125 0.325 0  0.15 0.325 0  0.175 0.325 0  0.2 0.325 0  0.225 0.325 0  0.25 0.325 0  0.275 0.325 0  0.3 0.325 0  0.325 0.325 0  0.35 0.325 0  0.375 0.325 0  0.4 0.325 0  0.425 0.325 0  0.45 0.325 0  0.475 0.325 0  0.5 0.325 0  0.525 0.325 0  0.55 0.325 0  0.575 0.325 0  0.6 0.325 0  0.625 0.325 0  0.65 0.325 0  0.675 0.325 0  0.7 0.325 0  0.725 0.325 0  0.75 0.325 0  0.775 0.325 0  0.8 0.325 0  0.825 0.325 0  0.85 0.325 0  0.875 0.325 0  0.9 0.325 0  0.925 0.325 0  0.95 0.325 0  0.975 0.325 0  1 0.325 0  0 0.35 0  0.025 0.35 0  0.05 0.35 0  0.075 0.35 0  0.1 0.35 0  0.125 0.35 0  0.15 0.35 0  0.175 0.35 0  0.2 0.35 0  0.225 0.35 0  0.25 0.35 0  0.275 0.35 0  0.3 0.35 0  0.325 0.35 0  0.35 0.35 0  0.375 0.35 0  0.4 0.35 0  0.425 0.35 0  0.45 0.35 0  0.475 0.35 0  0.5 0.35 0  0.525 0.35 0  0.55 0.35 0  0.575 0.35 0  0.6 0.35 0  0.625 0.35 0  0.65 0.35 0  0.675 0.35 0  0.7 0.35 0  0.725 0.35 0  0.75 0.35 0  0.775 0.35 0  0.8 0.35 0  0.825 0.35 0  0.85 0.35 0  0.875 0.35 0  0.9 0.35 0  0.925 0.35 0  0.95 0.35 0  0.975 0.35 0  1 0.35 0  0 0.375 0  0.025 0.375 0  0.05 0.375 0  0.075 0.375 0  0.1 0.375 0  0.125 0.375 0  0.15 0.375 0  0.175 0.375 0  0.2 0.375 0  0.225 0.375 0  0.25 0.375 0  0.275 0.375 0  0.3 0.375 0  0.325 0.375 0  0.35 0.375 0  0.375 0.375 0  0.4 0.375 0  0.425 0.375 0  0.45 0.375 0  0.475 0.375 0  0.5 0.375 0  0.525 0.375 0  0.55 0.375 0  0.575 0.375 0  0.6 0.375 0  0.625 0.375 0  0.65 0.375 0  0.675 0.375 0  0.7 0.375 0  0.725 0.375 0  0.75 0.375 0  0.775 0.375 0  0.8 0.375 0  0.825 0.375 0  0.85 0.375 0  0.875 0.375 0  0.9 0.375 0  0.925 0.375 0  0.95 0.375 0  0.975 0.375 0  1 0.375 0  0 0.4 0  0.025 0.4 0  0.05 0.4 0  0.075 0.4 0  0.1 0.4 0  0.125 0.4 0  0.15 0.4 0  0.175 0.4 0  0.2 0.4 0  0.225 0.4 0  0.25 0.4 0  0.275 0.4 0  0.3 0.4 0  0.325 0.4 0  0.35 0.4 0  0.375 0.4 0  0.4 0.4 0  0.425 0.4 0  0.45 0.4 0  0.475 0.4 0  0.5 0.4 0  0.525 0.4 0  0.55 0.4 0  0.575 0.4 0  0.6 0.4 0  0.625 0.4 0  0.65 0.4 0  0.675 0.4 0  0.7 0.4 0  0.725 0.4 0  0.75 0.4 0  0.775 0.4 0  0.8 0.4 0  0.825 0.4 0  0.85 0.4 0  0.875 0.4 0  0.9 0.4 0  0.925 0.4 0  0.95 0.4 0  0.975 0.4 0  1 0.4 0  0 0.425 0  0.025 0.425 0  0.05 0.425 0  0.075 0.425 0  0.1 0.425 0  0.125 0.425 0  0.15 0.425 0  0.175 0.425 0  0.2 0.425 0  0.225 0.425 0  0.25 0.425 0  0.275 0.425 0  0.3 0.425 0  0.325 0.425 0  0.35 0.425 0  0.375 0.425 0  0.4 0.425 0  0.425 0.425 0  0.45 0.425 0  0.475 0.425 0  0.5 0.425 0  0.525 0.425 0  0.55 0.425 0  0.575 0.425 0  0.6 0.425 0  0.625 0.425 0  0.65 0.425 0  0.675 0.425 0  0.7 0.425 0  0.725 0.425 0  0.75 0.425 0  0.775 0.425 0  0.8 0.425 0  0.825 0.425 0  0.85 0.425 0  0.875 0.425 0  0.9 0.425 0  0.925 0.425 0  0.95 0.425 0  0.975 0.425 0  1 0.425 0  0 0.45 0  0.02
[...]
<PointData  Scalars="ControlVisualisation"> 
<DataArray  type="Float64"  Name="ControlVisualisation"  format="ascii">1.9545512070826815e-01  1.2099908462336322e-01  1.2160312742324338e-01  1.2263083037974290e-01  1.2391153031128067e-01  1.2527104077077653e-01  1.2656799437806487e-01  1.2771455814992883e-01  1.2867009971252172e-01  1.2942552007945396e-01  1.2998921035473274e-01  1.3037771164047710e-01  1.3061043655240503e-01  1.3070694577398326e-01  1.3068563816523943e-01  1.3056318313756432e-01  1.3035434207105884e-01  1.3007199958070914e-01  1.2972731188067343e-01  1.2932992132690843e-01  1.2888820692491426e-01  1.2840955108242680e-01  1.2790060835697381e-01  1.2736756473112840e-01  1.2681637722551525e-01  1.2625298416098776e-01  1.2568347661414386e-01  1.2511422206777439e-01  1.2455193230328584e-01  1.2400366965302688e-01  1.2347678904125317e-01  1.2297881738664623e-01  1.2251727872244011e-01  1.2209947281479666e-01  1.2173224180244452e-01  1.2142168289028839e-01  1.2117306663767957e-01  1.2099019800739010e-01  1.2087610927949523e-01  1.2083170956551846e-01  3.0902151671716338e-01  1.2100074465076126e-01  5.2255912288217687e-02  5.3411752218788765e-02  5.5343448528084940e-02  5.7901759007450558e-02  6.0813573776317922e-02  6.3800062965735788e-02  6.6635447377592222e-02  6.9165065587664776e-02  7.1299550421633134e-02  7.2998812636930144e-02  7.4256660820559858e-02  7.5089177726487044e-02  7.5526511610213121e-02  7.5607052585927426e-02  7.5373209746525491e-02  7.4868351611632286e-02  7.4134672316845562e-02  7.3211821602889193e-02  7.2136154117770163e-02  7.0940456174891309e-02  6.9654014326151731e-02  6.8302903922910690e-02  6.6910395332132000e-02  6.5497397389993675e-02  6.4082879302491708e-02  6.2684231826065542e-02  6.1317545407803736e-02  5.9997796830946894e-02  5.8738946875362477e-02  5.7553959803558145e-02  5.6454761012910498e-02  5.5452153547553083e-02  5.4555710058133089e-02  5.3773678133811023e-02  5.3112855887598828e-02  5.2578634826372581e-02  5.2174661580455840e-02  5.1903395836003757e-02  5.1743997900935514e-02  1.2083170849644434e-01  1.2164093029615329e-01  5.3496007741087093e-02  5.5538449372241991e-02  5.8448045546890801e-02  6.2401274555674714e-02  6.7011767724875465e-02  7.1867011659638644e-02  7.6601159721622125e-02  8.0929648471679383e-02  8.4654034748178675e-02  8.7653502277543149e-02  8.9873136715239527e-02  9.1311217278079712e-02  9.2006276059264980e-02  9.2024641932260148e-02  9.1449287870975227e-02  9.0370613680398781e-02  8.8879444964782284e-02  8.7062198212344982e-02  8.4997935543803402e-02  8.2756921416637888e-02  8.0400273233500089e-02  7.7980335584060603e-02  7.5541474768254457e-02  7.3121065048648279e-02  7.0750507852624711e-02  6.8456183409699001e-02  6.6260279393238419e-02  6.4181473981377940e-02  6.2235473410251353e-02  6.0435418960229609e-02  5.8792186741412941e-02  5.7314609333418795e-02  5.6009642702289517e-02  5.4882527223419859e-02  5.3936872526937102e-02  5.3175059754620196e-02  5.2597842149554638e-02  5.2204853066830745e-02  5.1903867065054385e-02  1.2087620280865218e-01  1.2288195171771579e-01  5.5899345155837325e-02  5.9232994998433944e-02  6.2886024618738573e-02  6.7642919496829462e-02  7.2964706933019541e-02  7.8362994977475758e-02  8.3449620266483962e-02  8.7947338600886688e-02  9.1678633318600405e-02  9.4548569119308395e-02  9.6528048251199011e-02  9.7639140948478489e-02  9.7941992536268313e-02  9.7522720747391739e-02  9.6482434602758682e-02  9.4927870854559976e-02  9.2964074439198408e-02  9.0689263644212856e-02  8.8191726846542612e-02  8.5548401446220862e-02  8.2824705739275431e-02  8.0075205239423464e-02  7.7344758485670781e-02  7.4669870816611986e-02  7.2080066432828591e-02  6.9599158403909414e-02  6.7246349988458021e-02  6.5037139842177849e-02  6.2984031065898977e-02  6.1097062517537756e-02  5.9384191872098355e-02  5.7851567614288044e-02  5.6503721469277096e-02  5.5343740255526276e-02  5.4373361275384884e-02  5.3593411228819623e-02  5.3003545189785173e-02  5.2602075521077277e-02  5.2177869961260698e-02  1.2099117948680872e-01  1.2478637147959905e-01  5.9861565628617538e-02  6.6272019986034103e-02  7.1571933901547341e-02  7.7728872754498496e-02  8.3959223111475079e-02  8.9730474339590180e-02  9.4692879234680755e-02  9.8671611715042476e-02  1.0161983616237566e-01  1.0356838855115950e-01  1.0458799473511710e-01  1.0476837770522363e-01  1.0420870217255836e-01  1.0301292921789995e-01  1.0128635602674935e-01  9.9132147929669512e-02  9.6648001951560231e-02  9.3923419562589261e-02  9.1037918018476688e-02  8.8060246251367491e-02  8.5048469145158054e-02  8.2050686119750693e-02  7.9106136043174111e-02  7.6246474880533613e-02  7.3497065139075182e-02  7.0878168927425517e-02  6.8405981148050798e-02  6.6093474104802930e-02  6.3951050538630830e-02  6.1987020686043920e-02  6.0207931026880435e-02  5.8618781889686930e-02  5.7223165893566727e-02  5.6023393635895827e-02  5.5020547510722641e-02  5.4214966053760250e-02  5.3606126513139389e-02  5.3191757296737502e-02  5.2590203046935777e-02  1.2117747955622270e-01  1.2697672202449761e-01  6.7471915879755262e-02  8.0979043718157312e-02  8.9752055558518729e-02  9.7719291656572532e-02  1.0440315042682491e-01  1.0956856000337553e-01  1.1316713051055530e-01  1.1532764492178477e-01  1.1626744974847750e-01  1.1621876760701019e-01  1.1538398597318808e-01  1.1392297555826897e-01  1.1195889064856436e-01  1.0958964649300204e-01  1.0689782738510138e-01  1.0395676740355844e-01  1.0083326134830163e-01  9.7588213807087348e-02  9.4276413556279803e-02  9.0946191354548137e-02  8.7639317098556838e-02  8.4391224436185075e-02  8.1231512185017923e-02  7.8184621608523311e-02  7.5270586723908003e-02  7.2505773735481921e-02  6.9903550173794349e-02  6.7474847590621195e-02  6.5228601606805686e-02  6.3172069775929346e-02  6.1311040428643618e-02  5.9649958096395325e-02  5.8191988370134999e-02  5.6939089775436699e-02  5.5892028246017592e-02  5.5050921831466010e-02  5.4415136329896099e-02  5.3981496349288012e-02  5.3143356534158824e-02  1.2143479900931602e-01  1.4020929718936714e-01  8.9346837320946948e-02  1.2323965170878221e-01  1.3421523974832533e-01  1.4012362218145774e-01  1.4284269024625318e-01  1.4345514078114918e-01  1.4247485358243367e-01  1.4029011408209238e-01  1.3726992466666935e-01  1.3373678965591423e-01  1.2992781292665778e-01  1.2599094992547505e-01  1.2200558745738455e-01  1.1800926341023571e-01  1.1401940123204359e-01  1.1004697237373229e-01  1.0610327623843405e-01  1.0220223927940958e-01  9.8360354915869239e-02  9.4595684949710407e-02  9.0926708089336145e-02  8.7371367440367290e-02  8.3946420538268937e-02  8.0667075137732192e-02  7.7546847955054496e-02  7.4597574712655226e-02  7.1829506817975453e-02  6.9251442320386603e-02  6.6870852281958409e-02  6.4693977582319526e-02  6.2725884136982324e-02  6.0970480684659357e-02  5.9430504427552856e-02  5.8107539739186816e-02  5.7001994184993382e-02  5.6113691005654179e-02  5.5441434259395475e-02  5.4980059176262246e-02  5.3839982047526366e-02  1.2176287327939600e-01  2.6510063213228152e-01  2.0539955167064156e-01  2.4193649730519373e-01  2.2821170614358499e-01  2.1578729011529924e-01  2.0375527806972996e-01  1.9310777344515062e-01  1.8332783401457586e-01  1.7395824374452240e-01  1.6493982743505148e-01  1.5641183780024126e-01  1.4850391453388559e-01  1.4125760926844907e-01  1.3463514448019442e-01  1.2855568842016971e-01  1.2292722886283186e-01  1.1766571845099880e-01  1.1270338092779716e-01  1.0799029293651342e-01  1.0349261115554539e-01  9.9189550681154454e-02  9.5070226678779110e-02  9.1130852578194088e-02  8.7372454049933795e-02  8.3799099669003257e-02  8.0416585858125195e-02  7.7231495566923269e-02  7.4250550340037053e-02  7.1480181582754654e-02  6.8926254736182330e-02  6.6593889939856543e-02  6.4487334218332110e-02  6.2609859393582643e-02  6.0963665052426827e-02  5.9549845271977687e-02  5.8368322120689230e-02  5.7418441927365088e-02  5.6697594712673716e-02  5.6196787420987049e-02  5.4682014084079890e-02  1.2216052974408494e-01  4.4144543720850904e-01  3.8836034856292040e-01  3.5325776848415952e-01  3.0771411971253693e-01  2.7671757267539282e-01  2.5401119554264379e-01  2.3725313892519651e-01  2.2306943703471349e-01  2.0927098558189985e-01  1.9550393021248264e-01  1.8227140591297836e-01  1.7009494421188195e-01  1.5921461359615505e-01  1.4961860064638796e-01  1.4115905177207183e-01  1.3364458219779360e-01  1.2689119718911024e-01  1.2074339375908827e-01  1.1507908549981760e-01  1.0980723583112531e-01  1.0486290250433303e-01  1.0020187539050826e-01  9.5795789019434363e-02  9.1627985556181860e-02  8.7690150047253890e-02  8.3979649073071247e-02  8.0497480651261097e-02  7.7246742354124917e-02  7.4231527550576021e-02  7.1456161319892353e-02  6.8924689977416173e-02  6.6640543321628082e-02  6.4606306964421253e-02  6.2823548490142128e-02  6.1292742974011022e-02  6.0013162694547970e-02  5.8983400273180296e-02  5.8198071598291233e-02  5.7641607441354888e-02  5.5670460836618377e-02  1.2262597806598294e-01  5.6031862925240306e-01  5.7398372584192647e-01  4.6206245455658257e-01  3.7390231817110398e-01  3.0920974874940865e-01  2.6964518745023003e-01  2.4934662348095188e-01  2.3878133636327023e-01  2.2983270256955859e-01  2.1871223589437724e-01  2.0538495007024327e-01  1.9136404762386938e-01  1.7798310183246915e-01  1.6589218653012833e-01  1.5522366623999923e-01  1.4585494381208530e-01  1.3757941379998040e-01  1.3018876371138255e-01  1.2350438701463298e-01  1.1738495922646866e-01  1.1172432539063820e-01  1.0644614935285673e-01  1.0149800306797332e-01  9.6845895964654913e-02  9.2469551696162874e-02  8.8358478757195880e-02  8.4508795900077843e-02  8.0920749143929521e-02  7.7596847224215060e-02  7.4540530582339865e-02  7.1755275512740080e-02  6.9244023907654731e-02  6.7008836820580092e-02  6.5050669330341010e-02  6.3369287669931690e-02  6.1963125733468682e-02  6.0829622343097731e-02  5.9958579235446077e-02  5.9324021913351961e-02  5.6804628789767220e-02  1.2315648926568885e-01  5.9819012410881811e-01  6.5023666761951948e-01  5.2414586926559337e-01  4.2239435500298689e-01  3.3487504532613643e-01  2.7666572232178599e-01  2.4593962762852298e-01  2.3303887109578675e-01  2.2822424154192614e-01  2.2434606327782033e-01  2.1727949284638426e-01  2.0656318999920908e-01  1.9395316262370799e-01  1.8123624104008829e-01  1.6939100494435805e-01  1.5873626621113154e-01  1.4925063696940807e-01  1.4078385817812450e-01  1.3316020399325207e-01  1.2622068146075541e-01  1.1983644401785164e-01  1.1390999547104916e-01  1.0837172557197580e-01  1.0317500094328198e-01  9.8291129975130412e-02  9.3704723908943230e-02  8.9409659706883554e-02  8.5405726404543372e-02  8.1695978767238955e-02  7.8284777860902918e-02  7.5176453304276372e-02  7.2374477075789242e-02  6.9881017820388608e-02  6.7696718028208730e-02  6.5820672052466722e-02  6.4250283889886864e-02  6.2981272515637995e-02  6.1995692739448452e-02  6.1252147170109739e-02  5.8081314490831468e-02  1.2374824509831289e-01  5.5696573991484677e-01  6.0161441439493812e-01  4.9619208239560020e-01  4.1042920928657556e-01  3.3064829541903273e-01  2.7323064700574429e-01  2.3958820047918011e-01  2.2298197022725580e-01  2.1613642062677216e-01  2.1463326671504171e-01  2.1406372508384691e-01  2.1039559085006362e-01  2.0267715633797229e-01  1.9244476643771724e-01  1.8147680226158389e-01  1.7083947606181293e-01  1.6096779097802047e-01  1.5194811648469309e-01  1.4371635970798136e-01  1.3616132376926005e-01  1.2917143710184434e-01  1.2265311809183752e-01  1.1653594141309362e-01  1.1077192312400790e-01  1.0533232346597590e-01  1.0020355170210805e-01  9.5382951259095808e-02  9.0874890398908836e-02  8.6687416509727402e-02  8.2829625698131709e-02  7.9309803164055434e-02  7.6134288546977527e-02  7.3306942579617673e-02  7.0829004058246922e-02  6.8699246042068299e-02  6.6913909235899627e-02  6.5466215769000621e-02  6.4326410104702039e-02  6.3431476027185948e-02  5.9493814284377403e-02  1.2439614359511550e-01  4.1376090927968290e-01  4.4164050324807352e-01  3.9268568863664000e-01  3.4409153061731712e-01  2.9274652330862683e-01  2.5338465684890171e-01  2.2764060713275885e-01  2.1222224992700106e-01  2.0309920101537479e-01  1.9952055479267633e-01  2.0062472184575345e-01  2.0261888119905619e-01  2.0155075958006741e-01  1.9656049861602484e-01  1.8895288686728590e-01  1.8022376955060407e-01  1.7132365410646672e-01  1.6270729160439282e-01  1.5453594947910518e-01  1.4682837783244446e-01  1.3954653487187815e-01  1.3263893574285326e-01  1.2606066381867090e-01  1.1978120086536717e-01  1.1378597279706076e-01  1.0807466436393906e-01  1.0265794540597367e-01  9.7553581177470108e-02  9.2782576820277587e-02  8.8365819994113373e-02  8.4321530575687212e-02  8.0663654096756521e-02  7.7401170034520017e-02  7.4538083286875695e-02  7.2073912068933876e-02  7.0003823499730999e-02  6.8317536693767458e-02  6.6968063849359410e-02  6.5863630819357893e-02  6.1030892099867368e-02  1.2509365220366050e-01  2.2502175443104860e-01  2.6313126578553886e-01  2.8871447620870505e-01  2.7148961237514602e-01  2.4710285044386818e-01  2.2682030576771298e-01  2.1158732740288150e-01  2.0008841450286818e-01  1.9088190090409304e-01  1.8525641141170310e-01  1.8498382089814430e-01  1.8871005098425422e-01  1.9233861361705815e-01  1.9292755374406850e-01  1.9017319276389619e-01  1.8508108106516405e-01  1.7870901838878564e-01  1.7176933387699583e-01  1.6465565836630611e-01  1.5755722027103231e-01  1.5055240069614823e-01  1.4366805970580240e-01  1.3691339939460348e-01  1.3029780418031259e-01  1.2383902841948974e-01  1.1756555960467077e-01  1.1151545033897375e-01  1.0573310185475737e-01  1.0026508430331280e-01  9.5155868383468262e-02  9.0444175721607567e-02  8.6160440512004763e-02  8.2325614847702761e-02  7.8951168552716250e-02  7.6040004524419308e-02  7.3586950936057660e-02  7.1577081938939024e-02  6.9939265219564561e-02  6.8545506688384245e-02  6.2675847176897434e-02  1.2583273562951833e-01  1.4132084117848767e-01  1.3899294932635881e-01  2.2133746173436802e-01  2.2900353638380874e-01  2.2143852112620319e-01  2.1078658089346863e-01  2.0092092274553774e-01  1.9180150819365255e-01  1.8308736509521326e-01  1.7635188189206874e-01  1.7394064829659212e-01  1.7620278500860781e-01  1.8067812649949214e-01  1.8436962490652048e-01  1.8576434148278623e-01  1.8478816977131812e-01  1.8196679304089192e-01  1.7787045944404439e-01  1.7292788461439035e-01  1.6741751165452676e-01  1.6150926693604292e-01  1.5530798489256406e-01  1.4888610100900412e-01  1.4230520978488553e-01  1.3562875937907493e-01  1.2892811797181575e-01  1.2228374712011147e-01  1.1578285720234371e-01  1.0951476731265296e-01  1.0356516088688685e-01  9.8010407241715156e-02  9.2912983411142847e-02  8.8318750141687746e-02  8.4256253759994432e-02  8.0737792931530356e-02  7.7760278818247527e-02  7.5303298238513228e-02  7.3263324913112021e-02  7.1469623737507704e-02  6.4405938226176782e-02  1.2660391886218822e-01  1.3343275240916019e-01  9.6000944661247742e-02  1.5538188866571917e-01  1.8309902409460316e-01  1.9982817607146039e-01  2.0480435908406325e-01  2.0216451093617452e-01  1.9542525942279995e-01  1.8676789048157200e-01  1.7841802363511111e-01  1.7277628728726926e-01  1.7110935939206057e-01  1.7274123363146021e-01  1.7585638434547296e-01  1.7880666941545520e-01  1.8068300045194985e-01  1.8119769494037857e-01  1.8038809181683493e-01  1.7840327921470822e-01  1.7540148653349610e-01  1.7151664121772825e-01  1.6685722765683803e-01  1.6151675668192680e-01  1.5558616035272527e-01  1.4916398591267235e-01  1.4236274543112620e-01  1.3531089624560960e-01  1.2815055975124084e-01  1.2103159446725956e-01  1.1410311608100192e-01  1.0750395851745317e-01  1.0135376157344562e-01  9.5746297628743565e-02  9.0745955389516852e-02  8.6387478067281614e-02  8.2676448169126934e-02  7.9587789200384049e-02  7.6976869286305205e-02  7.4627046836847288e-02  6.6192485583850172e-02  1.2739654079562301e-01  1.3073915981388226e-01  8.1847248671410189e-02  1.1450046686717406e-01  1.3584181174341994e-01  1.5857912340086661e-01  1.7790548528373468e-01  1.9050699933002316e-01  1.9503107265901271e-01  1.9259478949988881e-01  1.8604423070733436e-01  1.7875342735491334e-01  1.7334694872090581e-01  1.7090697066897664e-01  1.7112609771847140e-01  1.7302534116415000e-01  1.7558622746513325e-01  1.7803829555117537e-01  1.7989107352280304e-01  1.8086529583802174e-01  1.8081492013339262e-01  1.7967131060626568e-01  1.7741196536296783e-01  1.7404734642272329e-01  1.6961864410266000e-01  1.6420068869144377e-01  1.5790569944323146e-01  1.5088478038818789e-01  1.4332516272730844e-01  1.3544231379312527e-01  1.2746721402847488e-01  1.1963024062465899e-01  1.1214399812916649e-01  1.0518792783056274e-01  9.8896940434311797e-02  9.3355339499236467e-02  8.8593814289351813e-02  8.4588940545554353e-02  8.1148490230089659e-02  7.8014878221092154e-02  6.8001942648392821e-02  1.2819922535432710e-01  1.2796940893758224e-01  7.2151818963312603e-02  9.1014860482368773e-02  1.0466145841311120e-01  1.2193765474370175e-01  1.4090472028023213e-01  1.5885255914790170e-01  1.7266667047297202e-01  1.8037567117656209e-01  1.8200533495107771e-01  1.7943777220908172e-01  1.7531638548536943e-01  1.7182116766057215e-01  1.7008813094145966e-01  1.7030630284819176e-01  1.7210222021227070e-01  1.7488971995235070e-01  1.7807785290276731e-01  1.8115793904650540e-01  1.8372161576161999e-01  1.8545055702577945e-01  1.8610082140316778e-01  1.8549196492031106e-01  1.8350371324679235e-01  1.8007917500455400e-01  1.7523165012507563e-01  1.6905118665651281e-01  1.6170690610883273e-01  1.5344180266400384e-01  1.4455823046598537e-01  1.3539445632853533e-01  1.2629493557509913e-01  1.1757864667327775e-01  1.0951002977021100e-01  1.0227653247336493e-01  9.5972620424684713e-02  9.0597989888642039e-02  8.5915717977431402e-02  8.1650948764628722e-02  6.9797978000807573e-02  1.2900051110894376e-01  1.2561915434368237e-01  6.5238951705058459e-02  7.6754280432708030e-02  8.5569526343390739e-02  9.7737443224949372e-02  1.1262571375792967e-01  1.2882955747578376e-01  1.4430683641182418e-01  1.5702574979507503e-01  1.6565119503629600e-01  1.7005763041276070e-01  1.7124543235749193e-01  1.7075944030451773e-01  1.7004073796602409e-01  1.7005527529352038e-01  1.7123870734383292e-01  1.7361669384929840e-01  1.7696241715374203e-01  1.8092208540501392e-01  1.8509373461111975e-01  1.8906919511396958e-01  1.9245443767130133e-01  1.9488103996958978e-01  1.9601722530348795e-01  1.9558296630083194e-01  1.9337034948642534e-01  1.8926751309605899e-01  1.8328184297274608e-01  1.7555606530123258e-01  1.6637024509283621e-01  1.5612457988517456e-01  1.4530200472593957e-01  1.3441487451421813e-01  1.2394374712873607e-01  1.1427683127352771e-01  1.0565662089191986e-01  9.8165426506943362e-02  9.1554106788547418e-02  8.5599090321662311e-02  7.1544196862251594e-02  1.2978942973763699e-01  1.2364422766254435e-01  5.9906404862566001e-02  6.7068078784864968e-02  7.3393662972582985e-02  8.2502354891830845e-02  9.4131895998676912e-02  1.0758519831524925e-01  1.2176038265368738e-01  1.3534424620980839e-01  1.4711235555496979e-01  1.5627172923295754e-01  1.6265393326748534e-01  1.6667850867073583e-01  1.6912632324934393e-01  1.7086066359888291e-01  1.7261537160927798e-01  1.7489258333724600e-01  1.7794956142390836e-01  1.8183265736961823e-01  1.8642425860593881e-01  1.9148483066566979e-01  1.9668508319691602e-01  2.0163022004333456e-01  2.0588069430691505e-01  2.0897412060150997e-01  2.1045255535855933e-01  2.0989868914318804e-01  2.0698289241052206e-01  2.0151906863754276e-01  1.9352028385937534e-01  1.8323751588289461e-01  1.7116150742811007e-01  1.5797505121694308e-01  1.4445588098945850e-01  1.3134321359299928e-01  1.1919707899445531e-01  1.0833373429858162e-01  9.8604474393566260e-02  9.0012059900823241e-02  7.3206586453485309e-02  1.3055541849009494e-01  1.2212274151132069e-01  5.5973395097934683e-02  6.0530767681510868e-02  6.5612185973451392e-02  7.3027945824147802e-02  8.2622338802248743e-02  9.4005754908865674e-02  1.0658305264095319e-01  1.196134347