<?xml version="1.0"?>
<VTKFile type="UnstructuredGrid"  version="0.1"  >
<UnstructuredGrid>
<Piece  NumberOfPoints="1681" NumberOfCells="3200">
<Points>
<DataArray  type="Float64"  NumberOfComponents="3"  format="ascii">0 0 0  0.025 0 0  0.05 0 0  0.075 0 0  0.1 0 0  0.125 0 0  0.15 0 0  0.175 0 0  0.2 0 0  0.225 0 0  0.25 0 0  0.275 0 0  0.3 0 0  0.325 0 0  0.35 0 0  0.375 0 0  0.4 0 0  0.425 0 0  0.45 0 0  0.475 0 0  0.5 0 0  0.525 0 0  0.55 0 0  0.575 0 0  0.6 0 0  0.625 0 0  0.65 0 0  0.675 0 0  0.7 0 0  0.725 0 0  0.75 0 0  0.775 0 0  0.8 0 0  0.825 0 0  0.85 0 0  0.875 0 0  0.9 0 0  0.925 0 0  0.95 0 0  0.975 0 0  1 0 0  0 0.025 0  0.025 0.025 0  0.05 0.025 0  0.075 0.025 0  0.1 0.025 0  0.125 0.025 0  0.15 0.025 0  0.175 0.025 0  0.2 0.025 0  0.225 0.025 0  0.25 0.025 0  0.275 0.025 0  0.3 0.025 0  0.325 0.025 0  0.35 0.025 0  0.375 0.025 0  0.4 0.025 0  0.425 0.025 0  0.45 0.025 0  0.475 0.025 0  0.5 0.025 0  0.525 0.025 0  0.55 0.025 0  0.575 0.025 0  0.6 0.025 0  0.625 0.025 0  0.65 0.025 0  0.675 0.025 0  0.7 0.025 0  0.725 0.025 0  0.75 0.025 0  0.775 0.025 0  0.8 0.025 0  0.825 0.025 0  0.85 0.025 0  0.875 0.025 0  0.9 0.025 0  0.925 0.025 0  0.95 0.025 0  0.975 0.025 0  1 0.025 0  0 0.05 0  0.025 0.05 0  0.05 0.05 0  0.075 0.05 0  0.1 0.05 0  0.125 0.05 0  0.15 0.05 0  0.175 0.05 0  0.2 0.05 0  0.225 0.05 0  0.25 0.05 0  0.275 0.05 0  0.3 0.05 0  0.325 0.05 0  0.35 0.05 0  0.375 0.05 0  0.4 0.05 0  0.425 0.05 0  0.45 0.05 0  0.475 0.05 0  0.5 0.05 0  0.525 0.05 0  0.55 0.05 0  0.575 0.05 0  0.6 0.05 0  0.625 0.05 0  0.65 0.05 0  0.675 0.05 0  0.7 0.05 0  0.725 0.05 0  0.75 0.05 0  0.775 0.05 0  0.8 0.05 0  0.825 0.05 0  0.85 0.05 0  0.875 0.05 0  0.9 0.05 0  0.925 0.05 0  0.95 0.05 0  0.975 0.05 0  1 0.05 0  0 0.075 0  0.025 0.075 0  0.05 0.075 0  0.075 0.075 0  0.1 0.075 0  0.125 0.075 0  0.15 0.075 0  0.175 0.075 0  0.2 0.075 0  0.225 0.075 0  0.25 0.075 0  0.275 0.075 0  0.3 0.075 0  0.325 0.075 0  0.35 0.075 0  0.375 0.075 0  0.4 0.075 0  0.425 0.075 0  0.45 0.075 0  0.475 0.075 0  0.5 0.075 0  0.525 0.075 0  0.55 0.075 0  0.575 0.075 0  0.6 0.075 0  0.625 0.075 0  0.65 0.075 0  0.675 0.075 0  0.7 0.075 0  0.725 0.075 0  0.75 0.075 0  0.775 0.075 0  0.8 0.075 0  0.825 0.075 0  0.85 0.075 0  0.875 0.075 0  0.9 0.075 0  0.925 0.075 0  0.95 0.075 0  0.975 0.075 0  1 0.075 0  0 0.1 0  0.025 0.1 0  0.05 0.1 0  0.075 0.1 0  0.1 0.1 0  0.125 0.1 0  0.15 0.1 0  0.175 0.1 0  0.2 0.1 0  0.225 0.1 0  0.25 0.1 0  0.275 0.1 0  0.3 0.1 0  0.325 0.1 0  0.35 0.1 0  0.375 0.1 0  0.4 0.1 0  0.425 0.1 0  0.45 0.1 0  0.475 0.1 0  0.5 0.1 0  0.525 0.1 0  0.55 0.1 0  0.575 0.1 0  0.6 0.1 0  0.625 0.1 0  0.65 0.1 0  0.675 0.1 0  0.7 0.1 0  0.725 0.1 0  0.75 0.1 0  0.775 0.1 0  0.8 0.1 0  0.825 0.1 0  0.85 0.1 0  0.875 0.1 0  0.9 0.1 0  0.925 0.1 0  0.95 0.1 0  0.975 0.1 0  1 0.1 0  0 0.125 0  0.025 0.125 0  0.05 0.125 0  0.075 0.125 0  0.1 0.125 0  0.125 0.125 0  0.15 0.125 0  0.175 0.125 0  0.2 0.125 0  0.225 0.125 0  0.25 0.125 0  0.275 0.125 0  0.3 0.125 0  0.325 0.125 0  0.35 0.125 0  0.375 0.125 0  0.4 0.125 0  0.425 0.125 0  0.45 0.125 0  0.475 0.125 0  0.5 0.125 0  0.525 0.125 0  0.55 0.125 0  0.575 0.125 0  0.6 0.125 0  0.625 0.125 0  0.65 0.125 0  0.675 0.125 0  0.7 0.125 0  0.725 0.125 0  0.75 0.125 0  0.775 0.125 0  0.8 0.125 0  0.825 0.125 0  0.85 0.125 0  0.875 0.125 0  0.9 0.125 0  0.925 0.125 0  0.95 0.125 0  0.975 0.125 0  1 0.125 0  0 0.15 0  0.025 0.15 0  0.05 0.15 0  0.075 0.15 0  0.1 0.15 0  0.125 0.15 0  0.15 0.15 0  0.175 0.15 0  0.2 0.15 0  0.225 0.15 0  0.25 0.15 0  0.275 0.15 0  0.3 0.15 0  0.325 0.15 0  0.35 0.15 0  0.375 0.15 0  0.4 0.15 0  0.425 0.15 0  0.45 0.15 0  0.475 0.15 0  0.5 0.15 0  0.525 0.15 0  0.55 0.15 0  0.575 0.15 0  0.6 0.15 0  0.625 0.15 0  0.65 0.15 0  0.675 0.15 0  0.7 0.15 0  0.725 0.15 0  0.75 0.15 0  0.775 0.15 0  0.8 0.15 0  0.825 0.15 0  0.85 0.15 0  0.875 0.15 0  0.9 0.15 0  0.925 0.15 0  0.95 0.15 0  0.975 0.15 0  1 0.15 0  0 0.175 0  0.025 0.175 0  0.05 0.175 0  0.075 0.175 0  0.1 0.175 0  0.125 0.175 0  0.15 0.175 0  0.175 0.175 0  0.2 0.175 0  0.225 0.175 0  0.25 0.175 0  0.275 0.175 0  0.3 0.175 0  0.325 0.175 0  0.35 0.175 0  0.375 0.175 0  0.4 0.175 0  0.425 0.175 0  0.45 0.175 0  0.475 0.175 0  0.5 0.175 0  0.525 0.175 0  0.55 0.175 0  0.575 0.175 0  0.6 0.175 0  0.625 0.175 0  0.65 0.175 0  0.675 0.175 0  0.7 0.175 0  0.725 0.175 0  0.75 0.175 0  0.775 0.175 0  0.8 0.175 0  0.825 0.175 0  0.85 0.175 0  0.875 0.175 0  0.9 0.175 0  0.925 0.175 0  0.95 0.175 0  0.975 0.175 0  1 0.175 0  0 0.2 0  0.025 0.2 0  0.05 0.2 0  0.075 0.2 0  0.1 0.2 0  0.125 0.2 0  0.15 0.2 0  0.175 0.2 0  0.2 0.2 0  0.225 0.2 0  0.25 0.2 0  0.275 0.2 0  0.3 0.2 0  0.325 0.2 0  0.35 0.2 0  0.375 0.2 0  0.4 0.2 0  0.425 0.2 0  0.45 0.2 0  0.475 0.2 0  0.5 0.2 0  0.525 0.2 0  0.55 0.2 0  0.575 0.2 0  0.6 0.2 0  0.625 0.2 0  0.65 0.2 0  0.675 0.2 0  0.7 0.2 0  0.725 0.2 0  0.75 0.2 0  0.775 0.2 0  0.8 0.2 0  0.825 0.2 0  0.85 0.2 0  0.875 0.2 0  0.9 0.2 0  0.925 0.2 0  0.95 0.2 0  0.975 0.2 0  1 0.2 0  0 0.225 0  0.025 0.225 0  0.05 0.225 0  0.075 0.225 0  0.1 0.225 0  0.125 0.225 0  0.15 0.225 0  0.175 0.225 0  0.2 0.225 0  0.225 0.225 0  0.25 0.225 0  0.275 0.225 0  0.3 0.225 0  0.325 0.225 0  0.35 0.225 0  0.375 0.225 0  0.4 0.225 0  0.425 0.225 0  0.45 0.225 0  0.475 0.225 0  0.5 0.225 0  0.525 0.225 0  0.55 0.225 0  0.575 0.225 0  0.6 0.225 0  0.625 0.225 0  0.65 0.225 0  0.675 0.225 0  0.7 0.225 0  0.725 0.225 0  0.75 0.225 0  0.775 0.225 0  0.8 0.225 0  0.825 0.225 0  0.85 0.225 0  0.875 0.225 0  0.9 0.225 0  0.925 0.225 0  0.95 0.225 0  0.975 0.225 0  1 0.225 0  0 0.25 0  0.025 0.25 0  0.05 0.25 0  0.075 0.25 0  0.1 0.25 0  0.125 0.25 0  0.15 0.25 0  0.175 0.25 0  0.2 0.25 0  0.225 0.25 0  0.25 0.25 0  0.275 0.25 0  0.3 0.25 0  0.325 0.25 0  0.35 0.25 0  0.375 0.25 0  0.4 0.25 0  0.425 0.25 0  0.45 0.25 0  0.475 0.25 0  0.5 0.25 0  0.525 0.25 0  0.55 0.25 0  0.575 0.25 0  0.6 0.25 0  0.625 0.25 0  0.65 0.25 0  0.675 0.25 0  0.7 0.25 0  0.725 0.25 0  0.75 0.25 0  0.775 0.25 0  0.8 0.25 0  0.825 0.25 0  0.85 0.25 0  0.875 0.25 0  0.9 0.25 0  0.925 0.25 0  0.95 0.25 0  0.975 0.25 0  1 0.25 0  0 0.275 0  0.025 0.275 0  0.05 0.275 0  0.075 0.275 0  0.1 0.275 0  0.125 0.275 0  0.15 0.275 0  0.175 0.275 0  0.2 0.275 0  0.225 0.275 0  0.25 0.275 0  0.275 0.275 0  0.3 0.275 0  0.325 0.275 0  0.35 0.275 0  0.375 0.275 0  0.4 0.275 0  0.425 0.275 0  0.45 0.275 0  0.475 0.275 0  0.5 0.275 0  0.525 0.275 0  0.55 0.275 0  0.575 0.275 0  0.6 0.275 0  0.625 0.275 0  0.65 0.275 0  0.675 0.275 0  0.7 0.275 0  0.725 0.275 0  0.75 0.275 0  0.775 0.275 0  0.8 0.275 0  0.825 0.275 0  0.85 0.275 0  0.875 0.275 0  0.9 0.275 0  0.925 0.275 0  0.95 0.275 0  0.975 0.275 0  1 0.275 0  0 0.3 0  0.025 0.3 0  0.05 0.3 0  0.075 0.3 0  0.1 0.3 0  0.125 0.3 0  0.15 0.3 0  0.175 0.3 0  0.2 0.3 0  0.225 0.3 0  0.25 0.3 0  0.275 0.3 0  0.3 0.3 0  0.325 0.3 0  0.35 0.3 0  0.375 0.3 0  0.4 0.3 0  0.425 0.3 0  0.45 0.3 0  0.475 0.3 0  0.5 0.3 0  0.525 0.3 0  0.55 0.3 0  0.575 0.3 0  0.6 0.3 0  0.625 0.3 0  0.65 0.3 0  0.675 0.3 0  0.7 0.3 0  0.725 0.3 0  0.75 0.3 0  0.775 0.3 0  0.8 0.3 0  0.825 0.3 0  0.85 0.3 0  0.875 0.3 0  0.9 0.3 0  0.925 0.3 0  0.95 0.3 0  0.975 0.3 0  1 0.3 0  0 0.325 0  0.025 0.325 0  0.05 0.325 0  0.075 0.325 0  0.1 0.325 0  0.125 0.325 0  0.15 0.325 0  0.175 0.325 0  0.2 0.325 0  0.225 0.325 0  0.25 0.325 0  0.275 0.325 0  0.3 0.325 0  0.325 0.325 0  0.35 0.325 0  0.375 0.325 0  0.4 0.325 0  0.425 0.325 0  0.45 0.325 0  0.475 0.325 0  0.5 0.325 0  0.525 0.325 0  0.55 0.325 0  0.575 0.325 0  0.6 0.325 0  0.625 0.325 0  0.65 0.325 0  0.675 0.325 0  0.7 0.325 0  0.725 0.325 0  0.75 0.325 0  0.775 0.325 0  0.8 0.325 0  0.825 0.325 0  0.85 0.325 0  0.875 0.325 0  0.9 0.325 0  0.925 0.325 0  0.95 0.325 0  0.975 0.325 0  1 0.325 0  0 0.35 0  0.025 0.35 0  0.05 0.35 0  0.075 0.35 0  0.1 0.35 0  0.125 0.35 0  0.15 0.35 0  0.175 0.35 0  0.2 0.35 0  0.225 0.35 0  0.25 0.35 0  0.275 0.35 0  0.3 0.35 0  0.325 0.35 0  0.35 0.35 0  0.375 0.35 0  0.4 0.35 0  0.425 0.35 0  0.45 0.35 0  0.475 0.35 0  0.5 0.35 0  0.525 0.35 0  0.55 0.35 0  0.575 0.35 0  0.6 0.35 0  0.625 0.35 0  0.65 0.35 0  0.675 0.35 0  0.7 0.35 0  0.725 0.35 0  0.75 0.35 0  0.775 0.35 0  0.8 0.35 0  0.825 0.35 0  0.85 0.35 0  0.875 0.35 0  0.9 0.35 0  0.925 0.35 0  0.95 0.35 0  0.975 0.35 0  1 0.35 0  0 0.375 0  0.025 0.375 0  0.05 0.375 0  0.075 0.375 0  0.1 0.375 0  0.125 0.375 0  0.15 0.375 0  0.175 0.375 0  0.2 0.375 0  0.225 0.375 0  0.25 0.375 0  0.275 0.375 0  0.3 0.375 0  0.325 0.375 0  0.35 0.375 0  0.375 0.375 0  0.4 0.375 0  0.425 0.375 0  0.45 0.375 0  0.475 0.375 0  0.5 0.375 0  0.525 0.375 0  0.55 0.375 0  0.575 0.375 0  0.6 0.375 0  0.625 0.375 0  0.65 0.375 0  0.675 0.375 0  0.7 0.375 0  0.725 0.375 0  0.75 0.375 0  0.775 0.375 0  0.8 0.375 0  0.825 0.375 0  0.85 0.375 0  0.875 0.375 0  0.9 0.375 0  0.925 0.375 0  0.95 0.375 0  0.975 0.375 0  1 0.375 0  0 0.4 0  0.025 0.4 0  0.05 0.4 0  0.075 0.4 0  0.1 0.4 0  0.125 0.4 0  0.15 0.4 0  0.175 0.4 0  0.2 0.4 0  0.225 0.4 0  0.25 0.4 0  0.275 0.4 0  0.3 0.4 0  0.325 0.4 0  0.35 0.4 0  0.375 0.4 0  0.4 0.4 0  0.425 0.4 0  0.45 0.4 0  0.475 0.4 0  0.5 0.4 0  0.525 0.4 0  0.55 0.4 0  0.575 0.4 0  0.6 0.4 0  0.625 0.4 0  0.65 0.4 0  0.675 0.4 0  0.7 0.4 0  0.725 0.4 0  0.75 0.4 0  0.775 0.4 0  0.8 0.4 0  0.825 0.4 0  0.85 0.4 0  0.875 0.4 0  0.9 0.4 0  0.925 0.4 0  0.95 0.4 0  0.975 0.4 0  1 0.4 0  0 0.425 0  0.025 0.425 0  0.05 0.425 0  0.075 0.425 0  0.1 0.425 0  0.125 0.425 0  0.15 0.425 0  0.175 0.425 0  0.2 0.425 0  0.225 0.425 0  0.25 0.425 0  0.275 0.425 0  0.3 0.425 0  0.325 0.425 0  0.35 0.425 0  0.375 0.425 0  0.4 0.425 0  0.425 0.425 0  0.45 0.425 0  0.475 0.425 0  0.5 0.425 0  0.525 0.425 0  0.55 0.425 0  0.575 0.425 0  0.6 0.425 0  0.625 0.425 0  0.65 0.425 0  0.675 0.425 0  0.7 0.425 0  0.725 0.425 0  0.75 0.425 0  0.775 0.425 0  0.8 0.425 0  0.825 0.425 0  0.85 0.425 0  0.875 0.425 0  0.9 0.425 0  0.925 0.425 0  0.95 0.425 0  0.975 0.425 0  1 0.425 0  0 0.45 0  0.02
[...]
<PointData  Scalars="ControlVisualisation"> 
<DataArray  type="Float64"  Name="ControlVisualisation"  format="ascii">3.7251550463270949e-01  3.1653158598684072e-01  3.1658354445661196e-01  3.1687328583345920e-01  3.1741924965528434e-01  3.1813545108538099e-01  3.1890597378740854e-01  3.1963225508113452e-01  3.2025189444570001e-01  3.2073672056332930e-01  3.2108287774422206e-01  3.2130065535313135e-01  3.2140690621552859e-01  3.2142025558750398e-01  3.2135845292095533e-01  3.2123714344653925e-01  3.2106949083357600e-01  3.2086626159119813e-01  3.2063612657864315e-01  3.2038603695790513e-01  3.2012159805157558e-01  3.1984740460063882e-01  3.1956732352644701e-01  3.1928472204831826e-01  3.1900264440624004e-01  3.1872394237139623e-01  3.1845136496822812e-01  3.1818761240066834e-01  3.1793535865896627e-01  3.1769724698954266e-01  3.1747586255718813e-01  3.1727368722463750e-01  3.1709304322155130e-01  3.1693603588291763e-01  3.1680451329144799e-01  3.1670008037812170e-01  3.1662419303063016e-01  3.1657810894818977e-01  3.1656098353473627e-01  3.1656314783076295e-01  4.3200564025429899e-01  3.1652705244189600e-01  1.8219266767397113e-01  1.8327800414696249e-01  1.8589832698582828e-01  1.9021940094461839e-01  1.9578312408546816e-01  2.0185004914143212e-01  2.0772055072687831e-01  2.1289302660155943e-01  2.1709146957482905e-01  2.2022357236412685e-01  2.2231991881275140e-01  2.2348016469269952e-01  2.2383401294640354e-01  2.2351642155162563e-01  2.2265375728701806e-01  2.2135739946954899e-01  2.1972195044219847e-01  2.1782601750584349e-01  2.1573423296424343e-01  2.1349970410778168e-01  2.1116644200774226e-01  2.0877154310278745e-01  2.0634702997090487e-01  2.0392133001560239e-01  2.0152040675700347e-01  1.9916857385816480e-01  1.9688902699665309e-01  1.9470412923997332e-01  1.9263548525502566e-01  1.9070384055438963e-01  1.8892884484385727e-01  1.8732872614338900e-01  1.8591993113234587e-01  1.8471681297647366e-01  1.8373146072482580e-01  1.8297353576413969e-01  1.8244878196970316e-01  1.8214947902206069e-01  1.8203353047177964e-01  3.1656314572917266e-01  3.1653225544074665e-01  1.8320487260555665e-01  1.8713895010636911e-01  1.9412300748832934e-01  2.0450092583033577e-01  2.1739339353875964e-01  2.3122308827582713e-01  2.4446587989067353e-01  2.5603279869489937e-01  2.6533592158507519e-01  2.7219159724338848e-01  2.7668368752249711e-01  2.7904483339949432e-01  2.7957169283822597e-01  2.7857160041920548e-01  2.7633281319937714e-01  2.7311063407763425e-01  2.6912336219868088e-01  2.6455379213491492e-01  2.5955344447250922e-01  2.5424778873662707e-01  2.4874146005772058e-01  2.4312294974243209e-01  2.3746854239563692e-01  2.3184544085207354e-01  2.2631411134756013e-01  2.2092992685288337e-01  2.1574420684102497e-01  2.1080475923537892e-01  2.0615603174698238e-01  2.0183897899107625e-01  1.9789074962023612e-01  1.9434429593973973e-01  1.9122799454467784e-01  1.8856532947811797e-01  1.8637439922612706e-01  1.8466597769546070e-01  1.8343482850530340e-01  1.8263111656039061e-01  1.8214946258297676e-01  3.1656094079542535e-01  3.1667873961864496e-01  1.8584112365677660e-01  1.9521735515193195e-01  2.0804454214342424e-01  2.2423005668157225e-01  2.4251832917592825e-01  2.6088033825183227e-01  2.7757592370261797e-01  2.9152788965950316e-01  3.0227482460541311e-01  3.0978612907691883e-01  3.1428721498290102e-01  3.1613162770428749e-01  3.1571783534961106e-01  3.1343942783314616e-01  3.0965826656233886e-01  3.0469264502217092e-01  2.9881475299924043e-01  2.9225345985335888e-01  2.8519972943429905e-01  2.7781294090545972e-01  2.7022707966343762e-01  2.6255623554953700e-01  2.5489915402980146e-01  2.4734277717017955e-01  2.3996482381111714e-01  2.3283552109821601e-01  2.2601863193364413e-01  2.1957193692808608e-01  2.1354733152932756e-01  2.0799069237461712e-01  2.0294165098684325e-01  1.9843338454483592e-01  1.9449246000366896e-01  1.9113856542447047e-01  1.8838317362029691e-01  1.8622361846871502e-01  1.8462085292374078e-01  1.8343830520403015e-01  1.8244954313204376e-01  3.1657792380094585e-01  3.1703714065858868e-01  1.9133804130429810e-01  2.1315563862588804e-01  2.3679354735018882e-01  2.6003030817408795e-01  2.8178112482451934e-01  3.0085996735928144e-01  3.1647648264436384e-01  3.2837806154771904e-01  3.3667815492532155e-01  3.4168080472913837e-01  3.4377423247465499e-01  3.4337200786650035e-01  3.4087965603026810e-01  3.3667509365567683e-01  3.3109800659347854e-01  3.2444567458019302e-01  3.1697339584436013e-01  3.0889789249371435e-01  3.0040232398515299e-01  2.9164185019484729e-01  2.8274901101044886e-01  2.7383847435255049e-01  2.6501092631389334e-01  2.5635603560141418e-01  2.4795453066111636e-01  2.3987949521543395e-01  2.3219702780839702e-01  2.2496643103547592e-01  2.1824010060027235e-01  2.1206327463463354e-01  2.0647377632636987e-01  2.0150182613433718e-01  1.9716985243483046e-01  1.9349181520670147e-01  1.9047009924616531e-01  1.8808331407380055e-01  1.8624376725648348e-01  1.8468403487989701e-01  1.8297860654307144e-01  3.1662393053823013e-01  3.1789091205773601e-01  2.0738735504791406e-01  2.5917145304258082e-01  3.0186529373448334e-01  3.2997884996584975e-01  3.4876063504071347e-01  3.6135437636192902e-01  3.6938526914743669e-01  3.7387484918752989e-01  3.7552492840087470e-01  3.7483756417619779e-01  3.7219407062311555e-01  3.6790663470204210e-01  3.6224657756531009e-01  3.5545676704167539e-01  3.4775582287995821e-01  3.3933928054976920e-01  3.3038042433973669e-01  3.2103180286358068e-01  3.1142751358227105e-01  3.0168595372874751e-01  2.9191265158693636e-01  2.8220285149940277e-01  2.7264363283795173e-01  2.6331545070920537e-01  2.5429307636753340e-01  2.4564598424011744e-01  2.3743828166783942e-01  2.2972830902077399e-01  2.2256805256897111e-01  2.1600250876250812e-01  2.1006910786882660e-01  2.0479722248366417e-01  2.0020755208749247e-01  1.9631048436079235e-01  1.9310017678898372e-01  1.9053343008227036e-01  1.8845902677348417e-01  1.8643183499470595e-01  1.8374963856291518e-01  3.1670036258136836e-01  3.3511158368307498e-01  2.8060300097226515e-01  3.9599743470701981e-01  4.4546481764345797e-01  4.5688200056775879e-01  4.5502246678898439e-01  4.4837752749468718e-01  4.3989973918012543e-01  4.3076854151825061e-01  4.2144535213784762e-01  4.1206001282092286e-01  4.0260169970752280e-01  3.9301909360601328e-01  3.8326691937260982e-01  3.7332255423382260e-01  3.6318785052558394e-01  3.5288496779378425e-01  3.4245082246166214e-01  3.3193220960063541e-01  3.2138224018229605e-01  3.1085804381661675e-01  3.0041941271294581e-01  2.9012801033911972e-01  2.8004681845585933e-01  2.7023958293956030e-01  2.6077010992506278e-01  2.5170134588918180e-01  2.4309424384091008e-01  2.3500647111252404e-01  2.2749105006752307e-01  2.2059503576881861e-01  2.1435830784443644e-01  2.0881244280061254e-01  2.0397928089769438e-01  1.9986772825377569e-01  1.9646377545390617e-01  1.9369731512996202e-01  1.9133547681092283e-01  1.8870754689148145e-01  1.8476473840172838e-01  3.1680692964615431e-01  5.6443528100003582e-01  6.3336344559139390e-01  7.0484323044942454e-01  6.8015526290722139e-01  6.3652675853020269e-01  5.9423396510618587e-01  5.5680389608472769e-01  5.2447830344782065e-01  4.9687519267899444e-01  4.7334270656159932e-01  4.5310572328828258e-01  4.3541059438745028e-01  4.1960816876223017e-01  4.0517980151549005e-01  3.9173186495281664e-01  3.7897736267171295e-01  3.6671475048832441e-01  3.5480855644608178e-01  3.4317342805060591e-01  3.3176178310469356e-01  3.2055460184558116e-01  3.0955468520595109e-01  2.9878170189768105e-01  2.8826843791669726e-01  2.7805778408790593e-01  2.6820012110349856e-01  2.5875087541840214e-01  2.4976811990030995e-01  2.4131017876345776e-01  2.3343326337006032e-01  2.2618920373389279e-01  2.1962332184590777e-01  2.1377234235112810e-01  2.0866171562942792e-01  2.0430012965186506e-01  2.0066390460775074e-01  1.9764827116142183e-01  1.9491751930842852e-01  1.9152803517391659e-01  1.8602437894392609e-01  3.1694351159529754e-01  9.2226639085796402e-01  9.5483648521004194e-01  9.2821751694356469e-01  8.7130177901026873e-01  7.9977384968052168e-01  7.2937074380997224e-01  6.6597917910029736e-01  6.1110420179672054e-01  5.6495737546900004e-01  5.2680070355989062e-01  4.9533310520836377e-01  4.6914815284285766e-01  4.4698914077578239e-01  4.2783258736035523e-01  4.1088553563777241e-01  3.9555166562687344e-01  3.8139181214830120e-01  3.6808853162637689e-01  3.5541734344027343e-01  3.4322452685012295e-01  3.3141043965429906e-01  3.1991714617736222e-01  3.0871923840769755e-01  2.9781691546581374e-01  2.8723057788743694e-01  2.7699636900294644e-01  2.6716225115616887e-01  2.5778434238377740e-01  2.4892336184569497e-01  2.4064113652420699e-01  2.3299719186222020e-01  2.2604543984365538e-01  2.1983077045236413e-01  2.1438459801696949e-01  2.0971612553604027e-01  2.0578917765885010e-01  2.0245413119878145e-01  1.9924851761942905e-01  1.9490986164653759e-01  1.8752844001018865e-01  3.1711014795446463e-01  9.6932081199182785e-01  9.7409188787164147e-01  9.6421588756763610e-01  9.3726897885377403e-01  8.8725312016885494e-01  8.2114452984202912e-01  7.5079114949882542e-01  6.8384556586289236e-01  6.2483868020225475e-01  5.7526049765850895e-01  5.3450247026432796e-01  5.0109345146780249e-01  4.7345216772944076e-01  4.5019529301192640e-01  4.3021230784458242e-01  4.1264814167611685e-01  3.9685929900766381e-01  3.8236887994254060e-01  3.6882847546339309e-01  3.5598824146511127e-01  3.4367422382848922e-01  3.3177146412933023e-01  3.2021145969066361e-01  3.0896276408555179e-01  2.9802374680315785e-01  2.8741674049424581e-01  2.7718298691619825e-01  2.6737795657455110e-01  2.5806676968340592e-01  2.4931958570423021e-01  2.4120693302419183e-01  2.3379495016940269e-01  2.2714022458675853e-01  2.2128285130244399e-01  2.1623317698767522e-01  2.1193866827084640e-01  2.0819230000783845e-01  2.0437817636751612e-01  1.9887114314132720e-01  1.8927575762552146e-01  3.1730685820685284e-01  9.7129139468465997e-01  9.7907991658492977e-01  9.7127197376150254e-01  9.5197806395632112e-01  9.1690856343722371e-01  8.6349552986781375e-01  7.9876124306800889e-01  7.3090200108860948e-01  6.6731359923981559e-01  6.1206326693890889e-01  5.6594984811143112e-01  5.2802583608009701e-01  4.9679088673828348e-01  4.7076872705569794e-01  4.4870672773656289e-01  4.2960791078912425e-01  4.1270334007839737e-01  3.9741040221068924e-01  3.8329343310179848e-01  3.7003132013259821e-01  3.5739236555863851e-01  3.4521532927274429e-01  3.3339530204172463e-01  3.2187315538574840e-01  3.1062749818048901e-01  2.9966825414526155e-01  2.8903114125615847e-01  2.7877249151421957e-01  2.6896400884745064e-01  2.5968722448692599e-01  2.5102754299101304e-01  2.4306777805354973e-01  2.3588069253857585e-01  2.2951860532996812e-01  2.2399392000540519e-01  2.1923304441354810e-01  2.1495659385469362e-01  2.1036573003982575e-01  2.0343197607236985e-01  1.9126355327349215e-01  3.1753351789612350e-01  9.5961253791014023e-01  9.7542405810739752e-01  9.7004927384485473e-01  9.5001933805756855e-01  9.1587906054364987e-01  8.6778674590850580e-01  8.1018267352885021e-01  7.4776679856041672e-01  6.8692391801366837e-01  6.3237280198235279e-01  5.8584001654164453e-01  5.4704147900174960e-01  5.1485027010054163e-01  4.8796868977823371e-01  4.6521221022557735e-01  4.4559431903670588e-01  4.2832833147417759e-01  4.1280129835718049e-01  3.9854277249765308e-01  3.8519662849152558e-01  3.7249813455022124e-01  3.6025621303877703e-01  3.4834008447662873e-01  3.3666932390842974e-01  3.2520638641181188e-01  3.1395073754432690e-01  3.0293381379081619e-01  2.9221413833283549e-01  2.8187204224042184e-01  2.7200359451673178e-01  2.6271349067846955e-01  2.5410665260161308e-01  2.4627778775448889e-01  2.3929624455906146e-01  2.3317807840480734e-01  2.2782332855180445e-01  2.2286291140638567e-01  2.1728275769314609e-01  2.0861490073812677e-01  1.9348693932290689e-01  3.1778976701058453e-01  8.6729770476497225e-01  9.5970306700930119e-01  9.5432857656591308e-01  9.2349501925002486e-01  8.8271288731355135e-01  8.3701895466165099e-01  7.8735229540037832e-01  7.3450301928265949e-01  6.8218978869659852e-01  6.3410215783219293e-01  5.9205090094514490e-01  5.5623694433559923e-01  5.2602268899413318e-01  5.0048130346244546e-01  4.7867743471090718e-01  4.5978068831672070e-01  4.4309656665895025e-01  4.2806237519523643e-01  4.1423102671640816e-01  4.0125277778803031e-01  3.8885882197824251e-01  3.7684794660346732e-01  3.6507630633157467e-01  3.5344989598365273e-01  3.4191911189662433e-01  3.3047470233939485e-01  3.1914435946150682e-01  3.0798918922677487e-01  2.9709932715633836e-01  2.8658805927133740e-01  2.7658392449192293e-01  2.6722024861946098e-01  2.5862091537056264e-01  2.5087876137555520e-01  2.4401624061063448e-01  2.3790152875141399e-01  2.3205648630228509e-01  2.2521720490684180e-01  2.1444604140145093e-01  1.9593851005578575e-01  3.1807491621286821e-01  4.6156918780456802e-01  7.4179491352900961e-01  8.2642134258124045e-01  8.2323148908513133e-01  7.9730804032461400e-01  7.6634499801940470e-01  7.3163766073757541e-01  6.9368669316382592e-01  6.5491148209718930e-01  6.1797470561281176e-01  5.8451335881513578e-01  5.5509267654405414e-01  5.2958802004878824e-01  5.0753865464697623e-01  4.8837071713164215e-01  4.7151340639758854e-01  4.5645044185121875e-01  4.4273728864268169e-01  4.3000218019433201e-01  4.1794055457151175e-01  4.0630772263991305e-01  3.9491203371035505e-01  3.8360948305277454e-01  3.7230001063771939e-01  3.6092534132600440e-01  3.4946794496080369e-01  3.3795047489003882e-01  3.2643485694304314e-01  3.1502006576872932e-01  3.0383756801594802e-01  2.9304341189809763e-01  2.8280582290473877e-01  2.7328634664790896e-01  2.6460964606035897e-01  2.5680902648274095e-01  2.4971591578919983e-01  2.4272276568948700e-01  2.3427998596948030e-01  2.2095760401300737e-01  1.9860811148340166e-01  3.1838783598350584e-01  3.2765009595301064e-01  3.3842635897940027e-01  5.5621711046219779e-01  6.3996677973160110e-01  6.6160179270260133e-01  6.6112953869646918e-01  6.4966525285643661e-01  6.3158499481841890e-01  6.0994329151941673e-01  5.8721649144337518e-01  5.6509724498350755e-01  5.4451650705172683e-01  5.2583705363949362e-01  5.0906707520644390e-01  4.9402338195082968e-01  4.8043709659178524e-01  4.6801514365090857e-01  4.5647290332427731e-01  4.4554982027006046e-01  4.3501572606722672e-01  4.2467264240080621e-01  4.1435487781626967e-01  4.0392902149601484e-01  3.9329468183624355e-01  3.8238630402726737e-01  3.7117599173027049e-01  3.5967687358148853e-01  3.4794616523526095e-01  3.3608669539635655e-01  3.2424532779665516e-01  3.1260643792094506e-01  3.0137823958069343e-01  2.9076867034271636e-01  2.8094415998541156e-01  2.7195552931580347e-01  2.6359451781234566e-01  2.5510491452757655e-01  2.4461641797486233e-01  2.2819299537073978e-01  2.0148304392059513e-01  3.1872682163171978e-01  3.2077405223049410e-01  2.4474923022462858e-01  3.7779080381783170e-01  4.6994468365785380e-01  5.1954630692193260e-01  5.4518062929029520e-01  5.5657419421686383e-01  5.5869781327108536e-01  5.5468037467665698e-01  5.4690910167553841e-01  5.3714881091626610e-01  5.2659716247483890e-01  5.1598357996990485e-01  5.0569408317198938e-01  4.9588447940839242e-01  4.8656738591441451e-01  4.7767244179557561e-01  4.6908521921269375e-01  4.6067117854894130e-01  4.5228998806821064e-01  4.4380414705449539e-01  4.3508466499632875e-01  4.2601567079727831e-01  4.1649919361409254e-01  4.0646086845161450e-01  3.9585687299851358e-01  3.8468191258111750e-01  3.7297748285415533e-01  3.6083893895703195e-01  3.4841912154967630e-01  3.3592548998794108e-01  3.2360679252172786e-01  3.1172377135545842e-01  3.0049468250058564e-01  2.8999674324084967e-01  2.7998282589541013e-01  2.6953343868101781e-01  2.5642678031300298e-01  2.3621702270861147e-01  2.0454924590202969e-01  3.1908943555119618e-01  3.1985276283156666e-01  2.2158043857797174e-01  2.9690641450679017e-01  3.6033707061234183e-01  4.0804448584047570e-01  4.4353425384798967e-01  4.6919164985107470e-01  4.8659331155515489e-01  4.9728473133847811e-01  5.0286094553094574e-01  5.0476376376701348e-01  5.0416256719154406e-01  5.0192238843789561e-01  4.9863813276236640e-01  4.9469136749345649e-01  4.9030675684485692e-01  4.8559835390940365e-01  4.8060407544156036e-01  4.7530997248408491e-01  4.6966688533316947e-01  4.6360199713914096e-01  4.5702741314920620e-01  4.4984748444091371e-01  4.4196624598348261e-01  4.3329602689281055e-01  4.2376794226578279e-01  4.1334449338920315e-01  4.0203378283638580e-01  3.8990380692054211e-01  3.7709390784717628e-01  3.6381877449497857e-01  3.5035844345345368e-01  3.3702543078014802e-01  3.2409596338968955e-01  3.1168288085925733e-01  2.9950627142943265e-01  2.8647838131529935e-01  2.7000450369648321e-01  2.4513612478636693e-01  2.0779464827031030e-01  3.1947234886347964e-01  3.1888795982735535e-01  2.0836337506530728e-01  2.5403447677463542e-01  2.9470488761500313e-01  3.3189219035009443e-01  3.6656210026172503e-01  3.9756348654499996e-01  4.2365161907793569e-01  4.4445491046759578e-01  4.6032725121902479e-01  4.7199692398203463e-01  4.8028024668531039e-01  4.8592124158279643e-01  4.8953108704204873e-01  4.9157978598969315e-01  4.9241103873451375e-01  4.9226360123455304e-01  4.9129173884008687e-01  4.8958218446833712e-01  4.8716735012852364e-01  4.8403550985841248e-01  4.8013903401296243e-01  4.7540187504216985e-01  4.6972754555693774e-01  4.6300882328640308e-01  4.5514031278514738e-01  4.4603467179335954e-01  4.3564259125031218e-01  4.2397529793994659e-01  4.1112625579509016e-01  3.9728578897603983e-01  3.8273889052476812e-01  3.6783255090465800e-01  3.5289428179367527e-01  3.3807587019742846e-01  3.2307490593071270e-01  3.0664412144989989e-01  2.8580920225174788e-01  2.5513868258916739e-01  2.1121725500948876e-01  3.1987126695189594e-01  3.1811276835384611e-01  1.9947188931657564e-01  2.2813068266753825e-01  2.5433912796755120e-01  2.8214202788737242e-01  3.1260995123999458e-01  3.4385871355831021e-01  3.7360831620667917e-01  4.0029309731177559e-01  4.2320857861512673e-01  4.4229562478921852e-01  4.5785536312787301e-01  4.7034040740183453e-01  4.8022985222582060e-01  4.8796486698408564e-01  4.9392116021278376e-01  4.9840079625165584e-01  5.0163317227721993e-01  5.0377959493793745e-01  5.0493875842886893e-01  5.0515203313764689e-01  5.0440841412076498e-01  5.0264958483367528e-01  4.9977601029311142e-01  4.9565535136994421e-01  4.9013475535184314e-01  4.8305858410179836e-01  4.7429261662161648e-01  4.6375432418100448e-01  4.5144599987489470e-01  4.3748313804176753e-01  4.2210488367463883e-01  4.0564705952325081e-01  3.8845414325088423e-01  3.7069943611066525e-01  3.5205962543383229e-01  3.3114368362044327e-01  3.0460746954372531e-01  2.6657577514854092e-01  2.1484383062322238e-01  3.2028123773532186e-01  3.1746690195738358e-01  1.9256730300413741e-01  2.1018680314282104e-01  2.2799317100783054e-01  2.4974565427265211e-01  2.7633882380921748e-01  3.0616965255794165e-01  3.3694428514717922e-01  3.6666566182566029e-01  3.9401434442660305e-01  4.1832829706562713e-01  4.3943029670786354e-01  4.5744588347597942e-01  4.7265973832650843e-01  4.8541900358235746e-01  4.9607381331639411e-01  5.0494320479133448e-01  5.1229692619756251e-01  5.1834649153040535e-01  5.2324124635532587e-01  5.2706692125465837e-01  5.2984538600374576e-01  5.3153526674599050e-01  5.3203390766050462e-01  5.3118193059843244e-01  5.2877235833015113e-01  5.2456675562378108e-01  5.1832072393506301e-01  5.0981970874850968e-01  4.9892260472282973e-01  4.8560469681150664e-01  4.6998319052512810e-01  4.5230069768038561e-01  4.3283835416636968e-01  4.1172057172374638e-01  3.8855751228192442e-01  3.6180337140908236e-01  3.2774621048054536e-01  2.8012747038327740e-01  2.1877147668329874e-01  3.2069789694205919e-01  3.1698438167951171e-01  1.8744566466479776e-01  1.9777327404470110e-01  2.1079727699279413e-01  2.2916984939711468e-01  2.5336079799179012e-01  2.8200478525825762e-01  3.1300630770333854e-01  3.443207918