<?xml version="1.0"?>
<VTKFile type="UnstructuredGrid"  version="0.1"  >
<UnstructuredGrid>
<Piece  NumberOfPoints="1681" NumberOfCells="3200">
<Points>
<DataArray  type="Float64"  NumberOfComponents="3"  format="ascii">0 0 0  0.025 0 0  0.05 0 0  0.075 0 0  0.1 0 0  0.125 0 0  0.15 0 0  0.175 0 0  0.2 0 0  0.225 0 0  0.25 0 0  0.275 0 0  0.3 0 0  0.325 0 0  0.35 0 0  0.375 0 0  0.4 0 0  0.425 0 0  0.45 0 0  0.475 0 0  0.5 0 0  0.525 0 0  0.55 0 0  0.575 0 0  0.6 0 0  0.625 0 0  0.65 0 0  0.675 0 0  0.7 0 0  0.725 0 0  0.75 0 0  0.775 0 0  0.8 0 0  0.825 0 0  0.85 0 0  0.875 0 0  0.9 0 0  0.925 0 0  0.95 0 0  0.975 0 0  1 0 0  0 0.025 0  0.025 0.025 0  0.05 0.025 0  0.075 0.025 0  0.1 0.025 0  0.125 0.025 0  0.15 0.025 0  0.175 0.025 0  0.2 0.025 0  0.225 0.025 0  0.25 0.025 0  0.275 0.025 0  0.3 0.025 0  0.325 0.025 0  0.35 0.025 0  0.375 0.025 0  0.4 0.025 0  0.425 0.025 0  0.45 0.025 0  0.475 0.025 0  0.5 0.025 0  0.525 0.025 0  0.55 0.025 0  0.575 0.025 0  0.6 0.025 0  0.625 0.025 0  0.65 0.025 0  0.675 0.025 0  0.7 0.025 0  0.725 0.025 0  0.75 0.025 0  0.775 0.025 0  0.8 0.025 0  0.825 0.025 0  0.85 0.025 0  0.875 0.025 0  0.9 0.025 0  0.925 0.025 0  0.95 0.025 0  0.975 0.025 0  1 0.025 0  0 0.05 0  0.025 0.05 0  0.05 0.05 0  0.075 0.05 0  0.1 0.05 0  0.125 0.05 0  0.15 0.05 0  0.175 0.05 0  0.2 0.05 0  0.225 0.05 0  0.25 0.05 0  0.275 0.05 0  0.3 0.05 0  0.325 0.05 0  0.35 0.05 0  0.375 0.05 0  0.4 0.05 0  0.425 0.05 0  0.45 0.05 0  0.475 0.05 0  0.5 0.05 0  0.525 0.05 0  0.55 0.05 0  0.575 0.05 0  0.6 0.05 0  0.625 0.05 0  0.65 0.05 0  0.675 0.05 0  0.7 0.05 0  0.725 0.05 0  0.75 0.05 0  0.775 0.05 0  0.8 0.05 0  0.825 0.05 0  0.85 0.05 0  0.875 0.05 0  0.9 0.05 0  0.925 0.05 0  0.95 0.05 0  0.975 0.05 0  1 0.05 0  0 0.075 0  0.025 0.075 0  0.05 0.075 0  0.075 0.075 0  0.1 0.075 0  0.125 0.075 0  0.15 0.075 0  0.175 0.075 0  0.2 0.075 0  0.225 0.075 0  0.25 0.075 0  0.275 0.075 0  0.3 0.075 0  0.325 0.075 0  0.35 0.075 0  0.375 0.075 0  0.4 0.075 0  0.425 0.075 0  0.45 0.075 0  0.475 0.075 0  0.5 0.075 0  0.525 0.075 0  0.55 0.075 0  0.575 0.075 0  0.6 0.075 0  0.625 0.075 0  0.65 0.075 0  0.675 0.075 0  0.7 0.075 0  0.725 0.075 0  0.75 0.075 0  0.775 0.075 0  0.8 0.075 0  0.825 0.075 0  0.85 0.075 0  0.875 0.075 0  0.9 0.075 0  0.925 0.075 0  0.95 0.075 0  0.975 0.075 0  1 0.075 0  0 0.1 0  0.025 0.1 0  0.05 0.1 0  0.075 0.1 0  0.1 0.1 0  0.125 0.1 0  0.15 0.1 0  0.175 0.1 0  0.2 0.1 0  0.225 0.1 0  0.25 0.1 0  0.275 0.1 0  0.3 0.1 0  0.325 0.1 0  0.35 0.1 0  0.375 0.1 0  0.4 0.1 0  0.425 0.1 0  0.45 0.1 0  0.475 0.1 0  0.5 0.1 0  0.525 0.1 0  0.55 0.1 0  0.575 0.1 0  0.6 0.1 0  0.625 0.1 0  0.65 0.1 0  0.675 0.1 0  0.7 0.1 0  0.725 0.1 0  0.75 0.1 0  0.775 0.1 0  0.8 0.1 0  0.825 0.1 0  0.85 0.1 0  0.875 0.1 0  0.9 0.1 0  0.925 0.1 0  0.95 0.1 0  0.975 0.1 0  1 0.1 0  0 0.125 0  0.025 0.125 0  0.05 0.125 0  0.075 0.125 0  0.1 0.125 0  0.125 0.125 0  0.15 0.125 0  0.175 0.125 0  0.2 0.125 0  0.225 0.125 0  0.25 0.125 0  0.275 0.125 0  0.3 0.125 0  0.325 0.125 0  0.35 0.125 0  0.375 0.125 0  0.4 0.125 0  0.425 0.125 0  0.45 0.125 0  0.475 0.125 0  0.5 0.125 0  0.525 0.125 0  0.55 0.125 0  0.575 0.125 0  0.6 0.125 0  0.625 0.125 0  0.65 0.125 0  0.675 0.125 0  0.7 0.125 0  0.725 0.125 0  0.75 0.125 0  0.775 0.125 0  0.8 0.125 0  0.825 0.125 0  0.85 0.125 0  0.875 0.125 0  0.9 0.125 0  0.925 0.125 0  0.95 0.125 0  0.975 0.125 0  1 0.125 0  0 0.15 0  0.025 0.15 0  0.05 0.15 0  0.075 0.15 0  0.1 0.15 0  0.125 0.15 0  0.15 0.15 0  0.175 0.15 0  0.2 0.15 0  0.225 0.15 0  0.25 0.15 0  0.275 0.15 0  0.3 0.15 0  0.325 0.15 0  0.35 0.15 0  0.375 0.15 0  0.4 0.15 0  0.425 0.15 0  0.45 0.15 0  0.475 0.15 0  0.5 0.15 0  0.525 0.15 0  0.55 0.15 0  0.575 0.15 0  0.6 0.15 0  0.625 0.15 0  0.65 0.15 0  0.675 0.15 0  0.7 0.15 0  0.725 0.15 0  0.75 0.15 0  0.775 0.15 0  0.8 0.15 0  0.825 0.15 0  0.85 0.15 0  0.875 0.15 0  0.9 0.15 0  0.925 0.15 0  0.95 0.15 0  0.975 0.15 0  1 0.15 0  0 0.175 0  0.025 0.175 0  0.05 0.175 0  0.075 0.175 0  0.1 0.175 0  0.125 0.175 0  0.15 0.175 0  0.175 0.175 0  0.2 0.175 0  0.225 0.175 0  0.25 0.175 0  0.275 0.175 0  0.3 0.175 0  0.325 0.175 0  0.35 0.175 0  0.375 0.175 0  0.4 0.175 0  0.425 0.175 0  0.45 0.175 0  0.475 0.175 0  0.5 0.175 0  0.525 0.175 0  0.55 0.175 0  0.575 0.175 0  0.6 0.175 0  0.625 0.175 0  0.65 0.175 0  0.675 0.175 0  0.7 0.175 0  0.725 0.175 0  0.75 0.175 0  0.775 0.175 0  0.8 0.175 0  0.825 0.175 0  0.85 0.175 0  0.875 0.175 0  0.9 0.175 0  0.925 0.175 0  0.95 0.175 0  0.975 0.175 0  1 0.175 0  0 0.2 0  0.025 0.2 0  0.05 0.2 0  0.075 0.2 0  0.1 0.2 0  0.125 0.2 0  0.15 0.2 0  0.175 0.2 0  0.2 0.2 0  0.225 0.2 0  0.25 0.2 0  0.275 0.2 0  0.3 0.2 0  0.325 0.2 0  0.35 0.2 0  0.375 0.2 0  0.4 0.2 0  0.425 0.2 0  0.45 0.2 0  0.475 0.2 0  0.5 0.2 0  0.525 0.2 0  0.55 0.2 0  0.575 0.2 0  0.6 0.2 0  0.625 0.2 0  0.65 0.2 0  0.675 0.2 0  0.7 0.2 0  0.725 0.2 0  0.75 0.2 0  0.775 0.2 0  0.8 0.2 0  0.825 0.2 0  0.85 0.2 0  0.875 0.2 0  0.9 0.2 0  0.925 0.2 0  0.95 0.2 0  0.975 0.2 0  1 0.2 0  0 0.225 0  0.025 0.225 0  0.05 0.225 0  0.075 0.225 0  0.1 0.225 0  0.125 0.225 0  0.15 0.225 0  0.175 0.225 0  0.2 0.225 0  0.225 0.225 0  0.25 0.225 0  0.275 0.225 0  0.3 0.225 0  0.325 0.225 0  0.35 0.225 0  0.375 0.225 0  0.4 0.225 0  0.425 0.225 0  0.45 0.225 0  0.475 0.225 0  0.5 0.225 0  0.525 0.225 0  0.55 0.225 0  0.575 0.225 0  0.6 0.225 0  0.625 0.225 0  0.65 0.225 0  0.675 0.225 0  0.7 0.225 0  0.725 0.225 0  0.75 0.225 0  0.775 0.225 0  0.8 0.225 0  0.825 0.225 0  0.85 0.225 0  0.875 0.225 0  0.9 0.225 0  0.925 0.225 0  0.95 0.225 0  0.975 0.225 0  1 0.225 0  0 0.25 0  0.025 0.25 0  0.05 0.25 0  0.075 0.25 0  0.1 0.25 0  0.125 0.25 0  0.15 0.25 0  0.175 0.25 0  0.2 0.25 0  0.225 0.25 0  0.25 0.25 0  0.275 0.25 0  0.3 0.25 0  0.325 0.25 0  0.35 0.25 0  0.375 0.25 0  0.4 0.25 0  0.425 0.25 0  0.45 0.25 0  0.475 0.25 0  0.5 0.25 0  0.525 0.25 0  0.55 0.25 0  0.575 0.25 0  0.6 0.25 0  0.625 0.25 0  0.65 0.25 0  0.675 0.25 0  0.7 0.25 0  0.725 0.25 0  0.75 0.25 0  0.775 0.25 0  0.8 0.25 0  0.825 0.25 0  0.85 0.25 0  0.875 0.25 0  0.9 0.25 0  0.925 0.25 0  0.95 0.25 0  0.975 0.25 0  1 0.25 0  0 0.275 0  0.025 0.275 0  0.05 0.275 0  0.075 0.275 0  0.1 0.275 0  0.125 0.275 0  0.15 0.275 0  0.175 0.275 0  0.2 0.275 0  0.225 0.275 0  0.25 0.275 0  0.275 0.275 0  0.3 0.275 0  0.325 0.275 0  0.35 0.275 0  0.375 0.275 0  0.4 0.275 0  0.425 0.275 0  0.45 0.275 0  0.475 0.275 0  0.5 0.275 0  0.525 0.275 0  0.55 0.275 0  0.575 0.275 0  0.6 0.275 0  0.625 0.275 0  0.65 0.275 0  0.675 0.275 0  0.7 0.275 0  0.725 0.275 0  0.75 0.275 0  0.775 0.275 0  0.8 0.275 0  0.825 0.275 0  0.85 0.275 0  0.875 0.275 0  0.9 0.275 0  0.925 0.275 0  0.95 0.275 0  0.975 0.275 0  1 0.275 0  0 0.3 0  0.025 0.3 0  0.05 0.3 0  0.075 0.3 0  0.1 0.3 0  0.125 0.3 0  0.15 0.3 0  0.175 0.3 0  0.2 0.3 0  0.225 0.3 0  0.25 0.3 0  0.275 0.3 0  0.3 0.3 0  0.325 0.3 0  0.35 0.3 0  0.375 0.3 0  0.4 0.3 0  0.425 0.3 0  0.45 0.3 0  0.475 0.3 0  0.5 0.3 0  0.525 0.3 0  0.55 0.3 0  0.575 0.3 0  0.6 0.3 0  0.625 0.3 0  0.65 0.3 0  0.675 0.3 0  0.7 0.3 0  0.725 0.3 0  0.75 0.3 0  0.775 0.3 0  0.8 0.3 0  0.825 0.3 0  0.85 0.3 0  0.875 0.3 0  0.9 0.3 0  0.925 0.3 0  0.95 0.3 0  0.975 0.3 0  1 0.3 0  0 0.325 0  0.025 0.325 0  0.05 0.325 0  0.075 0.325 0  0.1 0.325 0  0.125 0.325 0  0.15 0.325 0  0.175 0.325 0  0.2 0.325 0  0.225 0.325 0  0.25 0.325 0  0.275 0.325 0  0.3 0.325 0  0.325 0.325 0  0.35 0.325 0  0.375 0.325 0  0.4 0.325 0  0.425 0.325 0  0.45 0.325 0  0.475 0.325 0  0.5 0.325 0  0.525 0.325 0  0.55 0.325 0  0.575 0.325 0  0.6 0.325 0  0.625 0.325 0  0.65 0.325 0  0.675 0.325 0  0.7 0.325 0  0.725 0.325 0  0.75 0.325 0  0.775 0.325 0  0.8 0.325 0  0.825 0.325 0  0.85 0.325 0  0.875 0.325 0  0.9 0.325 0  0.925 0.325 0  0.95 0.325 0  0.975 0.325 0  1 0.325 0  0 0.35 0  0.025 0.35 0  0.05 0.35 0  0.075 0.35 0  0.1 0.35 0  0.125 0.35 0  0.15 0.35 0  0.175 0.35 0  0.2 0.35 0  0.225 0.35 0  0.25 0.35 0  0.275 0.35 0  0.3 0.35 0  0.325 0.35 0  0.35 0.35 0  0.375 0.35 0  0.4 0.35 0  0.425 0.35 0  0.45 0.35 0  0.475 0.35 0  0.5 0.35 0  0.525 0.35 0  0.55 0.35 0  0.575 0.35 0  0.6 0.35 0  0.625 0.35 0  0.65 0.35 0  0.675 0.35 0  0.7 0.35 0  0.725 0.35 0  0.75 0.35 0  0.775 0.35 0  0.8 0.35 0  0.825 0.35 0  0.85 0.35 0  0.875 0.35 0  0.9 0.35 0  0.925 0.35 0  0.95 0.35 0  0.975 0.35 0  1 0.35 0  0 0.375 0  0.025 0.375 0  0.05 0.375 0  0.075 0.375 0  0.1 0.375 0  0.125 0.375 0  0.15 0.375 0  0.175 0.375 0  0.2 0.375 0  0.225 0.375 0  0.25 0.375 0  0.275 0.375 0  0.3 0.375 0  0.325 0.375 0  0.35 0.375 0  0.375 0.375 0  0.4 0.375 0  0.425 0.375 0  0.45 0.375 0  0.475 0.375 0  0.5 0.375 0  0.525 0.375 0  0.55 0.375 0  0.575 0.375 0  0.6 0.375 0  0.625 0.375 0  0.65 0.375 0  0.675 0.375 0  0.7 0.375 0  0.725 0.375 0  0.75 0.375 0  0.775 0.375 0  0.8 0.375 0  0.825 0.375 0  0.85 0.375 0  0.875 0.375 0  0.9 0.375 0  0.925 0.375 0  0.95 0.375 0  0.975 0.375 0  1 0.375 0  0 0.4 0  0.025 0.4 0  0.05 0.4 0  0.075 0.4 0  0.1 0.4 0  0.125 0.4 0  0.15 0.4 0  0.175 0.4 0  0.2 0.4 0  0.225 0.4 0  0.25 0.4 0  0.275 0.4 0  0.3 0.4 0  0.325 0.4 0  0.35 0.4 0  0.375 0.4 0  0.4 0.4 0  0.425 0.4 0  0.45 0.4 0  0.475 0.4 0  0.5 0.4 0  0.525 0.4 0  0.55 0.4 0  0.575 0.4 0  0.6 0.4 0  0.625 0.4 0  0.65 0.4 0  0.675 0.4 0  0.7 0.4 0  0.725 0.4 0  0.75 0.4 0  0.775 0.4 0  0.8 0.4 0  0.825 0.4 0  0.85 0.4 0  0.875 0.4 0  0.9 0.4 0  0.925 0.4 0  0.95 0.4 0  0.975 0.4 0  1 0.4 0  0 0.425 0  0.025 0.425 0  0.05 0.425 0  0.075 0.425 0  0.1 0.425 0  0.125 0.425 0  0.15 0.425 0  0.175 0.425 0  0.2 0.425 0  0.225 0.425 0  0.25 0.425 0  0.275 0.425 0  0.3 0.425 0  0.325 0.425 0  0.35 0.425 0  0.375 0.425 0  0.4 0.425 0  0.425 0.425 0  0.45 0.425 0  0.475 0.425 0  0.5 0.425 0  0.525 0.425 0  0.55 0.425 0  0.575 0.425 0  0.6 0.425 0  0.625 0.425 0  0.65 0.425 0  0.675 0.425 0  0.7 0.425 0  0.725 0.425 0  0.75 0.425 0  0.775 0.425 0  0.8 0.425 0  0.825 0.425 0  0.85 0.425 0  0.875 0.425 0  0.9 0.425 0  0.925 0.425 0  0.95 0.425 0  0.975 0.425 0  1 0.425 0  0 0.45 0  0.02
[...]
<PointData  Scalars="ControlVisualisation"> 
<DataArray  type="Float64"  Name="ControlVisualisation"  format="ascii">4.8995868914162871e-01  4.8993752515092898e-01  4.8993777740124411e-01  4.8994142584912714e-01  4.8994861609256812e-01  4.8995752002409199e-01  4.8996619091257659e-01  4.8997340750269103e-01  4.8997871936036647e-01  4.8998218006338684e-01  4.8998407681249523e-01  4.8998475394951396e-01  4.8998452551830213e-01  4.8998364449312365e-01  4.8998230072970261e-01  4.8998063046044843e-01  4.8997872859062225e-01  4.8997666006452562e-01  4.8997446910994191e-01  4.8997218628784173e-01  4.8996983367793839e-01  4.8996742861200987e-01  4.8996498632264218e-01  4.8996252179493033e-01  4.8996005102943324e-01  4.8995759185891313e-01  4.8995516441148756e-01  4.8995279127762992e-01  4.8995049741624142e-01  4.8994830982494447e-01  4.8994625700343813e-01  4.8994436826223509e-01  4.8994267298631178e-01  4.8994120007491082e-01  4.8993997787140042e-01  4.8993903473730022e-01  4.8993839834027636e-01  4.8993808373638442e-01  4.8993804769667898e-01  4.8993812354693306e-01  4.8997938457877149e-01  4.8993745583817622e-01  4.8987773953689412e-01  4.8989811060276017e-01  4.8995079261517360e-01  4.9003599746414472e-01  4.9013754622593636e-01  4.9023632140350154e-01  4.9031949875103936e-01  4.9038189412383926e-01  4.9042367609158022e-01  4.9044767643418075e-01  4.9045751195879328e-01  4.9045659388195445e-01  4.9044774055023360e-01  4.9043311446722282e-01  4.9041430037643913e-01  4.9039242588423076e-01  4.9036827970044872e-01  4.9034241116436733e-01  4.9031520808174861e-01  4.9028695520202092e-01  4.9025787714356500e-01  4.9022816944517966e-01  4.9019802074310681e-01  4.9016762830877147e-01  4.9013720851004478e-01  4.9010700322919337e-01  4.9007728288593405e-01  4.9004834646258283e-01  4.9002051880320291e-01  4.8999414546746334e-01  4.8996958559450460e-01  4.8994720363180416e-01  4.8992736134744375e-01  4.8991041160666526e-01  4.8989669223005117e-01  4.8988650041863246e-01  4.8987998450838960e-01  4.8987685140737464e-01  4.8987609364439438e-01  4.8993812349689647e-01  4.8993712155987690e-01  4.8989854866567167e-01  4.8999052140255828e-01  4.9014853588735868e-01  4.9036165396358927e-01  4.9059859051235560e-01  4.9082251774296964e-01  4.9100859890708609e-01  4.9114721620426482e-01  4.9123952964118506e-01  4.9129202980373426e-01  4.9131271927431652e-01  4.9130909424333791e-01  4.9128735451128408e-01  4.9125227833810869e-01  4.9120738953709797e-01  4.9115521460012473e-01  4.9109753626195557e-01  4.9103560862435303e-01  4.9097032686700443e-01  4.9090235592974218e-01  4.9083222590600267e-01  4.9076040179014407e-01  4.9068733389153962e-01  4.9061349366052182e-01  4.9053939826053372e-01  4.9046562609192501e-01  4.9039282464268508e-01  4.9032171149319526e-01  4.9025306902070109e-01  4.9018773333103305e-01  4.9012657818262523e-01  4.9007049504905714e-01  4.9002037035913321e-01  4.8997705805953995e-01  4.8994133290514180e-01  4.8991377360694566e-01  4.8989447223887211e-01  4.8988259052228611e-01  4.8987684641936585e-01  4.8993804646485489e-01  4.8993963956061209e-01  4.8996483585650746e-01  4.9019761242379262e-01  4.9048334052256526e-01  4.9078893263357315e-01  4.9109117643885508e-01  4.9135978707996375e-01  4.9157419735139629e-01  4.9172824476525934e-01  4.9182608375200493e-01  4.9187665682984733e-01  4.9188986532608198e-01  4.9187461955599954e-01  4.9183814621794503e-01  4.9178595612765946e-01  4.9172208882630947e-01  4.9164943098350511e-01  4.9157001722809796e-01  4.9148528131666069e-01  4.9139625320381336e-01  4.9130370849088689e-01  4.9120827963148811e-01  4.9111053776649960e-01  4.9101105238177295e-01  4.9091043412422469e-01  4.9080936446755796e-01  4.9070861460835752e-01  4.9060905500955682e-01  4.9051165637089772e-01  4.9041748246530448e-01  4.9032767518524917e-01  4.9024343213159444e-01  4.9016597661848466e-01  4.9009651738443755e-01  4.9003618610873084e-01  4.8998591518276868e-01  4.8994616568827642e-01  4.8991639296052453e-01  4.8989462048404592e-01  4.8987999434314994e-01  4.8993807737150491e-01  4.8994785148048864e-01  4.9012111496033189e-01  4.9063568802550878e-01  4.9108225747994405e-01  4.9141897339654333e-01  4.9168706536520129e-01  4.9189975244761314e-01  4.9205660692789260e-01  4.9215948018555233e-01  4.9221477308298373e-01  4.9223106564939073e-01  4.9221689867432955e-01  4.9217961915522745e-01  4.9212503770321891e-01  4.9205751135337489e-01  4.9198019301697932e-01  4.9189531201538989e-01  4.9180442724746876e-01  4.9170863476286847e-01  4.9160872970976727e-01  4.9150532937477770e-01  4.9139896540832745e-01  4.9129015248542485e-01  4.9117943910051326e-01  4.9106744459814339e-01  4.9095488515344016e-01  4.9084259031292460e-01  4.9073151089146405e-01  4.9062271847404787e-01  4.9051739644551856e-01  4.9041682224226563e-01  4.9032234000467279e-01  4.9023532091717908e-01  4.9015710227503245e-01  4.9008887865618145e-01  4.9003147567546018e-01  4.8998485986448786e-01  4.8994724389235877e-01  4.8991463086843967e-01  4.8988666749471005e-01  4.8993838533811956e-01  4.8996615938061794e-01  4.9053246874875744e-01  4.9160320601796098e-01  4.9220904221860406e-01  4.9242860746008449e-01  4.9250938486287155e-01  4.9254711996477823e-01  4.9256191336080773e-01  4.9255593762553074e-01  4.9253039011781408e-01  4.9248779032717438e-01  4.9243122843009857e-01  4.9236361445888205e-01  4.9228733925087953e-01  4.9220421304110645e-01  4.9211553485629639e-01  4.9202220516267903e-01  4.9192484024912725e-01  4.9182387230098551e-01  4.9171963133264102e-01  4.9161241022591717e-01  4.9150251571364906e-01  4.9139030818200968e-01  4.9127623258909076e-01  4.9116084205255345e-01  4.9104481493951929e-01  4.9092896567697480e-01  4.9081424902000564e-01  4.9070175716648740e-01  4.9059270883640588e-01  4.9048842903602013e-01  4.9039031706378255e-01  4.9029979661384143e-01  4.9021823091798666e-01  4.9014675679187319e-01  4.9008592286700858e-01  4.9003489625177571e-01  4.8999002106314865e-01  4.8994420011336043e-01  4.8989742595203423e-01  4.8993902775218318e-01  4.9021740317878748e-01  4.9198056856656652e-01  4.9390430171312294e-01  4.9429817288156364e-01  4.9400219682741087e-01  4.9363480022682776e-01  4.9334551243328489e-01  4.9313155063187508e-01  4.9296703819944493e-01  4.9283192806396209e-01  4.9271384090694920e-01  4.9260550309803064e-01  4.9250260070576257e-01  4.9240248119836000e-01  4.9230343391023557e-01  4.9220430189967979e-01  4.9210427399790302e-01  4.9200277411183074e-01  4.9189940343778060e-01  4.9179391194020622e-01  4.9168618634063882e-01  4.9157624756472201e-01  4.9146425355695317e-01  4.9135050487264259e-01  4.9123545117117851e-01  4.9111969702553954e-01  4.9100400553347684e-01  4.9088929817911181e-01  4.9077664929946468e-01  4.9066727330971738e-01  4.9056250224359421e-01  4.9046374922484332e-01  4.9037244754018783e-01  4.9028993797681514e-01  4.9021723228399139e-01  4.9015447508415805e-01  4.9009973983235927e-01  4.9004682534058247e-01  4.8998436153225339e-01  4.8991254602271733e-01  4.8994001675590448e-01  4.9344105898613855e-01  4.9761352071743065e-01  4.9899363779554939e-01  4.9776666262027819e-01  4.9619949103686273e-01  4.9503515032877138e-01  4.9426009465655801e-01  4.9374417129072756e-01  4.9338697519941893e-01  4.9312645674973576e-01  4.9292578552312644e-01  4.9276283276165778e-01  4.9262391851309684e-01  4.9250031408420331e-01  4.9238628453824212e-01  4.9227796788594252e-01  4.9217271508829458e-01  4.9206869112864743e-01  4.9196462881069652e-01  4.9185967481247228e-01  4.9175329312647065e-01  4.9164520508191600e-01  4.9153535306571128e-01  4.9142387960482198e-01  4.9131111610747036e-01  4.9119757708044021e-01  4.9108395649431408e-01  4.9097112341623095e-01  4.9086011419670028e-01  4.9075211834648036e-01  4.9064845437718585e-01  4.9055052895928775e-01  4.9045976392452345e-01  4.9037745063739385e-01  4.9030442558812770e-01  4.9024030671485552e-01  4.9018175815531323e-01  4.9011930105633850e-01  4.9003605140683981e-01  4.8993231230494499e-01  4.8994136448700887e-01  5.0356771202201067e-01  5.1165787345339842e-01  5.0740169796420587e-01  5.0233291546199965e-01  4.9873714679099607e-01  4.9651914544197728e-01  4.9517294763178099e-01  4.9432978942839223e-01  4.9377602904104961e-01  4.9339337874421846e-01  4.9311518764607504e-01  4.9290255069460148e-01  4.9273185485598875e-01  4.9258824180264854e-01  4.9246206928246355e-01  4.9234692159028698e-01  4.9223844853532212e-01  4.9213366490782906e-01  4.9203051604746700e-01  4.9192760293158916e-01  4.9182400611109950e-01  4.9171917266017517e-01  4.9161284418131890e-01  4.9150501187472079e-01  4.9139588934871842e-01  4.9128589660481498e-01  4.9117565024060045e-01  4.9106595580451984e-01  4.9095779861711714e-01  4.9085232920789124e-01  4.9075083826830440e-01  4.9065471182015102e-01  4.9056534476861929e-01  4.9048395580564486e-01  4.9041115459784435e-01  4.9034589705866466e-01  4.9028308861149966e-01  4.9020917264475178e-01  4.9010040940536526e-01  4.8995713003533164e-01  4.8994309509749695e-01  5.1363123423776558e-01  5.2757168332826909e-01  5.1575497320126340e-01  5.0652357651560576e-01  5.0093525321542831e-01  4.9775073425809463e-01  4.9590781875232259e-01  4.9479146218552861e-01  4.9407927380501032e-01  4.9360119646313855e-01  4.9326418351832368e-01  4.9301500702358581e-01  4.9282184046665256e-01  4.9266489307121064e-01  4.9253144515513653e-01  4.9241310128604743e-01  4.9230420657672003e-01  4.9220089913715503e-01  4.9210052521468051e-01  4.9200126936881361e-01  4.9190191678775802e-01  4.9180169939871438e-01  4.9170019649723928e-01  4.9159727148101989e-01  4.9149303260907590e-01  4.9138780944972060e-01  4.9128213887243738e-01  4.9117675564804270e-01  4.9107258321439490e-01  4.9097071987616409e-01  4.9087241389586334e-01  4.9077901506559274e-01  4.9069187315777096e-01  4.9061210582561737e-01  4.9054003426313425e-01  4.9047379614057612e-01  4.9040614420059281e-01  4.9031855082857390e-01  4.9017892645300787e-01  4.8998756253455927e-01  4.8994524608511075e-01  5.1669827328953843e-01  5.3487646139009037e-01  5.1977103085503684e-01  5.0859699724884000e-01  5.0204705949230433e-01  4.9838666344086902e-01  4.9629347072794322e-01  4.9503819260743803e-01  4.9424586009367572e-01  4.9372035485627414e-01  4.9335512557493216e-01  4.9308952530332867e-01  4.9288744380687655e-01  4.9272650489687286e-01  4.9259236767261527e-01  4.9247558804838748e-01  4.9236981563208077e-01  4.9227071744003226e-01  4.9217531409800602e-01  4.9208155967268224e-01  4.9198807083260354e-01  4.9189395061595287e-01  4.9179867384260867e-01  4.9170201355860144e-01  4.9160399509538272e-01  4.9150486857373255e-01  4.9140509316183895e-01  4.9130532773666380e-01  4.9120642306470280e-01  4.9110941006827735e-01  4.9101547615707536e-01  4.9092591362291582e-01  4.9084200116364601e-01  4.9076471645202896e-01  4.9069401458945916e-01  4.9062703010589925e-01  4.9055390897105039e-01  4.9045013074221266e-01  4.9027355022010988e-01  4.9002435921345827e-01  4.8994786898420678e-01  5.1105851732001195e-01  5.2937244062304445e-01  5.1743968952999997e-01  5.0769504271465793e-01  5.0169424835287557e-01  4.9824437236053909e-01  4.9623606005934667e-01  4.9501907389125455e-01  4.9424658036721419e-01  4.9373325609126228e-01  4.9337697194042807e-01  4.9311896001647620e-01  4.9292394529791816e-01  4.9276992821459303e-01  4.9264273708340994e-01  4.9253300138069434e-01  4.9243439962030749e-01  4.9234260642913596e-01  4.9225463894283511e-01  4.9216844045069758e-01  4.9208261029327538e-01  4.9199622697777790e-01  4.9190873245711619e-01  4.9181985749113555e-01  4.9172957502011988e-01  4.9163807263780873e-01  4.9154573767082077e-01  4.9145314963022763e-01  4.9136107509814564e-01  4.9127045916102935e-01  4.9118240391861512e-01  4.9109811400713971e-01  4.9101875917668242e-01  4.9094512237776100e-01  4.9087669220535601e-01  4.9080937553424236e-01  4.9073017536965075e-01  4.9060738268217080e-01  4.9038680868733020e-01  4.9006849759557680e-01  4.8995103158911874e-01  4.9997305763283367e-01  5.1431130430335192e-01  5.0996262100051382e-01  5.0426075549344018e-01  5.0003861245894110e-01  4.9738406763761461e-01  4.9575882836572716e-01  4.9474264504674609e-01  4.9408392308892984e-01  4.9363991440827276e-01  4.9332877838293465e-01  4.9310207708027087e-01  4.9293011152574318e-01  4.9279404774646884e-01  4.9268159445532028e-01  4.9258454205231411e-01  4.9249730933057007e-01  4.9241605502193558e-01  4.9233811803788163e-01  4.9226165629695484e-01  4.9218540982507347e-01  4.9210854417090166e-01  4.9203054722798545e-01  4.9195116243665676e-01  4.9187034720967171e-01  4.9178824894564188e-01  4.9170519304023397e-01  4.9162167830289161e-01  4.9153837520173566e-01  4.9145612090441265e-01  4.9137590030122053e-01  4.9129878847325975e-01  4.9122579181558235e-01  4.9115742131633261e-01  4.9109256604442370e-01  4.9102562497033825e-01  4.9093980933892195e-01  4.9079479249112279e-01  4.9052198223267263e-01  4.9012124731139078e-01  4.8995482198028817e-01  4.9167647913353041e-01  4.9907662927739166e-01  5.0135815589199562e-01  4.9981527244372409e-01  4.9769197255345710e-01  4.9607557446031963e-01  4.9498949065777076e-01  4.9427245135228920e-01  4.9379080554601656e-01  4.9345787461282059e-01  4.9322006246495026e-01  4.9304406426101099e-01  4.9290873097495308e-01  4.9280029575724810e-01  4.9270959639977169e-01  4.9263042343097502e-01  4.9255851112482107e-01  4.9249090310822002e-01  4.9242554335487715e-01  4.9236100725027826e-01  4.9229632248663890e-01  4.9223084927277955e-01  4.9216420075332418e-01  4.9209619132879789e-01  4.9202680470959603e-01  4.9195617606907438e-01  4.9188458413151587e-01  4.9181244966131937e-01  4.9174033651095589e-01  4.9166894938837402e-01  4.9159911637718917e-01  4.9153172690437091e-01  4.9146754767527523e-01  4.9140670879281267e-01  4.9134731964035772e-01  4.9128191143645156e-01  4.9118909904011770e-01  4.9101819469895847e-01  4.9068335037051974e-01  4.9018426387465003e-01  4.8995935463746620e-01  4.9006698820226186e-01  4.9232341668557095e-01  4.9540227523995189e-01  4.9597839648477993e-01  4.9538041760065787e-01  4.9466584604691172e-01  4.9410359942334520e-01  4.9370204301966797e-01  4.9341919322558186e-01  4.9321696564797601e-01  4.9306839675881070e-01  4.9295546520312822e-01  4.9286619234031709e-01  4.9279254084710500e-01  4.9272905065912875e-01  4.9267197212495750e-01  4.9261871127948770e-01  4.9256746855831474e-01  4.9251699956497913e-01  4.9246645451205667e-01  4.9241526965261112e-01  4.9236309388786914e-01  4.9230973970589537e-01  4.9225515130050490e-01  4.9219938504795480e-01  4.9214259897835383e-01  4.9208504871453729e-01  4.9202708760219810e-01  4.9196916815514441e-01  4.9191183943553685e-01  4.9185572752318835e-01  4.9180146486881471e-01  4.9174947441993189e-01  4.9169935237633156e-01  4.9164817972478431e-01  4.9158614476244378e-01  4.9148624216647208e-01  4.9128524957743264e-01  4.9087654940082015e-01  4.9025972481511532e-01  4.8996477927859411e-01  4.8998496026569932e-01  4.9082543588469291e-01  4.9258941217500002e-01  4.9346011284663632e-01  4.9356407128684909e-01  4.9342093941246357e-01  4.9325535903909601e-01  4.9312275488037688e-01  4.9302444983614718e-01  4.9295148977801051e-01  4.9289542534549141e-01  4.9285012458913297e-01  4.9281142507921621e-01  4.9277655134555171e-01  4.9274365729745906e-01  4.9271151683074277e-01  4.9267932187892322e-01  4.9264655105694388e-01  4.9261288369473427e-01  4.9257814312308124e-01  4.9254225911871768e-01  4.9250524310356186e-01  4.9246717196501277e-01  4.9242817776494840e-01  4.9238844147784644e-01  4.9234818942768566e-01  4.9230769134714819e-01  4.9226725889740641e-01  4.9222724264765660e-01  4.9218802264429640e-01  4.9214997904623664e-01  4.9211340347487614e-01  4.9207823863151684e-01  4.9204333428965913e-01  4.9200439498406062e-01  4.9194862084550361e-01  4.9184204668992770e-01  4.9160614097120070e-01  4.9110909894342941e-01  4.9035052917640243e-01  4.8997129360146119e-01  4.8996879530740539e-01  4.9039639178055572e-01  4.9136013063263323e-01  4.9201011674868511e-01  4.9231069039391895e-01  4.9245060499362231e-01  4.9253598512171382e-01  4.9260077884529457e-01  4.9265269974563880e-01  4.9269316161763299e-01  4.9272287227177736e-01  4.9274291026332123e-01  4.9275458892865953e-01  4.9275923817395390e-01  4.9275807164187752e-01  4.9275213775761850e-01  4.9274231883524533e-01  4.9272935234361703e-01  4.9271385928477224e-01  4.9269637223551510e-01  4.9267735986069178e-01  4.9265724682963391e-01  4.9263642900669774e-01  4.9261528409150102e-01  4.9259417787886994e-01  4.9257346614966213e-01  4.9255349194953341e-01  4.9253457757716668e-01  4.9251700951709504e-01  4.9250101146803088e-01  4.9248669071450346e-01  4.9247391287760789e-01  4.9246197307296702e-01  4.9244868639241951e-01  4.9242788872663990e-01  4.9238289087562048e-01  4.9227096096295786e-01  4.9199462050956649e-01  4.9139119434812439e-01  4.9046059532412939e-01  4.8997916183658152e-01  4.8995563106271134e-01  4.9016314198540945e-01  4.9070732197984496e-01  4.9115830365652513e-01  4.9148442807960396e-01  4.9174763959420620e-01  4.9197573790248988e-01  4.9217202350451222e-01  4.9233553507853678e-01  4.9246707886504276e-01  4.9256975938025055e-01  4.9264786298950702e-01  4.9270586312971787e-01  4.9274786796922010e-01  4.9277739420443273e-01  4.9279733610605342e-01  4.9281002708218269e-01  4.9281733494548696e-01  4.9282076034033784e-01  4.9282152474845303e-01  4.9282064336177522e-01  4.9281898230588733e-01  4.9281730131740631e-01  4.9281628326666727e-01  4.9281655155769211e-01  4.9281867577564142e-01  4.9282316514983782e-01  4.9283044840273121e-01  4.9284083700139725e-01  4.9285446518206227e-01  4.9287118865557311e-01  4.9289039021105618e-01  4.9291053615214320e-01  4.9292803028132287e-01  4.9293414587453932e-01  4.9290701890137339e-01  4.9279262766133108e-01  4.9246961643745779e-01  4.9173693142691521e-01  4.9059531509315452e-01  4.8998874208893656e-01  4.8994714802791806e-01  4.9002572520732796e-01  4.9032912306906640e-01  4.9064109358423219e-01  4.9095019250531857e-01  4.9126481873881922e-01  4.9157091196404251e-01  4.9185025629344997e-01  4.9209144270595706e-01  4.9229103215178643e-01  4.9245122992511714e-01  4.9257708271048289e-01  4.9267454374902808e-01  4.9274937825292175e-01  4.9280666842050747e-01  4.9285067243925523e-01  4.9288486233774925e-01  4.9291203727436184e-01  4.9293445629587357e-01  4.9295396382955975e-01  4.9297209706360268e-01  4.9299017228705677e-01  4.9300935060844198e-01  4.9303068434732022e-01  4.9305514495426422e-01  4.9308363215927031e-01  4.9311696243982656e-01  4.9315583281979047e-01  4.9320075319183782e-01  4.9325193476776480e-01  4.9330910866569344e-01  4.9337120930849093e-01  4.9343573092701593e-01  4.9349722259465700e-01  4.9354344371375874e-01  4.9354546827636103e-01  4.9343430413153389e-01  4.9305778476175277e-01  4.9216625848883089e-01  4.9076226826755071e-01  4.9000052758090318e-01  4.8994171549993110e-01  4.8994118096888933e-01  4.9010134611786466e-01  4.9032858635078980e-01  4.9062082096600673e-01  4.9095886746141215e-01  4.9130827125373638e-01  4.9163839924188929e-01  4.9193039864186472e-01  4.9217694208945861e-01  4.9237862183868053e-01  4.9254029303064278e-01  4.9266848047260997e-01  4.9276984366812865e-01  4.9285043009482538e-01  4.9291540759961466e-01  4.9296905358970783e-01  4.9301486195045457e-01  4.9305568978269404e-01  4.9309390485900273e-01  4.9313151658641530e-01  4.9317028458284307e-01  4.9321180401450587e-01  4.9325756833810497e-01  4.9330900955725743e-01  4.9336751428220077e-01  4.9343441100950047e-01  4.9351091999982089e-01  4.9359805132401280e-01  4.9369642658072532e-01  4.9380598074891180e-01  4.9392544661084709e-01  4.9405137764316259e-01  4.9417605958391558e-01  4.9428246773201018e-01  4.9433182191799602e-01  4.9423465496531904e-01  4.9379775537843695e-01  4.9270827150380964e-01  4.9097238240037877e-01  4.9001520722140546e-01  4.8993888691048015e-01  4.8989693752386176e-01  4.8998257823648872e-01  4.9016703553041596e-01  4.9045199420664887e-01  4.9080395282906164e-01  4.9117799121301997e-01  4.9153701268346928e-01  4.918584245