<?xml version="1.0"?>
<VTKFile type="UnstructuredGrid"  version="0.1"  >
<UnstructuredGrid>
<Piece  NumberOfPoints="1681" NumberOfCells="3200">
<Points>
<DataArray  type="Float64"  NumberOfComponents="3"  format="ascii">0 0 0  0.025 0 0  0.05 0 0  0.075 0 0  0.1 0 0  0.125 0 0  0.15 0 0  0.175 0 0  0.2 0 0  0.225 0 0  0.25 0 0  0.275 0 0  0.3 0 0  0.325 0 0  0.35 0 0  0.375 0 0  0.4 0 0  0.425 0 0  0.45 0 0  0.475 0 0  0.5 0 0  0.525 0 0  0.55 0 0  0.575 0 0  0.6 0 0  0.625 0 0  0.65 0 0  0.675 0 0  0.7 0 0  0.725 0 0  0.75 0 0  0.775 0 0  0.8 0 0  0.825 0 0  0.85 0 0  0.875 0 0  0.9 0 0  0.925 0 0  0.95 0 0  0.975 0 0  1 0 0  0 0.025 0  0.025 0.025 0  0.05 0.025 0  0.075 0.025 0  0.1 0.025 0  0.125 0.025 0  0.15 0.025 0  0.175 0.025 0  0.2 0.025 0  0.225 0.025 0  0.25 0.025 0  0.275 0.025 0  0.3 0.025 0  0.325 0.025 0  0.35 0.025 0  0.375 0.025 0  0.4 0.025 0  0.425 0.025 0  0.45 0.025 0  0.475 0.025 0  0.5 0.025 0  0.525 0.025 0  0.55 0.025 0  0.575 0.025 0  0.6 0.025 0  0.625 0.025 0  0.65 0.025 0  0.675 0.025 0  0.7 0.025 0  0.725 0.025 0  0.75 0.025 0  0.775 0.025 0  0.8 0.025 0  0.825 0.025 0  0.85 0.025 0  0.875 0.025 0  0.9 0.025 0  0.925 0.025 0  0.95 0.025 0  0.975 0.025 0  1 0.025 0  0 0.05 0  0.025 0.05 0  0.05 0.05 0  0.075 0.05 0  0.1 0.05 0  0.125 0.05 0  0.15 0.05 0  0.175 0.05 0  0.2 0.05 0  0.225 0.05 0  0.25 0.05 0  0.275 0.05 0  0.3 0.05 0  0.325 0.05 0  0.35 0.05 0  0.375 0.05 0  0.4 0.05 0  0.425 0.05 0  0.45 0.05 0  0.475 0.05 0  0.5 0.05 0  0.525 0.05 0  0.55 0.05 0  0.575 0.05 0  0.6 0.05 0  0.625 0.05 0  0.65 0.05 0  0.675 0.05 0  0.7 0.05 0  0.725 0.05 0  0.75 0.05 0  0.775 0.05 0  0.8 0.05 0  0.825 0.05 0  0.85 0.05 0  0.875 0.05 0  0.9 0.05 0  0.925 0.05 0  0.95 0.05 0  0.975 0.05 0  1 0.05 0  0 0.075 0  0.025 0.075 0  0.05 0.075 0  0.075 0.075 0  0.1 0.075 0  0.125 0.075 0  0.15 0.075 0  0.175 0.075 0  0.2 0.075 0  0.225 0.075 0  0.25 0.075 0  0.275 0.075 0  0.3 0.075 0  0.325 0.075 0  0.35 0.075 0  0.375 0.075 0  0.4 0.075 0  0.425 0.075 0  0.45 0.075 0  0.475 0.075 0  0.5 0.075 0  0.525 0.075 0  0.55 0.075 0  0.575 0.075 0  0.6 0.075 0  0.625 0.075 0  0.65 0.075 0  0.675 0.075 0  0.7 0.075 0  0.725 0.075 0  0.75 0.075 0  0.775 0.075 0  0.8 0.075 0  0.825 0.075 0  0.85 0.075 0  0.875 0.075 0  0.9 0.075 0  0.925 0.075 0  0.95 0.075 0  0.975 0.075 0  1 0.075 0  0 0.1 0  0.025 0.1 0  0.05 0.1 0  0.075 0.1 0  0.1 0.1 0  0.125 0.1 0  0.15 0.1 0  0.175 0.1 0  0.2 0.1 0  0.225 0.1 0  0.25 0.1 0  0.275 0.1 0  0.3 0.1 0  0.325 0.1 0  0.35 0.1 0  0.375 0.1 0  0.4 0.1 0  0.425 0.1 0  0.45 0.1 0  0.475 0.1 0  0.5 0.1 0  0.525 0.1 0  0.55 0.1 0  0.575 0.1 0  0.6 0.1 0  0.625 0.1 0  0.65 0.1 0  0.675 0.1 0  0.7 0.1 0  0.725 0.1 0  0.75 0.1 0  0.775 0.1 0  0.8 0.1 0  0.825 0.1 0  0.85 0.1 0  0.875 0.1 0  0.9 0.1 0  0.925 0.1 0  0.95 0.1 0  0.975 0.1 0  1 0.1 0  0 0.125 0  0.025 0.125 0  0.05 0.125 0  0.075 0.125 0  0.1 0.125 0  0.125 0.125 0  0.15 0.125 0  0.175 0.125 0  0.2 0.125 0  0.225 0.125 0  0.25 0.125 0  0.275 0.125 0  0.3 0.125 0  0.325 0.125 0  0.35 0.125 0  0.375 0.125 0  0.4 0.125 0  0.425 0.125 0  0.45 0.125 0  0.475 0.125 0  0.5 0.125 0  0.525 0.125 0  0.55 0.125 0  0.575 0.125 0  0.6 0.125 0  0.625 0.125 0  0.65 0.125 0  0.675 0.125 0  0.7 0.125 0  0.725 0.125 0  0.75 0.125 0  0.775 0.125 0  0.8 0.125 0  0.825 0.125 0  0.85 0.125 0  0.875 0.125 0  0.9 0.125 0  0.925 0.125 0  0.95 0.125 0  0.975 0.125 0  1 0.125 0  0 0.15 0  0.025 0.15 0  0.05 0.15 0  0.075 0.15 0  0.1 0.15 0  0.125 0.15 0  0.15 0.15 0  0.175 0.15 0  0.2 0.15 0  0.225 0.15 0  0.25 0.15 0  0.275 0.15 0  0.3 0.15 0  0.325 0.15 0  0.35 0.15 0  0.375 0.15 0  0.4 0.15 0  0.425 0.15 0  0.45 0.15 0  0.475 0.15 0  0.5 0.15 0  0.525 0.15 0  0.55 0.15 0  0.575 0.15 0  0.6 0.15 0  0.625 0.15 0  0.65 0.15 0  0.675 0.15 0  0.7 0.15 0  0.725 0.15 0  0.75 0.15 0  0.775 0.15 0  0.8 0.15 0  0.825 0.15 0  0.85 0.15 0  0.875 0.15 0  0.9 0.15 0  0.925 0.15 0  0.95 0.15 0  0.975 0.15 0  1 0.15 0  0 0.175 0  0.025 0.175 0  0.05 0.175 0  0.075 0.175 0  0.1 0.175 0  0.125 0.175 0  0.15 0.175 0  0.175 0.175 0  0.2 0.175 0  0.225 0.175 0  0.25 0.175 0  0.275 0.175 0  0.3 0.175 0  0.325 0.175 0  0.35 0.175 0  0.375 0.175 0  0.4 0.175 0  0.425 0.175 0  0.45 0.175 0  0.475 0.175 0  0.5 0.175 0  0.525 0.175 0  0.55 0.175 0  0.575 0.175 0  0.6 0.175 0  0.625 0.175 0  0.65 0.175 0  0.675 0.175 0  0.7 0.175 0  0.725 0.175 0  0.75 0.175 0  0.775 0.175 0  0.8 0.175 0  0.825 0.175 0  0.85 0.175 0  0.875 0.175 0  0.9 0.175 0  0.925 0.175 0  0.95 0.175 0  0.975 0.175 0  1 0.175 0  0 0.2 0  0.025 0.2 0  0.05 0.2 0  0.075 0.2 0  0.1 0.2 0  0.125 0.2 0  0.15 0.2 0  0.175 0.2 0  0.2 0.2 0  0.225 0.2 0  0.25 0.2 0  0.275 0.2 0  0.3 0.2 0  0.325 0.2 0  0.35 0.2 0  0.375 0.2 0  0.4 0.2 0  0.425 0.2 0  0.45 0.2 0  0.475 0.2 0  0.5 0.2 0  0.525 0.2 0  0.55 0.2 0  0.575 0.2 0  0.6 0.2 0  0.625 0.2 0  0.65 0.2 0  0.675 0.2 0  0.7 0.2 0  0.725 0.2 0  0.75 0.2 0  0.775 0.2 0  0.8 0.2 0  0.825 0.2 0  0.85 0.2 0  0.875 0.2 0  0.9 0.2 0  0.925 0.2 0  0.95 0.2 0  0.975 0.2 0  1 0.2 0  0 0.225 0  0.025 0.225 0  0.05 0.225 0  0.075 0.225 0  0.1 0.225 0  0.125 0.225 0  0.15 0.225 0  0.175 0.225 0  0.2 0.225 0  0.225 0.225 0  0.25 0.225 0  0.275 0.225 0  0.3 0.225 0  0.325 0.225 0  0.35 0.225 0  0.375 0.225 0  0.4 0.225 0  0.425 0.225 0  0.45 0.225 0  0.475 0.225 0  0.5 0.225 0  0.525 0.225 0  0.55 0.225 0  0.575 0.225 0  0.6 0.225 0  0.625 0.225 0  0.65 0.225 0  0.675 0.225 0  0.7 0.225 0  0.725 0.225 0  0.75 0.225 0  0.775 0.225 0  0.8 0.225 0  0.825 0.225 0  0.85 0.225 0  0.875 0.225 0  0.9 0.225 0  0.925 0.225 0  0.95 0.225 0  0.975 0.225 0  1 0.225 0  0 0.25 0  0.025 0.25 0  0.05 0.25 0  0.075 0.25 0  0.1 0.25 0  0.125 0.25 0  0.15 0.25 0  0.175 0.25 0  0.2 0.25 0  0.225 0.25 0  0.25 0.25 0  0.275 0.25 0  0.3 0.25 0  0.325 0.25 0  0.35 0.25 0  0.375 0.25 0  0.4 0.25 0  0.425 0.25 0  0.45 0.25 0  0.475 0.25 0  0.5 0.25 0  0.525 0.25 0  0.55 0.25 0  0.575 0.25 0  0.6 0.25 0  0.625 0.25 0  0.65 0.25 0  0.675 0.25 0  0.7 0.25 0  0.725 0.25 0  0.75 0.25 0  0.775 0.25 0  0.8 0.25 0  0.825 0.25 0  0.85 0.25 0  0.875 0.25 0  0.9 0.25 0  0.925 0.25 0  0.95 0.25 0  0.975 0.25 0  1 0.25 0  0 0.275 0  0.025 0.275 0  0.05 0.275 0  0.075 0.275 0  0.1 0.275 0  0.125 0.275 0  0.15 0.275 0  0.175 0.275 0  0.2 0.275 0  0.225 0.275 0  0.25 0.275 0  0.275 0.275 0  0.3 0.275 0  0.325 0.275 0  0.35 0.275 0  0.375 0.275 0  0.4 0.275 0  0.425 0.275 0  0.45 0.275 0  0.475 0.275 0  0.5 0.275 0  0.525 0.275 0  0.55 0.275 0  0.575 0.275 0  0.6 0.275 0  0.625 0.275 0  0.65 0.275 0  0.675 0.275 0  0.7 0.275 0  0.725 0.275 0  0.75 0.275 0  0.775 0.275 0  0.8 0.275 0  0.825 0.275 0  0.85 0.275 0  0.875 0.275 0  0.9 0.275 0  0.925 0.275 0  0.95 0.275 0  0.975 0.275 0  1 0.275 0  0 0.3 0  0.025 0.3 0  0.05 0.3 0  0.075 0.3 0  0.1 0.3 0  0.125 0.3 0  0.15 0.3 0  0.175 0.3 0  0.2 0.3 0  0.225 0.3 0  0.25 0.3 0  0.275 0.3 0  0.3 0.3 0  0.325 0.3 0  0.35 0.3 0  0.375 0.3 0  0.4 0.3 0  0.425 0.3 0  0.45 0.3 0  0.475 0.3 0  0.5 0.3 0  0.525 0.3 0  0.55 0.3 0  0.575 0.3 0  0.6 0.3 0  0.625 0.3 0  0.65 0.3 0  0.675 0.3 0  0.7 0.3 0  0.725 0.3 0  0.75 0.3 0  0.775 0.3 0  0.8 0.3 0  0.825 0.3 0  0.85 0.3 0  0.875 0.3 0  0.9 0.3 0  0.925 0.3 0  0.95 0.3 0  0.975 0.3 0  1 0.3 0  0 0.325 0  0.025 0.325 0  0.05 0.325 0  0.075 0.325 0  0.1 0.325 0  0.125 0.325 0  0.15 0.325 0  0.175 0.325 0  0.2 0.325 0  0.225 0.325 0  0.25 0.325 0  0.275 0.325 0  0.3 0.325 0  0.325 0.325 0  0.35 0.325 0  0.375 0.325 0  0.4 0.325 0  0.425 0.325 0  0.45 0.325 0  0.475 0.325 0  0.5 0.325 0  0.525 0.325 0  0.55 0.325 0  0.575 0.325 0  0.6 0.325 0  0.625 0.325 0  0.65 0.325 0  0.675 0.325 0  0.7 0.325 0  0.725 0.325 0  0.75 0.325 0  0.775 0.325 0  0.8 0.325 0  0.825 0.325 0  0.85 0.325 0  0.875 0.325 0  0.9 0.325 0  0.925 0.325 0  0.95 0.325 0  0.975 0.325 0  1 0.325 0  0 0.35 0  0.025 0.35 0  0.05 0.35 0  0.075 0.35 0  0.1 0.35 0  0.125 0.35 0  0.15 0.35 0  0.175 0.35 0  0.2 0.35 0  0.225 0.35 0  0.25 0.35 0  0.275 0.35 0  0.3 0.35 0  0.325 0.35 0  0.35 0.35 0  0.375 0.35 0  0.4 0.35 0  0.425 0.35 0  0.45 0.35 0  0.475 0.35 0  0.5 0.35 0  0.525 0.35 0  0.55 0.35 0  0.575 0.35 0  0.6 0.35 0  0.625 0.35 0  0.65 0.35 0  0.675 0.35 0  0.7 0.35 0  0.725 0.35 0  0.75 0.35 0  0.775 0.35 0  0.8 0.35 0  0.825 0.35 0  0.85 0.35 0  0.875 0.35 0  0.9 0.35 0  0.925 0.35 0  0.95 0.35 0  0.975 0.35 0  1 0.35 0  0 0.375 0  0.025 0.375 0  0.05 0.375 0  0.075 0.375 0  0.1 0.375 0  0.125 0.375 0  0.15 0.375 0  0.175 0.375 0  0.2 0.375 0  0.225 0.375 0  0.25 0.375 0  0.275 0.375 0  0.3 0.375 0  0.325 0.375 0  0.35 0.375 0  0.375 0.375 0  0.4 0.375 0  0.425 0.375 0  0.45 0.375 0  0.475 0.375 0  0.5 0.375 0  0.525 0.375 0  0.55 0.375 0  0.575 0.375 0  0.6 0.375 0  0.625 0.375 0  0.65 0.375 0  0.675 0.375 0  0.7 0.375 0  0.725 0.375 0  0.75 0.375 0  0.775 0.375 0  0.8 0.375 0  0.825 0.375 0  0.85 0.375 0  0.875 0.375 0  0.9 0.375 0  0.925 0.375 0  0.95 0.375 0  0.975 0.375 0  1 0.375 0  0 0.4 0  0.025 0.4 0  0.05 0.4 0  0.075 0.4 0  0.1 0.4 0  0.125 0.4 0  0.15 0.4 0  0.175 0.4 0  0.2 0.4 0  0.225 0.4 0  0.25 0.4 0  0.275 0.4 0  0.3 0.4 0  0.325 0.4 0  0.35 0.4 0  0.375 0.4 0  0.4 0.4 0  0.425 0.4 0  0.45 0.4 0  0.475 0.4 0  0.5 0.4 0  0.525 0.4 0  0.55 0.4 0  0.575 0.4 0  0.6 0.4 0  0.625 0.4 0  0.65 0.4 0  0.675 0.4 0  0.7 0.4 0  0.725 0.4 0  0.75 0.4 0  0.775 0.4 0  0.8 0.4 0  0.825 0.4 0  0.85 0.4 0  0.875 0.4 0  0.9 0.4 0  0.925 0.4 0  0.95 0.4 0  0.975 0.4 0  1 0.4 0  0 0.425 0  0.025 0.425 0  0.05 0.425 0  0.075 0.425 0  0.1 0.425 0  0.125 0.425 0  0.15 0.425 0  0.175 0.425 0  0.2 0.425 0  0.225 0.425 0  0.25 0.425 0  0.275 0.425 0  0.3 0.425 0  0.325 0.425 0  0.35 0.425 0  0.375 0.425 0  0.4 0.425 0  0.425 0.425 0  0.45 0.425 0  0.475 0.425 0  0.5 0.425 0  0.525 0.425 0  0.55 0.425 0  0.575 0.425 0  0.6 0.425 0  0.625 0.425 0  0.65 0.425 0  0.675 0.425 0  0.7 0.425 0  0.725 0.425 0  0.75 0.425 0  0.775 0.425 0  0.8 0.425 0  0.825 0.425 0  0.85 0.425 0  0.875 0.425 0  0.9 0.425 0  0.925 0.425 0  0.95 0.425 0  0.975 0.425 0  1 0.425 0  0 0.45 0  0.02
[...]
<PointData  Scalars="ControlVisualisation"> 
<DataArray  type="Float64"  Name="ControlVisualisation"  format="ascii">4.8168354909076755e-01  4.7727342306475207e-01  4.7727422092341110e-01  4.7728848602617480e-01  4.7731712667340492e-01  4.7735305586143489e-01  4.7738845221680343e-01  4.7741824149438311e-01  4.7744042368167583e-01  4.7745507962039602e-01  4.7746329702918300e-01  4.7746644369841190e-01  4.7746579407503342e-01  4.7746238917390083e-01  4.7745701869838214e-01  4.7745025454512818e-01  4.7744249853944187e-01  4.7743402795856660e-01  4.7742503318966939e-01  4.7741564677308812e-01  4.7740596494408677e-01  4.7739606324167344e-01  4.7738600763783223e-01  4.7737586234567436e-01  4.7736569515666200e-01  4.7735558089486896e-01  4.7734560337492293e-01  4.7733585610782903e-01  4.7732644190913393e-01  4.7731747152374548e-01  4.7730906139787649e-01  4.7730133082489390e-01  4.7729439892464104e-01  4.7728838236953858e-01  4.7728339514598961e-01  4.7727955098809166e-01  4.7727696062429420e-01  4.7727568339230114e-01  4.7727554117856036e-01  4.7727585299441666e-01  4.8609178584654122e-01  4.7727314595537523e-01  4.6405743111252840e-01  4.6413688047387275e-01  4.6434506660551761e-01  4.6468530176197970e-01  4.6509481177230161e-01  4.6549703273048160e-01  4.6583910114093752e-01  4.6609844818258506e-01  4.6627438950085315e-01  4.6637753360490763e-01  4.6642213571135099e-01  4.6642193434433504e-01  4.6638843938610614e-01  4.6633057748469986e-01  4.6625495050592886e-01  4.6616629548815214e-01  4.6606795241580679e-01  4.6596226547887709e-01  4.6585090081823455e-01  4.6573508745793341e-01  4.6561579546144860e-01  4.6549386557213179e-01  4.6537010223905506e-01  4.6524533902375109e-01  4.6512048274428175e-01  4.6499654060243739e-01  4.6487463299620230e-01  4.6475599371252663e-01  4.6464195870182068e-01  4.6453394468947584e-01  4.6443341960659723e-01  4.6434186845973774e-01  4.6426076055270715e-01  4.6419152421453197e-01  4.6413552228526600e-01  4.6409394892507611e-01  4.6406739006984726e-01  4.6405463316211459e-01  4.6405155824646727e-01  4.7727585279398049e-01  4.7727152034914894e-01  4.6413765845077837e-01  4.6449996503959812e-01  4.6512881353654678e-01  4.6598414864099780e-01  4.6694280857378206e-01  4.6785639761481823e-01  4.6862233556603206e-01  4.6919866982683861e-01  4.6958748438252818e-01  4.6981337405455958e-01  4.6990793615410459e-01  4.6990133816376950e-01  4.6981885539697121e-01  4.6968017061094597e-01  4.6949993158140968e-01  4.6928872933385540e-01  4.6905409765550837e-01  4.6880137715605597e-01  4.6853440561412102e-01  4.6825604648992580e-01  4.6796858376883521e-01  4.6767401250056539e-01  4.6737424989306020e-01  4.6707128592500863e-01  4.6676728694632269e-01  4.6646466126508224e-01  4.6616609240531071e-01  4.6587454353532332e-01  4.6559323546388010e-01  4.6532560057646571e-01  4.6507521609766167e-01  4.6484572165297278e-01  4.6464072567523529e-01  4.6446369337877641e-01  4.6431775704983236e-01  4.6420524149210257e-01  4.6412648259509415e-01  4.6407802387839636e-01  4.6405461280268007e-01  4.7727553622964863e-01  4.7728063170259055e-01  4.6439409313647390e-01  4.6531450488721471e-01  4.6646105736045118e-01  4.6769973634714057e-01  4.6893384576522773e-01  4.7003850728771529e-01  4.7092752151881989e-01  4.7157286058049031e-01  4.7198892597578929e-01  4.7221047856520021e-01  4.7227702807861172e-01  4.7222466985812384e-01  4.7208301724585228e-01  4.7187487709437997e-01  4.7161712067369727e-01  4.7132191045504634e-01  4.7099789275675441e-01  4.7065121047166070e-01  4.7028630735437743e-01  4.6990654377567515e-01  4.6951465845950796e-01  4.6911311040215881e-01  4.6870432934335254e-01  4.6829089614094060e-01  4.6787566798448182e-01  4.6746185818640928e-01  4.6705307644274491e-01  4.6665333291796862e-01  4.6626700818264183e-01  4.6589879071502183e-01  4.6555358370079558e-01  4.6523638104452808e-01  4.6495210198861109e-01  4.6470533621713611e-01  4.6449984667612909e-01  4.6433746326004333e-01  4.6421590856692574e-01  4.6412706815506566e-01  4.6406742574240489e-01  4.7727565768144598e-01  4.7731106368048615e-01  4.6499759311912398e-01  4.6703858163311601e-01  4.6885243862346471e-01  4.7024620183336424e-01  4.7136582031829966e-01  4.7225886092067937e-01  4.7292244806720840e-01  4.7336350266023280e-01  4.7360746992947739e-01  4.7368891657414142e-01  4.7364259961449479e-01  4.7349870219877632e-01  4.7328131959356828e-01  4.7300868970694293e-01  4.7269413683351030e-01  4.7234717513170127e-01  4.7197452454872502e-01  4.7158095556587792e-01  4.7116995560773545e-01  4.7074423996364168e-01  4.7030613758999679e-01  4.6985787997845363e-01  4.6940181569132744e-01  4.6894056705762738e-01  4.6847714007018848e-01  4.6801499412783287e-01  4.6755807500733226e-01  4.6711081227865170e-01  4.6667808112152626e-01  4.6626512765564959e-01  4.6587745488815052e-01  4.6552065874021559e-01  4.6520017816968090e-01  4.6492085137308048e-01  4.6468599515337111e-01  4.6449541105001318e-01  4.6434174479519097e-01  4.6420863644098620e-01  4.6409460136490960e-01  4.7727690733911182e-01  4.7737914832627804e-01  4.6659199487353842e-01  4.7085113540503704e-01  4.7336568495020820e-01  4.7434962974065054e-01  4.7474784254648256e-01  4.7494665198782654e-01  4.7503660168761169e-01  4.7503273575480465e-01  4.7494308386365736e-01  4.7477946638708196e-01  4.7455536722569541e-01  4.7428328720315999e-01  4.7397350708319980e-01  4.7363387469101820e-01  4.7327009219032817e-01  4.7288617497147073e-01  4.7248492082850491e-01  4.7206832444462199e-01  4.7163792000300792e-01  4.7119505543484019e-01  4.7074110880219400e-01  4.7027765792471210e-01  4.6980661233207721e-01  4.6933031377286355e-01  4.6885160867040565e-01  4.6837389345893821e-01  4.6790113181309217e-01  4.6743784142104794e-01  4.6698904693176280e-01  4.6656019419668765e-01  4.6615701630575745e-01  4.6578532693499386e-01  4.6545067210303565e-01  4.6515765300459611e-01  4.6490845344176240e-01  4.6469961307788910e-01  4.6451616552192043e-01  4.6432912579623031e-01  4.6413840986864791e-01  4.7727951891134840e-01  4.7837048082579070e-01  4.7223754920663852e-01  4.7991170277801048e-01  4.8174317105018688e-01  4.8077313559815033e-01  4.7940625862934494e-01  4.7828624648947260e-01  4.7743923826224866e-01  4.7677891567962449e-01  4.7623173035439320e-01  4.7575054359262814e-01  4.7530708774417202e-01  4.7488441131937714e-01  4.7447204853043384e-01  4.7406325753194384e-01  4.7365349910719745e-01  4.7323961033293432e-01  4.7281936185314138e-01  4.7239122735355743e-01  4.7195427166210147e-01  4.7150810602723947e-01  4.7105288171080922e-01  4.7058930498442586e-01  4.7011866276321568e-01  4.6964285106619519e-01  4.6916439971221868e-01  4.6868648697100296e-01  4.6821293777433087e-01  4.6774819877141027e-01  4.6729728279149457e-01  4.6686567297823672e-01  4.6645916910580848e-01  4.6608363450392409e-01  4.6574453287613715e-01  4.6544596212016265e-01  4.6518846368515615e-01  4.6496412858325747e-01  4.6474764665518303e-01  4.6449267202044858e-01  4.6419994905110068e-01  4.7728354043068472e-01  4.9111798536884355e-01  4.9407066863492771e-01  4.9977159199341159e-01  4.9561081395660356e-01  4.8976872684919914e-01  4.8523687703100121e-01  4.8213829784695617e-01  4.8004139282850244e-01  4.7857499075325749e-01  4.7749901791542088e-01  4.7666725127362658e-01  4.7599041911782397e-01  4.7541276916626041e-01  4.7489849861935041e-01  4.7442399175933381e-01  4.7397330906872592e-01  4.7353550367467889e-01  4.7310298808204870e-01  4.7267052174421842e-01  4.7223457640025734e-01  4.7179293752120749e-01  4.7134445667925234e-01  4.7088890177326598e-01  4.7042687061291411e-01  4.6995974417123798e-01  4.6948966206542420e-01  4.6901950635118583e-01  4.6855288158494002e-01  4.6809407985684964e-01  4.6764801898839781e-01  4.6722013872220697e-01  4.6681622800688027e-01  4.6644212070597829e-01  4.6610309552414381e-01  4.6580254946332983e-01  4.6553888909094321e-01  4.6529848529174067e-01  4.6504274078097901e-01  4.6470296538883893e-01  4.6428033092359300e-01  4.7728901858849249e-01  5.2924784465011765e-01  5.4633967385251836e-01  5.3173031830020101e-01  5.1371390197422562e-01  5.0017479648655450e-01  4.9145135673080892e-01  4.8601030302336412e-01  4.8254706897974908e-01  4.8025092602010150e-01  4.7865540798333384e-01  4.7749168908981715e-01  4.7660068029018521e-01  4.7588498041964244e-01  4.7528294907026947e-01  4.7475442704363324e-01  4.7427261612095500e-01  4.7381930385447268e-01  4.7338196709654434e-01  4.7295196908534931e-01  4.7252341545819021e-01  4.7209242007059682e-01  4.7165663275363390e-01  4.7121493805177617e-01  4.7076726680250269e-01  4.7031448168766365e-01  4.6985830927311106e-01  4.6940129770216321e-01  4.6894678289645597e-01  4.6849884772712996e-01  4.6806225803292861e-01  4.6764235439736296e-01  4.6724486163629475e-01  4.6687552711520858e-01  4.6653935620921583e-01  4.6623884068059851e-01  4.6596970756274941e-01  4.6571120372198815e-01  4.6540824840001238e-01  4.6496446016675297e-01  4.6438113360126226e-01  4.7729604736498932e-01  5.6423074700838738e-01  6.0062652168884889e-01  5.6199276401334108e-01  5.3011952852086053e-01  5.0920136945315531e-01  4.9664205496993041e-01  4.8915300373824494e-01  4.8454011627949667e-01  4.8156931105912659e-01  4.7956399418554468e-01  4.7814577645172951e-01  4.7709537958940196e-01  4.7628063658620690e-01  4.7561892618897073e-01  4.7505694489773692e-01  4.7455940373793681e-01  4.7410246913227877e-01  4.7366982132921548e-01  4.7325021391493599e-01  4.7283592688331560e-01  4.7242177040764605e-01  4.7200443863375763e-01  4.7158209167078141e-01  4.7115408898380984e-01  4.7072082368469392e-01  4.7028362273482821e-01  4.6984468713669325e-01  4.6940705117189013e-01  4.6897454176932080e-01  4.6855171793028105e-01  4.6814376279225828e-01  4.6775627706617817e-01  4.6739485273726550e-01  4.6706411212137017e-01  4.6676539579121046e-01  4.6649112239335377e-01  4.6621183847941511e-01  4.6585243904759666e-01  4.6528295354501970e-01  4.6450454449942830e-01  4.7730477286928691e-01  5.7467779599691748e-01  6.2347523366483848e-01  5.7563609908950097e-01  5.3811369300283574e-01  5.1378549857272526e-01  4.9935358244948408e-01  4.9082766571935094e-01  4.8562422352032436e-01  4.8230740797496996e-01  4.8009481390652081e-01  4.7855167968235196e-01  4.7742730013238410e-01  4.7657120722346435e-01  4.7588966751992362e-01  4.7532237219811424e-01  4.7482947527610436e-01  4.7438410093546340e-01  4.7396785279912512e-01  4.7356803612624665e-01  4.7317589541449523e-01  4.7278547603479631e-01  4.7239288211702546e-01  4.7199579321778901e-01  4.7159315368086574e-01  4.7118497853543911e-01  4.7077223741612628e-01  4.7035678823138360e-01  4.6994133777333763e-01  4.6952940829321399e-01  4.6912528670162751e-01  4.6873392235323869e-01  4.6836070667990171e-01  4.6801097456518304e-01  4.6768881174607796e-01  4.6739409646257524e-01  4.6711519573128213e-01  4.6681214948804767e-01  4.6638581648622612e-01  4.6566597877887944e-01  4.6465345997792151e-01  4.7731539524922439e-01  5.5641326902621313e-01  6.0624437526388408e-01  5.6716649029720256e-01  5.3456919265176361e-01  5.1237559032960056e-01  4.9880013977725024e-01  4.9062169295194735e-01  4.8557309101238283e-01  4.8233455180916013e-01  4.8016882799511340e-01  4.7865966901184909e-01  4.7756419079032653e-01  4.7673534830959435e-01  4.7608090229584510e-01  4.7554117138509694e-01  4.7507654245356912e-01  4.7466019278511429e-01  4.7427369705702355e-01  4.7390429147643809e-01  4.7354312635238310e-01  4.7318412979328872e-01  4.7282326196931435e-01  4.7245802640769663e-01  4.7208715456863426e-01  4.7171040910793682e-01  4.7132846847199333e-01  4.7094286541963032e-01  4.7055595711655440e-01  4.7017090543954748e-01  4.6979164189280259e-01  4.6942277642598068e-01  4.6906936566003793e-01  4.6873633391300817e-01  4.6842701051204866e-01  4.6813940686492550e-01  4.6785693781387505e-01  4.6752701910516847e-01  4.6702183129839026e-01  4.6612325221334205e-01  4.6483163424806129e-01  4.7732817634866348e-01  5.1665738419055818e-01  5.5593321367361204e-01  5.4054293051968250e-01  5.2123839360946078e-01  5.0563991834396282e-01  4.9522861820016267e-01  4.8862745624403087e-01  4.8441829000746373e-01  4.8165788773267287e-01  4.7978359725944519e-01  4.7846389144438456e-01  4.7749943616619589e-01  4.7676678635261022e-01  4.7618710916323065e-01  4.7570867391107818e-01  4.7529676002627730e-01  4.7492764989346353e-01  4.7458493591810164e-01  4.7425718389320071e-01  4.7393641988965823e-01  4.7361713454903642e-01  4.7329562304570655e-01  4.7296954925705731e-01  4.7263766354375231e-01  4.7229962784451651e-01  4.7195591631780875e-01  4.7160776810356686e-01  4.7125717266007239e-01  4.7090686778892782e-01  4.7056032384800539e-01  4.7022166710782720e-01  4.6989543786361243e-01  4.6958592202513483e-01  4.6929537582123715e-01  4.6901940411724863e-01  4.6873534767318903e-01  4.6837545719241519e-01  4.6777776125342868e-01  4.6666728697352333e-01  4.6504390533267415e-01  4.7734345391410044e-01  4.8429641212895047e-01  4.9997978861621606e-01  5.0880678735514773e-01  5.0386261677974187e-01  4.9607503254071483e-01  4.8977644039264584e-01  4.8538979066957511e-01  4.8243167503591217e-01  4.8041797692693378e-01  4.7901364106892219e-01  4.7800441498898749e-01  4.7725458095689233e-01  4.7667685578371938e-01  4.7621389571094225e-01  4.7582724836049872e-01  4.7549067593878536e-01  4.7518603234675899e-01  4.7490064995748216e-01  4.7462564382753575e-01  4.7435479030661121e-01  4.7408377633526200e-01  4.7380969504206694e-01  4.7353070953668031e-01  4.7324583454567620e-01  4.7295480250882976e-01  4.7265799112274898e-01  4.7235639524792411e-01  4.7205162841308101e-01  4.7174593733002312e-01  4.7144220364024308e-01  4.7114388034276217e-01  4.7085473705735603e-01  4.7057808962824460e-01  4.7031466314517556e-01  4.7005691672527067e-01  4.6977467740592777e-01  4.6938190918008910e-01  4.6867591517939883e-01  4.6731426070655419e-01  4.6529652206298638e-01  4.7736166300351024e-01  4.7778480485695746e-01  4.7371074497388271e-01  4.8597556590326518e-01  4.8867719361355771e-01  4.8663056615643857e-01  4.8390115411348716e-01  4.8165854807145231e-01  4.8001579076549689e-01  4.7883897678148057e-01  4.7798757466921160e-01  4.7735682867273543e-01  4.7687479720285386e-01  4.7649277157943160e-01  4.7617761205158171e-01  4.7590653902605184e-01  4.7566373883861746e-01  4.7543815250777460e-01  4.7522201561189376e-01  4.7500988011047840e-01  4.7479795092413696e-01  4.7458363292640932e-01  4.7436522194508096e-01  4.7414169671844236e-01  4.7391258342364639e-01  4.7367787376546922e-01  4.7343798355187383e-01  4.7319374205369763e-01  4.7294640326707010e-01  4.7269766716017808e-01  4.7244968742951693e-01  4.7220500922181385e-01  4.7196628893526110e-01  4.7173539965059086e-01  4.7151087098854344e-01  4.7128097840764682e-01  4.7100613020171045e-01  4.7057807106244898e-01  4.6974533526334689e-01  4.6808525226760250e-01  4.6559760969747754e-01  4.7738336631392420e-01  4.7745966234821424e-01  4.6781766944995096e-01  4.7491842354103009e-01  4.7858849804930115e-01  4.7918823932018706e-01  4.7871622963945276e-01  4.7808969925637745e-01  4.7756277496324712e-01  4.7715968505569212e-01  4.7685362544152515e-01  4.7661467343054315e-01  4.7641985698360440e-01  4.7625301067628434e-01  4.7610304376944790e-01  4.7596238200602720e-01  4.7582585950177392e-01  4.7568996875439412e-01  4.7555235841154581e-01  4.7541149543244127e-01  4.7526643602549612e-01  4.7511666958578264e-01  4.7496201248603714e-01  4.7480253665904931e-01  4.7463852310684501e-01  4.7447043388776627e-01  4.7429889836046513e-01  4.7412471064468265e-01  4.7394883496096429e-01  4.7377241172728113e-01  4.7359674423279435e-01  4.7342320711406694e-01  4.7325290642704737e-01  4.7308561599304538e-01  4.7291670853468937e-01  4.7272878704700938e-01  4.7247023641196256e-01  4.7200548518562707e-01  4.7102425409357190e-01  4.6900802575258205e-01  4.6595783532908019e-01  4.7740929662263643e-01  4.7739817010989538e-01  4.6613470136476054e-01  4.7003464708567300e-01  4.7273590928977255e-01  4.7404384640209957e-01  4.7467990027929452e-01  4.7506844666795428e-01  4.7535495222853896e-01  4.7557809357583597e-01  4.7574846223309486e-01  4.7587178014577913e-01  4.7595405957953163e-01  4.7600153665714673e-01  4.7602009658403327e-01  4.7601491081540043e-01  4.7599034128506085e-01  4.7594999315882658e-01  4.7589683114900533e-01  4.7583330913693067e-01  4.7576148940245733e-01  4.7568314218771707e-01  4.7559982342824869e-01  4.7551293152260293e-01  4.7542374495425682e-01  4.7533344258805454e-01  4.7524310810293002e-01  4.7515371945536322e-01  4.7506612301433743e-01  4.7498098780834958e-01  4.7489872191648308e-01  4.7481928928761774e-01  4.7474173458523705e-01  4.7466285916370865e-01  4.7457350138714421e-01  4.7444841186893538e-01  4.7422026220577335e-01  4.7371934194672349e-01  4.7256372046866846e-01  4.7011965276345158e-01  4.6639137040640111e-01  4.7744041612566240e-01  4.7734659913820887e-01  4.6521196880976279e-01  4.6742465929076460e-01  4.6928499962426179e-01  4.7065113106057321e-01  4.7175994374413477e-01  4.7271952552746099e-01  4.7354330867220579e-01  4.7422850788914417e-01  4.7477955473096584e-01  4.7521001792407930e-01  4.7553806880952909e-01  4.7578246340988606e-01  4.7596033950098698e-01  4.7608632736950757e-01  4.7617244629477445e-01  4.7622836826673337e-01  4.7626181319287891e-01  4.7627895283165073e-01  4.7628476928067065e-01  4.7628334924723331e-01  4.7627811215261517e-01  4.7627197664108739e-01  4.7626747135147218e-01  4.7626679463530658e-01  4.7627182572842219e-01  4.7628408741579781e-01  4.7630465724084065e-01  4.7633401910031958e-01  4.7637183254485527e-01  4.7641654813698825e-01  4.7646465267974597e-01  4.7650889296669763e-01  4.7653363262105547e-01  4.7650254376337975e-01  4.7632718877596764e-01  4.7579421131871369e-01  4.7443311364457341e-01  4.7147045837579726e-01  4.6691730115590452e-01  4.7747799902487742e-01  4.7731281859327396e-01  4.6466280460469439e-01  4.6590268759644488e-01  4.6718261832907210e-01  4.6845576951998691e-01  4.6975540030068902e-01  4.7102317015408396e-01  4.7218342677324238e-01  4.7318820843974302e-01  4.7402237472637854e-01  4.7469423602497524e-01  4.7522406795937311e-01  4.7563611174483689e-01  4.7595400990892073e-01  4.7619870717148760e-01  4.7638781839942074e-01  4.7653574440912477e-01  4.7665410942778824e-01  4.7675228697108374e-01  4.7683790110166191e-01  4.7691725559687759e-01  4.7699567665063947e-01  4.7707776899241411e-01  4.7716758936171250e-01  4.7726873993045615e-01  4.7738438010924994e-01  4.7751714946578494e-01  4.7766898734199431e-01  4.7784082510068088e-01  4.7803210591296336e-01  4.7824003168906348e-01  4.7845827243274058e-01  4.7867435462865054e-01  4.7886358944891194e-01  4.7897383100996416e-01  4.7888729913595535e-01  4.7833301062382755e-01  4.7672879021847675e-01  4.7313012882459987e-01  4.6756174296452008e-01  4.7752374664650743e-01  4.7729084627083634e-01  4.6432082828349619e-01  4.6497797755347792e-01  4.6590522099572346e-01  4.6709778035284366e-01  4.6848220896359749e-01  4.6991984103253676e-01  4.7128477715300165e-01  4.7249788340051674e-01  4.7352699761592448e-01  4.7437279175271851e-01  4.7505397155363094e-01  4.7559660481595051e-01  4.7602770503317282e-01  4.7637203790416471e-01  4.7665091425617495e-01  4.7688206464505750e-01  4.7708002240204067e-01  4.7725668893552120e-01  4.7742191413719082e-01  4.7758401541841572e-01  4.7775020650180389e-01  4.7792692867131703e-01  4.7812008389563271e-01  4.7833516733408055e-01  4.7857728942633387e-01  4.7885106623246765e-01  4.7916034081054515e-01  4.7950767590734933e-01  4.7989351903804495e-01  4.8031486498136627e-01  4.8076302185376724e-01  4.8121950302103011e-01  4.8164751422233792e-01  4.8197213103065389e-01  4.8203334755883476e-01  4.8148116978966760e-01  4.7958841755716786e-01  4.7519778937572860e-01  4.6836107619191653e-01  4.7757993358754741e-01  4.7727915904046803e-01  4.6413880210786124e-01  4.6448885523075695e-01  4.6523667793336249e-01  4.6639394649977917e-01  4.6783034071632018e-01  4.6936552899560707e-01  4.7084754890875513e-01  4.721817621