<?xml version="1.0"?>
<VTKFile type="UnstructuredGrid"  version="0.1"  >
<UnstructuredGrid>
<Piece  NumberOfPoints="1681" NumberOfCells="3200">
<Points>
<DataArray  type="Float64"  NumberOfComponents="3"  format="ascii">0 0 0  0.025 0 0  0.05 0 0  0.075 0 0  0.1 0 0  0.125 0 0  0.15 0 0  0.175 0 0  0.2 0 0  0.225 0 0  0.25 0 0  0.275 0 0  0.3 0 0  0.325 0 0  0.35 0 0  0.375 0 0  0.4 0 0  0.425 0 0  0.45 0 0  0.475 0 0  0.5 0 0  0.525 0 0  0.55 0 0  0.575 0 0  0.6 0 0  0.625 0 0  0.65 0 0  0.675 0 0  0.7 0 0  0.725 0 0  0.75 0 0  0.775 0 0  0.8 0 0  0.825 0 0  0.85 0 0  0.875 0 0  0.9 0 0  0.925 0 0  0.95 0 0  0.975 0 0  1 0 0  0 0.025 0  0.025 0.025 0  0.05 0.025 0  0.075 0.025 0  0.1 0.025 0  0.125 0.025 0  0.15 0.025 0  0.175 0.025 0  0.2 0.025 0  0.225 0.025 0  0.25 0.025 0  0.275 0.025 0  0.3 0.025 0  0.325 0.025 0  0.35 0.025 0  0.375 0.025 0  0.4 0.025 0  0.425 0.025 0  0.45 0.025 0  0.475 0.025 0  0.5 0.025 0  0.525 0.025 0  0.55 0.025 0  0.575 0.025 0  0.6 0.025 0  0.625 0.025 0  0.65 0.025 0  0.675 0.025 0  0.7 0.025 0  0.725 0.025 0  0.75 0.025 0  0.775 0.025 0  0.8 0.025 0  0.825 0.025 0  0.85 0.025 0  0.875 0.025 0  0.9 0.025 0  0.925 0.025 0  0.95 0.025 0  0.975 0.025 0  1 0.025 0  0 0.05 0  0.025 0.05 0  0.05 0.05 0  0.075 0.05 0  0.1 0.05 0  0.125 0.05 0  0.15 0.05 0  0.175 0.05 0  0.2 0.05 0  0.225 0.05 0  0.25 0.05 0  0.275 0.05 0  0.3 0.05 0  0.325 0.05 0  0.35 0.05 0  0.375 0.05 0  0.4 0.05 0  0.425 0.05 0  0.45 0.05 0  0.475 0.05 0  0.5 0.05 0  0.525 0.05 0  0.55 0.05 0  0.575 0.05 0  0.6 0.05 0  0.625 0.05 0  0.65 0.05 0  0.675 0.05 0  0.7 0.05 0  0.725 0.05 0  0.75 0.05 0  0.775 0.05 0  0.8 0.05 0  0.825 0.05 0  0.85 0.05 0  0.875 0.05 0  0.9 0.05 0  0.925 0.05 0  0.95 0.05 0  0.975 0.05 0  1 0.05 0  0 0.075 0  0.025 0.075 0  0.05 0.075 0  0.075 0.075 0  0.1 0.075 0  0.125 0.075 0  0.15 0.075 0  0.175 0.075 0  0.2 0.075 0  0.225 0.075 0  0.25 0.075 0  0.275 0.075 0  0.3 0.075 0  0.325 0.075 0  0.35 0.075 0  0.375 0.075 0  0.4 0.075 0  0.425 0.075 0  0.45 0.075 0  0.475 0.075 0  0.5 0.075 0  0.525 0.075 0  0.55 0.075 0  0.575 0.075 0  0.6 0.075 0  0.625 0.075 0  0.65 0.075 0  0.675 0.075 0  0.7 0.075 0  0.725 0.075 0  0.75 0.075 0  0.775 0.075 0  0.8 0.075 0  0.825 0.075 0  0.85 0.075 0  0.875 0.075 0  0.9 0.075 0  0.925 0.075 0  0.95 0.075 0  0.975 0.075 0  1 0.075 0  0 0.1 0  0.025 0.1 0  0.05 0.1 0  0.075 0.1 0  0.1 0.1 0  0.125 0.1 0  0.15 0.1 0  0.175 0.1 0  0.2 0.1 0  0.225 0.1 0  0.25 0.1 0  0.275 0.1 0  0.3 0.1 0  0.325 0.1 0  0.35 0.1 0  0.375 0.1 0  0.4 0.1 0  0.425 0.1 0  0.45 0.1 0  0.475 0.1 0  0.5 0.1 0  0.525 0.1 0  0.55 0.1 0  0.575 0.1 0  0.6 0.1 0  0.625 0.1 0  0.65 0.1 0  0.675 0.1 0  0.7 0.1 0  0.725 0.1 0  0.75 0.1 0  0.775 0.1 0  0.8 0.1 0  0.825 0.1 0  0.85 0.1 0  0.875 0.1 0  0.9 0.1 0  0.925 0.1 0  0.95 0.1 0  0.975 0.1 0  1 0.1 0  0 0.125 0  0.025 0.125 0  0.05 0.125 0  0.075 0.125 0  0.1 0.125 0  0.125 0.125 0  0.15 0.125 0  0.175 0.125 0  0.2 0.125 0  0.225 0.125 0  0.25 0.125 0  0.275 0.125 0  0.3 0.125 0  0.325 0.125 0  0.35 0.125 0  0.375 0.125 0  0.4 0.125 0  0.425 0.125 0  0.45 0.125 0  0.475 0.125 0  0.5 0.125 0  0.525 0.125 0  0.55 0.125 0  0.575 0.125 0  0.6 0.125 0  0.625 0.125 0  0.65 0.125 0  0.675 0.125 0  0.7 0.125 0  0.725 0.125 0  0.75 0.125 0  0.775 0.125 0  0.8 0.125 0  0.825 0.125 0  0.85 0.125 0  0.875 0.125 0  0.9 0.125 0  0.925 0.125 0  0.95 0.125 0  0.975 0.125 0  1 0.125 0  0 0.15 0  0.025 0.15 0  0.05 0.15 0  0.075 0.15 0  0.1 0.15 0  0.125 0.15 0  0.15 0.15 0  0.175 0.15 0  0.2 0.15 0  0.225 0.15 0  0.25 0.15 0  0.275 0.15 0  0.3 0.15 0  0.325 0.15 0  0.35 0.15 0  0.375 0.15 0  0.4 0.15 0  0.425 0.15 0  0.45 0.15 0  0.475 0.15 0  0.5 0.15 0  0.525 0.15 0  0.55 0.15 0  0.575 0.15 0  0.6 0.15 0  0.625 0.15 0  0.65 0.15 0  0.675 0.15 0  0.7 0.15 0  0.725 0.15 0  0.75 0.15 0  0.775 0.15 0  0.8 0.15 0  0.825 0.15 0  0.85 0.15 0  0.875 0.15 0  0.9 0.15 0  0.925 0.15 0  0.95 0.15 0  0.975 0.15 0  1 0.15 0  0 0.175 0  0.025 0.175 0  0.05 0.175 0  0.075 0.175 0  0.1 0.175 0  0.125 0.175 0  0.15 0.175 0  0.175 0.175 0  0.2 0.175 0  0.225 0.175 0  0.25 0.175 0  0.275 0.175 0  0.3 0.175 0  0.325 0.175 0  0.35 0.175 0  0.375 0.175 0  0.4 0.175 0  0.425 0.175 0  0.45 0.175 0  0.475 0.175 0  0.5 0.175 0  0.525 0.175 0  0.55 0.175 0  0.575 0.175 0  0.6 0.175 0  0.625 0.175 0  0.65 0.175 0  0.675 0.175 0  0.7 0.175 0  0.725 0.175 0  0.75 0.175 0  0.775 0.175 0  0.8 0.175 0  0.825 0.175 0  0.85 0.175 0  0.875 0.175 0  0.9 0.175 0  0.925 0.175 0  0.95 0.175 0  0.975 0.175 0  1 0.175 0  0 0.2 0  0.025 0.2 0  0.05 0.2 0  0.075 0.2 0  0.1 0.2 0  0.125 0.2 0  0.15 0.2 0  0.175 0.2 0  0.2 0.2 0  0.225 0.2 0  0.25 0.2 0  0.275 0.2 0  0.3 0.2 0  0.325 0.2 0  0.35 0.2 0  0.375 0.2 0  0.4 0.2 0  0.425 0.2 0  0.45 0.2 0  0.475 0.2 0  0.5 0.2 0  0.525 0.2 0  0.55 0.2 0  0.575 0.2 0  0.6 0.2 0  0.625 0.2 0  0.65 0.2 0  0.675 0.2 0  0.7 0.2 0  0.725 0.2 0  0.75 0.2 0  0.775 0.2 0  0.8 0.2 0  0.825 0.2 0  0.85 0.2 0  0.875 0.2 0  0.9 0.2 0  0.925 0.2 0  0.95 0.2 0  0.975 0.2 0  1 0.2 0  0 0.225 0  0.025 0.225 0  0.05 0.225 0  0.075 0.225 0  0.1 0.225 0  0.125 0.225 0  0.15 0.225 0  0.175 0.225 0  0.2 0.225 0  0.225 0.225 0  0.25 0.225 0  0.275 0.225 0  0.3 0.225 0  0.325 0.225 0  0.35 0.225 0  0.375 0.225 0  0.4 0.225 0  0.425 0.225 0  0.45 0.225 0  0.475 0.225 0  0.5 0.225 0  0.525 0.225 0  0.55 0.225 0  0.575 0.225 0  0.6 0.225 0  0.625 0.225 0  0.65 0.225 0  0.675 0.225 0  0.7 0.225 0  0.725 0.225 0  0.75 0.225 0  0.775 0.225 0  0.8 0.225 0  0.825 0.225 0  0.85 0.225 0  0.875 0.225 0  0.9 0.225 0  0.925 0.225 0  0.95 0.225 0  0.975 0.225 0  1 0.225 0  0 0.25 0  0.025 0.25 0  0.05 0.25 0  0.075 0.25 0  0.1 0.25 0  0.125 0.25 0  0.15 0.25 0  0.175 0.25 0  0.2 0.25 0  0.225 0.25 0  0.25 0.25 0  0.275 0.25 0  0.3 0.25 0  0.325 0.25 0  0.35 0.25 0  0.375 0.25 0  0.4 0.25 0  0.425 0.25 0  0.45 0.25 0  0.475 0.25 0  0.5 0.25 0  0.525 0.25 0  0.55 0.25 0  0.575 0.25 0  0.6 0.25 0  0.625 0.25 0  0.65 0.25 0  0.675 0.25 0  0.7 0.25 0  0.725 0.25 0  0.75 0.25 0  0.775 0.25 0  0.8 0.25 0  0.825 0.25 0  0.85 0.25 0  0.875 0.25 0  0.9 0.25 0  0.925 0.25 0  0.95 0.25 0  0.975 0.25 0  1 0.25 0  0 0.275 0  0.025 0.275 0  0.05 0.275 0  0.075 0.275 0  0.1 0.275 0  0.125 0.275 0  0.15 0.275 0  0.175 0.275 0  0.2 0.275 0  0.225 0.275 0  0.25 0.275 0  0.275 0.275 0  0.3 0.275 0  0.325 0.275 0  0.35 0.275 0  0.375 0.275 0  0.4 0.275 0  0.425 0.275 0  0.45 0.275 0  0.475 0.275 0  0.5 0.275 0  0.525 0.275 0  0.55 0.275 0  0.575 0.275 0  0.6 0.275 0  0.625 0.275 0  0.65 0.275 0  0.675 0.275 0  0.7 0.275 0  0.725 0.275 0  0.75 0.275 0  0.775 0.275 0  0.8 0.275 0  0.825 0.275 0  0.85 0.275 0  0.875 0.275 0  0.9 0.275 0  0.925 0.275 0  0.95 0.275 0  0.975 0.275 0  1 0.275 0  0 0.3 0  0.025 0.3 0  0.05 0.3 0  0.075 0.3 0  0.1 0.3 0  0.125 0.3 0  0.15 0.3 0  0.175 0.3 0  0.2 0.3 0  0.225 0.3 0  0.25 0.3 0  0.275 0.3 0  0.3 0.3 0  0.325 0.3 0  0.35 0.3 0  0.375 0.3 0  0.4 0.3 0  0.425 0.3 0  0.45 0.3 0  0.475 0.3 0  0.5 0.3 0  0.525 0.3 0  0.55 0.3 0  0.575 0.3 0  0.6 0.3 0  0.625 0.3 0  0.65 0.3 0  0.675 0.3 0  0.7 0.3 0  0.725 0.3 0  0.75 0.3 0  0.775 0.3 0  0.8 0.3 0  0.825 0.3 0  0.85 0.3 0  0.875 0.3 0  0.9 0.3 0  0.925 0.3 0  0.95 0.3 0  0.975 0.3 0  1 0.3 0  0 0.325 0  0.025 0.325 0  0.05 0.325 0  0.075 0.325 0  0.1 0.325 0  0.125 0.325 0  0.15 0.325 0  0.175 0.325 0  0.2 0.325 0  0.225 0.325 0  0.25 0.325 0  0.275 0.325 0  0.3 0.325 0  0.325 0.325 0  0.35 0.325 0  0.375 0.325 0  0.4 0.325 0  0.425 0.325 0  0.45 0.325 0  0.475 0.325 0  0.5 0.325 0  0.525 0.325 0  0.55 0.325 0  0.575 0.325 0  0.6 0.325 0  0.625 0.325 0  0.65 0.325 0  0.675 0.325 0  0.7 0.325 0  0.725 0.325 0  0.75 0.325 0  0.775 0.325 0  0.8 0.325 0  0.825 0.325 0  0.85 0.325 0  0.875 0.325 0  0.9 0.325 0  0.925 0.325 0  0.95 0.325 0  0.975 0.325 0  1 0.325 0  0 0.35 0  0.025 0.35 0  0.05 0.35 0  0.075 0.35 0  0.1 0.35 0  0.125 0.35 0  0.15 0.35 0  0.175 0.35 0  0.2 0.35 0  0.225 0.35 0  0.25 0.35 0  0.275 0.35 0  0.3 0.35 0  0.325 0.35 0  0.35 0.35 0  0.375 0.35 0  0.4 0.35 0  0.425 0.35 0  0.45 0.35 0  0.475 0.35 0  0.5 0.35 0  0.525 0.35 0  0.55 0.35 0  0.575 0.35 0  0.6 0.35 0  0.625 0.35 0  0.65 0.35 0  0.675 0.35 0  0.7 0.35 0  0.725 0.35 0  0.75 0.35 0  0.775 0.35 0  0.8 0.35 0  0.825 0.35 0  0.85 0.35 0  0.875 0.35 0  0.9 0.35 0  0.925 0.35 0  0.95 0.35 0  0.975 0.35 0  1 0.35 0  0 0.375 0  0.025 0.375 0  0.05 0.375 0  0.075 0.375 0  0.1 0.375 0  0.125 0.375 0  0.15 0.375 0  0.175 0.375 0  0.2 0.375 0  0.225 0.375 0  0.25 0.375 0  0.275 0.375 0  0.3 0.375 0  0.325 0.375 0  0.35 0.375 0  0.375 0.375 0  0.4 0.375 0  0.425 0.375 0  0.45 0.375 0  0.475 0.375 0  0.5 0.375 0  0.525 0.375 0  0.55 0.375 0  0.575 0.375 0  0.6 0.375 0  0.625 0.375 0  0.65 0.375 0  0.675 0.375 0  0.7 0.375 0  0.725 0.375 0  0.75 0.375 0  0.775 0.375 0  0.8 0.375 0  0.825 0.375 0  0.85 0.375 0  0.875 0.375 0  0.9 0.375 0  0.925 0.375 0  0.95 0.375 0  0.975 0.375 0  1 0.375 0  0 0.4 0  0.025 0.4 0  0.05 0.4 0  0.075 0.4 0  0.1 0.4 0  0.125 0.4 0  0.15 0.4 0  0.175 0.4 0  0.2 0.4 0  0.225 0.4 0  0.25 0.4 0  0.275 0.4 0  0.3 0.4 0  0.325 0.4 0  0.35 0.4 0  0.375 0.4 0  0.4 0.4 0  0.425 0.4 0  0.45 0.4 0  0.475 0.4 0  0.5 0.4 0  0.525 0.4 0  0.55 0.4 0  0.575 0.4 0  0.6 0.4 0  0.625 0.4 0  0.65 0.4 0  0.675 0.4 0  0.7 0.4 0  0.725 0.4 0  0.75 0.4 0  0.775 0.4 0  0.8 0.4 0  0.825 0.4 0  0.85 0.4 0  0.875 0.4 0  0.9 0.4 0  0.925 0.4 0  0.95 0.4 0  0.975 0.4 0  1 0.4 0  0 0.425 0  0.025 0.425 0  0.05 0.425 0  0.075 0.425 0  0.1 0.425 0  0.125 0.425 0  0.15 0.425 0  0.175 0.425 0  0.2 0.425 0  0.225 0.425 0  0.25 0.425 0  0.275 0.425 0  0.3 0.425 0  0.325 0.425 0  0.35 0.425 0  0.375 0.425 0  0.4 0.425 0  0.425 0.425 0  0.45 0.425 0  0.475 0.425 0  0.5 0.425 0  0.525 0.425 0  0.55 0.425 0  0.575 0.425 0  0.6 0.425 0  0.625 0.425 0  0.65 0.425 0  0.675 0.425 0  0.7 0.425 0  0.725 0.425 0  0.75 0.425 0  0.775 0.425 0  0.8 0.425 0  0.825 0.425 0  0.85 0.425 0  0.875 0.425 0  0.9 0.425 0  0.925 0.425 0  0.95 0.425 0  0.975 0.425 0  1 0.425 0  0 0.45 0  0.02
[...]
<PointData  Scalars="ControlVisualisation"> 
<DataArray  type="Float64"  Name="ControlVisualisation"  format="ascii">1.3439466103922659e-01  9.4836822991562791e-02  9.4862797642387336e-02  9.5004027704986088e-02  9.5272433948472013e-02  9.5629649726726662e-02  9.6020195556729096e-02  9.6394342179543790e-02  9.6719308128175710e-02  9.6979864347315051e-02  9.7173626630643328e-02  9.7305444330290397e-02  9.7383077590697517e-02  9.7414615191716319e-02  9.7407292444485760e-02  9.7367186489149521e-02  9.7299349246921463e-02  9.7208087686676714e-02  9.7097232962361613e-02  9.6970332230769715e-02  9.6830752332145886e-02  9.6681712468978692e-02  9.6526272762905818e-02  9.6367304384150518e-02  9.6207460258844885e-02  9.6049157035500848e-02  9.5894571536382117e-02  9.5745649624841250e-02  9.5604122613189665e-02  9.5471525692089915e-02  9.5349213767172508e-02  9.5238371856978865e-02  9.5140019711652618e-02  9.5055013872596419e-02  9.4984056757945273e-02  9.4927736629814352e-02  9.4886617439397525e-02  9.4861232370308468e-02  9.4851089680304063e-02  9.4851148893288578e-02  2.4131687023599305e-01  9.4834548800924762e-02  5.8438411556642492e-02  5.8627849527767478e-02  5.9091156842135104e-02  5.9863098321872740e-02  6.0870018200973305e-02  6.1987206229915562e-02  6.3091533124110602e-02  6.4089349518997543e-02  6.4924646133120087e-02  6.5574605548567838e-02  6.6039677602586763e-02  6.6333443998698838e-02  6.6474968646046434e-02  6.6484227584487840e-02  6.6380023450819212e-02  6.6179435686831808e-02  6.5897983697170842e-02  6.5549968519716686e-02  6.5148730103247718e-02  6.4706746299031614e-02  6.4235602794582347e-02  6.3745901177649278e-02  6.3247169996120484e-02  6.2747822088786848e-02  6.2255175444359379e-02  6.1775533145149858e-02  6.1314304298932094e-02  6.0876142473846193e-02  6.0465079275515470e-02  6.0084635936192857e-02  5.9737902902335625e-02  5.9427585352517361e-02  5.9156020746503009e-02  5.8925186377507890e-02  5.8736728369552287e-02  5.8592001592998100e-02  5.8491848515734586e-02  5.8434738105746606e-02  5.8412551281016918e-02  9.4851147472498523e-02  9.4836646714910988e-02  5.8612552655531933e-02  5.9299955900194767e-02  6.0528855465617974e-02  6.2385628332871493e-02  6.4785402675609144e-02  6.7541957141107861e-02  7.0435969551887467e-02  7.3237221975248179e-02  7.5731218168545208e-02  7.7753469252616197e-02  7.9211528924032992e-02  8.0085160925286752e-02  8.0410181347547641e-02  8.0256725070609297e-02  7.9709977193157228e-02  7.8856645583810683e-02  7.7777058262702203e-02  7.6541389175803637e-02  7.5208446343330876e-02  7.3825881833672641e-02  7.2431130717718825e-02  7.1052697070992057e-02  6.9711579797850781e-02  6.8422716577307321e-02  6.7196363859375038e-02  6.6039351819106556e-02  6.4956169016303994e-02  6.3949847235593341e-02  6.3022633341414377e-02  6.2176451118148499e-02  6.1413170763891849e-02  6.0734716450979526e-02  6.0143051453711925e-02  5.9640083278889651e-02  5.9227486492156187e-02  5.8906229022312989e-02  5.8674781715412412e-02  5.8523738973851228e-02  5.8434700950227153e-02  9.4851055105124038e-02  9.4901351287211499e-02  5.9061586192976426e-02  6.0685288657346424e-02  6.2953324094073254e-02  6.5972909141936931e-02  6.9747630428378171e-02  7.4124233372625414e-02  7.8816839661734681e-02  8.3431050121907158e-02  8.7549045236963052e-02  9.0826272178180428e-02  9.3055123188658578e-02  9.4181085980102497e-02  9.4278363678765131e-02  9.3504146372056646e-02  9.2051856029758947e-02  9.0115713871772432e-02  8.7869581754887710e-02  8.5457451662347389e-02  8.2991489107029401e-02  8.0554231960525483e-02  7.8202729484408290e-02  7.5973342335183755e-02  7.3886503104161616e-02  7.1951063230494966e-02  7.0168037049589044e-02  6.8533664723713722e-02  6.7041786311117235e-02  6.5685565485616132e-02  6.4458631971454808e-02  6.3355731372486374e-02  6.2372981991286824e-02  6.1507841054829808e-02  6.0758872366513159e-02  6.0125365360687952e-02  5.9606688873757085e-02  5.9200708971895458e-02  5.8898996370772075e-02  5.8675409782891909e-02  5.8491830744335602e-02  9.4861048826958880e-02  9.5050366722278026e-02  5.9969333566638430e-02  6.3797740580333578e-02  6.8449875868248355e-02  7.3851421561109687e-02  7.9965975319793076e-02  8.6485086552106238e-02  9.2909105622902749e-02  9.8701518439771374e-02  1.0339466715127985e-01  1.0666120222296727e-01  1.0836306494335812e-01  1.0855523814432462e-01  1.0744092734812430e-01  1.0530297236832586e-01  1.0244061466343973e-01  9.9127168346769906e-02  9.5589544195370663e-02  9.2003224984465920e-02  8.8495597368610096e-02  8.5152772406243082e-02  8.2027346152706820e-02  7.9145977740565920e-02  7.6516310596612819e-02  7.4133009982331341e-02  7.1982797781358604e-02  7.0048441263184352e-02  6.8311720598124126e-02  6.6755457690206771e-02  6.5364731730736342e-02  6.4127433113429486e-02  6.3034317045204846e-02  6.2078710862628929e-02  6.1255994735368996e-02  6.0562875811210067e-02  5.9996145881929225e-02  5.9549574516683690e-02  5.9204730796764790e-02  5.8909703671330485e-02  5.8592523614221854e-02  9.4886166134225777e-02  9.5597682553672722e-02  6.2843877391320233e-02  7.4077937396596905e-02  8.8953200516205644e-02  1.0395576643105242e-01  1.1636585891916124e-01  1.2505760924552320e-01  1.3033650030540644e-01  1.3298138418207486e-01  1.3360111561093763e-01  1.3257283451098695e-01  1.3017852059408536e-01  1.2669472524769951e-01  1.2240902074813111e-01  1.1760249834661521e-01  1.1252771191154225e-01  1.0739444627383725e-01  1.0236539360711115e-01  9.7558761476223638e-02  9.3053969796475317e-02  8.8898020069075670e-02  8.5111675702934625e-02  8.1695339697356456e-02  7.8634616892668097e-02  7.5905435539939337e-02  7.3478530886435495e-02  7.1323115062009099e-02  6.9409637677246408e-02  6.7711635987401528e-02  6.6206754842705676e-02  6.4877073388016460e-02  6.3708904249163895e-02  6.2692229500383626e-02  6.1819889656471214e-02  6.1086482080315904e-02  6.0486390646139421e-02  6.0008671940070452e-02  5.9621867059713569e-02  5.9238789172988894e-02  5.8739251916119874e-02  9.4927062804319409e-02  1.0516118381417011e-01  8.2320156103606962e-02  1.7899598750658946e-01  3.3735899450063767e-01  4.0399216409878369e-01  3.9521716316370697e-01  3.5186182975301372e-01  2.9991699364073798e-01  2.5345853050343425e-01  2.1718118230377526e-01  1.9038091022222703e-01  1.7057855707789044e-01  1.5544191735172230e-01  1.4331662787492777e-01  1.3316199113925620e-01  1.2436470606113614e-01  1.1657855437412754e-01  1.0961211816538595e-01  1.0335757669220891e-01  9.7748633830912368e-02  9.2736885013237486e-02  8.8279288793504926e-02  8.4332349049644761e-02  8.0850369573412878e-02  7.7786053557210785e-02  7.5092243472880640e-02  7.2723969708538894e-02  7.0640274508043638e-02  6.8805516561919577e-02  6.7190044742137356e-02  6.5770260651393006e-02  6.4528171685416191e-02  6.3450566914736939e-02  6.2527901711963194e-02  6.1752752157461538e-02  6.1116908862633344e-02  6.0603650832595279e-02  6.0164868090259144e-02  5.9668354819201658e-02  5.8932593362319659e-02  9.4983546939160404e-02  8.0635498893959201e-01  8.8517292566929140e-01  9.2795343536111297e-01  9.2729965724288299e-01  9.1031809015351473e-01  8.8146095750955056e-01  8.3258445004956583e-01  7.3780646082659118e-01  5.9778630446993231e-01  4.5294184785633090e-01  3.3822274484254478e-01  2.6031939157478118e-01  2.1044974442517239e-01  1.7825569383573681e-01  1.5643253526600298e-01  1.4064360824920019e-01  1.2848329398492989e-01  1.1864585028221050e-01  1.1041716154895001e-01  1.0339330871085489e-01  9.7331650041978246e-02  9.2073363280208431e-02  8.7503377784708250e-02  8.3529950736699957e-02  8.0074741124684351e-02  7.7068511740415707e-02  7.4449732913215119e-02  7.2164497783859138e-02  7.0166814029059138e-02  6.8418750758383315e-02  6.6890198285531929e-02  6.5558184806150915e-02  6.4405794159373836e-02  6.3420705637107597e-02  6.2593082247431514e-02  6.1911433801601440e-02  6.1351580048165891e-02  6.0844473521486683e-02  6.0203042609763779e-02  5.9173032012775885e-02  9.5055558679634972e-02  9.6400600978719231e-01  9.7460864779637535e-01  9.6679498234537820e-01  9.5809020126612165e-01  9.5436771303113910e-01  9.4723242351760073e-01  9.3023293742716018e-01  9.0469887379301961e-01  8.5542960954321967e-01  7.5101297112235799e-01  5.9516612303154803e-01  4.3849840301240156e-01  3.2020632553673545e-01  2.4361445687815197e-01  1.9622516808071760e-01  1.6614525701227470e-01  1.4583907334799756e-01  1.3114243626365182e-01  1.1984738509061021e-01  1.1077478684142351e-01  1.0327089212996962e-01  9.6951327508248475e-02  9.1572661536611713e-02  8.6967311994015473e-02  8.3010137463969402e-02  7.9601344045642827e-02  7.6658019484966311e-02  7.4110217532813494e-02  7.1899286706840343e-02  6.9977091168263769e-02  6.8305352532783484e-02  6.6854726653551494e-02  6.5603465377242404e-02  6.4535554700387382e-02  6.3637864486758733e-02  6.2894397447392641e-02  6.2271153573222195e-02  6.1673114172453448e-02  6.0848375685485998e-02  5.9461091097551905e-02  9.5143157069100592e-02  9.8007031713718473e-01  9.8530137062416823e-01  9.8041428852953483e-01  9.7269741685335487e-01  9.6524830081560409e-01  9.6053522903528277e-01  9.5366988733725433e-01  9.4035457393491906e-01  9.2022464343375532e-01  8.8333055664549098e-01  8.0098300744226270e-01  6.5955652494105377e-01  4.9622545149661867e-01  3.6032073932071684e-01  2.6788463073194640e-01  2.1003593626617939e-01  1.7381312971361995e-01  1.5002871872463258e-01  1.3337438807322904e-01  1.2097742843080656e-01  1.1128836920309396e-01  1.0344673716723227e-01  9.6951264369075613e-02  9.1491590646301454e-02  8.6861374977131048e-02  8.2912717409450651e-02  7.9532235077678037e-02  7.6628839057648279e-02  7.4127823708681123e-02  7.1968137851275260e-02  7.0100959142259375e-02  6.8488484585196741e-02  6.7102359965580130e-02  6.5921370026495604e-02  6.4927637791941259e-02  6.4098777782251537e-02  6.3387761185112496e-02  6.2667598445177358e-02  6.1611481450662274e-02  5.9797162694569680e-02  9.5246393321795589e-02  9.8175328784674742e-01  9.8786757411719361e-01  9.8380825110959946e-01  9.7744847603480867e-01  9.7079574502893151e-01  9.6599446091641272e-01  9.6159447543856291e-01  9.5370563956246002e-01  9.4081256850193395e-01  9.2256984251778684e-01  8.8918729139343122e-01  8.1451517388614170e-01  6.8342550150523040e-01  5.2496063587647224e-01  3.8559874158540813e-01  2.8604392061987727e-01  2.2167936204350175e-01  1.8087330933657031e-01  1.5423540568301930e-01  1.3591360935905905e-01  1.2257435165248573e-01  1.1235969888018657e-01  1.0422338284796748e-01  9.7559357972206953e-02  9.2001076412928900e-02  8.7313130678860415e-02  8.3332682860403198e-02  7.9938341971441090e-02  7.7034401466198749e-02  7.4543459942759890e-02  7.2403168772835855e-02  7.0564494244260589e-02  6.8989957475319871e-02  6.7650879741897457e-02  6.6522402794439134e-02  6.5572956244790093e-02  6.4738093899937177e-02  6.3851570228950272e-02  6.2501680755645980e-02  6.0181303506600128e-02  9.5365215581835028e-02  9.7683951636530397e-01  9.8595991983782660e-01  9.8268949359721436e-01  9.7666159202938785e-01  9.7090333979938204e-01  9.6726191078044954e-01  9.6410406906037904e-01  9.5842649197107932e-01  9.4887253395078441e-01  9.3624868060179534e-01  9.2003047577958708e-01  8.8830553380535437e-01  8.1586763189787703e-01  6.9112567104388711e-01  5.4014914400429648e-01  4.0338944574735985e-01  3.0139897966001078e-01  2.3285513702652522e-01  1.8838022225976198e-01  1.5920822483804414e-01  1.3933156403728292e-01  1.2508791958753074e-01  1.1434619422765065e-01  1.0588442965317768e-01  9.8999253915427993e-02  9.3276409829308654e-02  8.8459567594318639e-02  8.4377263859343021e-02  8.0904104630219548e-02  7.7941823924763509e-02  7.5411109151780037e-02  7.3248340825927960e-02  7.1403567357455941e-02  6.9837386957810277e-02  6.8514589461372358e-02  6.7390252409533974e-02  6.6376427442998986e-02  6.5258711311070181e-02  6.3531193355892565e-02  6.0613001645539302e-02  9.5499383948580374e-02  9.5423757591978398e-01  9.7737775498637458e-01  9.7491283497993253e-01  9.6932549945188295e-01  9.6608151056143932e-01  9.6485787547251334e-01  9.6268917400819765e-01  9.5781908010993189e-01  9.4990725666880738e-01  9.4012939561144837e-01  9.3054332951296859e-01  9.1847582210208423e-01  8.8778888662817246e-01  8.1477077760221484e-01  6.9393068441613859e-01  5.5042690288721186e-01  4.1833583127287155e-01  3.1614711408051455e-01  2.4478891219921906e-01  1.9722709277265582e-01  1.6569174468879960e-01  1.4426392222409803e-01  1.2905535372772020e-01  1.1769512487645932e-01  1.0879726285647946e-01  1.0156948540497805e-01  9.5558399081184006e-02  9.0494209512214346e-02  8.6201837378294177e-02  8.2554279885420523e-02  7.9451179662158339e-02  7.6810634221608734e-02  7.4566077489254395e-02  7.2662848818573142e-02  7.1050344649311481e-02  6.9664041366052282e-02  6.8384010427532782e-02  6.6937068796514010e-02  6.4715915592826689e-02  6.1090870125676343e-02  9.5648370618300949e-02  4.2072648424841663e-01  9.3757624794974037e-01  9.4864135970130259e-01  9.5451895992009972e-01  9.5780353151278175e-01  9.5819412499863443e-01  9.5586835464085329e-01  9.5131603512649410e-01  9.4488862900872850e-01  9.3788913527645157e-01  9.3293999730918675e-01  9.3089415447544721e-01  9.2342687922599276e-01  8.9054383810726767e-01  8.1382590311205660e-01  6.9542511172253640e-01  5.5925476198822277e-01  4.3287726536587295e-01  3.3196090272721129e-01  2.5884596888080014e-01  2.0865438489925081e-01  1.7480986496240863e-01  1.5169445769798839e-01  1.3531243974126747e-01  1.2310227505316930e-01  1.1353326096692035e-01  1.0573475401991198e-01  9.9222287545816815e-02  9.3718257085640619e-02  8.9046539269858921e-02  8.5078335048873993e-02  8.1709163773167837e-02  7.8850985872101098e-02  7.6427752427242868e-02  7.4365976386765301e-02  7.2572171043908285e-02  7.0882830480194725e-02  6.8954381795569217e-02  6.6075965662855812e-02  6.1612223608300376e-02  9.5811235768512013e-02  1.0161870762024193e-01  1.2249946966465738e-01  7.9142125952106213e-01  9.1041230456076494e-01  9.2951455992912113e-01  9.3483493998108125e-01  9.3608318387871103e-01  9.3525093896683020e-01  9.3311155846486471e-01  9.3129593288157042e-01  9.3247719711932575e-01  9.3813534593109693e-01  9.4355233287692197e-01  9.3462995561524898e-01  8.9348099206332487e-01  8.1119861128858217e-01  6.9595672489654925e-01  5.6832193544227960e-01  4.4919611333205106e-01  3.5116743085376251e-01  2.7738713674074678e-01  2.2493752657041452e-01  1.8863037695444951e-01  1.6341207962547649e-01  1.4535485722468758e-01  1.3179105784918488e-01  1.2107889688322312e-01  1.1228209853799942e-01  1.0488988416663768e-01  9.8617162163966626e-02  9.3283586649766548e-02  8.8752831668080720e-02  8.4908399692337433e-02  8.1644099250914828e-02  7.8852213674212135e-02  7.6396374751851848e-02  7.4054587512424705e-02  7.1403182233544027e-02  6.7635227956997418e-02  6.2172486000428656e-02  9.5986479269832559e-02  9.6908307083505590e-02  7.2271452755829024e-02  1.6019733681379289e-01  4.8488402449967216e-01  7.4394974238340394e-01  8.3822205012231987e-01  8.7799095157338813e-01  8.9878249130575272e-01  9.1164830362701821e-01  9.2194888751930659e-01  9.3330936649793639e-01  9.4714372051085749e-01  9.6022634353338843e-01  9.6317929187068518e-01  9.4314681509811815e-01  8.9051142596690380e-01  8.0498579783195423e-01  6.9642302413341384e-01  5.8019789933248089e-01  4.7088101987438602e-01  3.7796119877029116e-01  3.0488810145772405e-01  2.5049786756943027e-01  2.1122267601232539e-01  1.8294982448407665e-01  1.6211814870751162e-01  1.4612452958079342e-01  1.3329246702970304e-01  1.2264485024735600e-01  1.1364475683878145e-01  1.0598819925248024e-01  9.9473651593083454e-02  9.3937061187785054e-02  8.9224682986986686e-02  8.5174834827930562e-02  8.1587066480169862e-02  7.8164171535149929e-02  7.4401810414055095e-02  6.9418226809831618e-02  6.2764350746488659e-02  9.6171874811647240e-02  9.6806194012555982e-02  6.6857575840682318e-02  9.1395140702300176e-02  1.4185051179833735e-01  2.5103200707740425e-01  4.3866043147992967e-01  6.2995266123608018e-01  7.6354146364864106e-01  8.4496442009097539e-01  8.9577928085558345e-01  9.3090873514799133e-01  9.5759538249188469e-01  9.7681218374116296e-01  9.8453138750282965e-01  9.7404020154369209e-01  9.3948002645114714e-01  8.7912814264322048e-01  7.9670792682799796e-01  7.0029414182702709e-01  5.9975442144191504e-01  5.0409454086578409e-01  4.1966330904667670e-01  3.4952583167979867e-01  2.9383120491867187e-01  2.5076590877735794e-01  2.1764598565584783e-01  1.9180119238966628e-01  1.7108302920316476e-01  1.5400797086425638e-01  1.3965913258839932e-01  1.2749342186981255e-01  1.1716261446632767e-01  1.0839622669323343e-01  1.0094264244387326e-01  9.4539131093562073e-02  8.8882465877284572e-02  8.3584857613231742e-02  7.8081845753143198e-02  7.1441075124429945e-02  6.3376576202878149e-02  9.6364291442040340e-02  9.6669537352054608e-02  6.4918416461392583e-02  7.7114381665280812e-02  9.3841396745033973e-02  1.2060203649077388e-01  1.7285222657998545e-01  2.7919093075031121e-01  4.4923764585894965e-01  6.3622753043529656e-01  7.8634989718082438e-01  8.8691239995661875e-01  9.4866097109517233e-01  9.8321028882781247e-01  9.9670635109741756e-01  9.9094003719946677e-01  9.6602690412722270e-01  9.2265342876839418e-01  8.6322853878370964e-01  7.9190608534594886e-01  7.1385695515624614e-01  6.3429798895898759e-01  5.5766463577910208e-01  4.8710848213491847e-01  4.2434221688068285e-01  3.6977844740070220e-01  3.2288056357676787e-01  2.8261881366224306e-01  2.4789803895260043e-01  2.1783362941217910e-01  1.9182498476217408e-01  1.6947403013610146e-01  1.5045187828741560e-01  1.3440017348849614e-01  1.2089653308611689e-01  1.0946651087671878e-01  9.9612328983990528e-02  9.0833397356979692e-02  8.2542386030044573e-02  7.3690773738959575e-02  6.3992280498329501e-02  9.6559491455456017e-02  9.6528291994100610e-02  6.3847239850455456e-02  7.1391470786445088e-02  7.9625345938858241e-02  9.1492970955679126e-02  1.1180386111876729e-01  1.5170834491972671e-01  2.3389607285928071e-01  3.7976539402485060e-01  5.7096404529083711e-01  7.5100066135216403e-01  8.8023399948157133e-01  9.5502897580184620e-01  9.8782389101912083e-01  9.9127860399787315e-01  9.7423935669187756e-01  9.4254204361944982e-01  9.0042402260465271e-01  8.5138316587843366e-01  7.9847343347956723e-01  7.4427769366916396e-01  6.9076651763457164e-01  6.3916648980152158e-01  5.8990055355545068e-01  5.4264136250578976e-01  4.9651912149282540e-01  4.5050764189812809e-01  4.0393289021138978e-01  3.5691796886733268e-01  3.1051187488255960e-01  2.6637874280544510e-01  2.2619910674848331e-01  1.9111342995689812e-01  1.6147481693184290e-01  1.3696140399205212e-01  1.1692546250114563e-01  1.0074999780465307e-01  8.7740325248213721e-02  7.6083780494654751e-02  6.4586869880631892e-02  9.6751890363196202e-02  9.6324136198220639e-02  6.2891751080481811e-02  6.7891205174991739e-02  7.2895087157145350e-02  8.0224458645584529e-02  9.2255866476753878e-02  1.1375138299140218e-01  1.5570387807631059e-01  2.3834568593244354e-01  3.7994248786036672e-01  5.6633120032858897e-01  7.4616983994903485e-01  8.7533258604128927e-01  9.4515723906475380e-01  9.6926819585557777e-01  9.6468696544896870e-01  9.4421283092925856e-01  9.1591644322001220e-01  8.8454295373472247e-01  8.5281757503348998e-01  8.2228324295031696e-01  7.9375269375151869e-01  7.6750149973761661e-01  7.4329125122652162e-01  7.2028554063443739e-01  6.9692477042062551e-01  6.7086139161077307e-01  6.3911118981488946e-01  5.9859265713206733e-01  5.4710389766621670e-01  4.8447543183813330e-01  4.1330218218933146e-01  3.3866309269227546e-01  2.6678057466671973e-01  2.0331589635728509e-01  1.5231261943602814e-01  1.1590838410480817e-01  9.3320699573308713e-02  7.8389521818427232e-02  6.5126589790599460e-02  9.6934199312869868e-02  9.6098108185517173e-02  6.2062383393989194e-02  6.5517906552908498e-02  6.9058059657654908e-02  7.4645738949424112e-02  8.3788143959402039e-02  9.9267885324252167e-02  1.2708321877556616e-01  1.792583908