<?xml version="1.0"?>
<VTKFile type="UnstructuredGrid"  version="0.1"  >
<UnstructuredGrid>
<Piece  NumberOfPoints="1681" NumberOfCells="3200">
<Points>
<DataArray  type="Float64"  NumberOfComponents="3"  format="ascii">0 0 0  0.025 0 0  0.05 0 0  0.075 0 0  0.1 0 0  0.125 0 0  0.15 0 0  0.175 0 0  0.2 0 0  0.225 0 0  0.25 0 0  0.275 0 0  0.3 0 0  0.325 0 0  0.35 0 0  0.375 0 0  0.4 0 0  0.425 0 0  0.45 0 0  0.475 0 0  0.5 0 0  0.525 0 0  0.55 0 0  0.575 0 0  0.6 0 0  0.625 0 0  0.65 0 0  0.675 0 0  0.7 0 0  0.725 0 0  0.75 0 0  0.775 0 0  0.8 0 0  0.825 0 0  0.85 0 0  0.875 0 0  0.9 0 0  0.925 0 0  0.95 0 0  0.975 0 0  1 0 0  0 0.025 0  0.025 0.025 0  0.05 0.025 0  0.075 0.025 0  0.1 0.025 0  0.125 0.025 0  0.15 0.025 0  0.175 0.025 0  0.2 0.025 0  0.225 0.025 0  0.25 0.025 0  0.275 0.025 0  0.3 0.025 0  0.325 0.025 0  0.35 0.025 0  0.375 0.025 0  0.4 0.025 0  0.425 0.025 0  0.45 0.025 0  0.475 0.025 0  0.5 0.025 0  0.525 0.025 0  0.55 0.025 0  0.575 0.025 0  0.6 0.025 0  0.625 0.025 0  0.65 0.025 0  0.675 0.025 0  0.7 0.025 0  0.725 0.025 0  0.75 0.025 0  0.775 0.025 0  0.8 0.025 0  0.825 0.025 0  0.85 0.025 0  0.875 0.025 0  0.9 0.025 0  0.925 0.025 0  0.95 0.025 0  0.975 0.025 0  1 0.025 0  0 0.05 0  0.025 0.05 0  0.05 0.05 0  0.075 0.05 0  0.1 0.05 0  0.125 0.05 0  0.15 0.05 0  0.175 0.05 0  0.2 0.05 0  0.225 0.05 0  0.25 0.05 0  0.275 0.05 0  0.3 0.05 0  0.325 0.05 0  0.35 0.05 0  0.375 0.05 0  0.4 0.05 0  0.425 0.05 0  0.45 0.05 0  0.475 0.05 0  0.5 0.05 0  0.525 0.05 0  0.55 0.05 0  0.575 0.05 0  0.6 0.05 0  0.625 0.05 0  0.65 0.05 0  0.675 0.05 0  0.7 0.05 0  0.725 0.05 0  0.75 0.05 0  0.775 0.05 0  0.8 0.05 0  0.825 0.05 0  0.85 0.05 0  0.875 0.05 0  0.9 0.05 0  0.925 0.05 0  0.95 0.05 0  0.975 0.05 0  1 0.05 0  0 0.075 0  0.025 0.075 0  0.05 0.075 0  0.075 0.075 0  0.1 0.075 0  0.125 0.075 0  0.15 0.075 0  0.175 0.075 0  0.2 0.075 0  0.225 0.075 0  0.25 0.075 0  0.275 0.075 0  0.3 0.075 0  0.325 0.075 0  0.35 0.075 0  0.375 0.075 0  0.4 0.075 0  0.425 0.075 0  0.45 0.075 0  0.475 0.075 0  0.5 0.075 0  0.525 0.075 0  0.55 0.075 0  0.575 0.075 0  0.6 0.075 0  0.625 0.075 0  0.65 0.075 0  0.675 0.075 0  0.7 0.075 0  0.725 0.075 0  0.75 0.075 0  0.775 0.075 0  0.8 0.075 0  0.825 0.075 0  0.85 0.075 0  0.875 0.075 0  0.9 0.075 0  0.925 0.075 0  0.95 0.075 0  0.975 0.075 0  1 0.075 0  0 0.1 0  0.025 0.1 0  0.05 0.1 0  0.075 0.1 0  0.1 0.1 0  0.125 0.1 0  0.15 0.1 0  0.175 0.1 0  0.2 0.1 0  0.225 0.1 0  0.25 0.1 0  0.275 0.1 0  0.3 0.1 0  0.325 0.1 0  0.35 0.1 0  0.375 0.1 0  0.4 0.1 0  0.425 0.1 0  0.45 0.1 0  0.475 0.1 0  0.5 0.1 0  0.525 0.1 0  0.55 0.1 0  0.575 0.1 0  0.6 0.1 0  0.625 0.1 0  0.65 0.1 0  0.675 0.1 0  0.7 0.1 0  0.725 0.1 0  0.75 0.1 0  0.775 0.1 0  0.8 0.1 0  0.825 0.1 0  0.85 0.1 0  0.875 0.1 0  0.9 0.1 0  0.925 0.1 0  0.95 0.1 0  0.975 0.1 0  1 0.1 0  0 0.125 0  0.025 0.125 0  0.05 0.125 0  0.075 0.125 0  0.1 0.125 0  0.125 0.125 0  0.15 0.125 0  0.175 0.125 0  0.2 0.125 0  0.225 0.125 0  0.25 0.125 0  0.275 0.125 0  0.3 0.125 0  0.325 0.125 0  0.35 0.125 0  0.375 0.125 0  0.4 0.125 0  0.425 0.125 0  0.45 0.125 0  0.475 0.125 0  0.5 0.125 0  0.525 0.125 0  0.55 0.125 0  0.575 0.125 0  0.6 0.125 0  0.625 0.125 0  0.65 0.125 0  0.675 0.125 0  0.7 0.125 0  0.725 0.125 0  0.75 0.125 0  0.775 0.125 0  0.8 0.125 0  0.825 0.125 0  0.85 0.125 0  0.875 0.125 0  0.9 0.125 0  0.925 0.125 0  0.95 0.125 0  0.975 0.125 0  1 0.125 0  0 0.15 0  0.025 0.15 0  0.05 0.15 0  0.075 0.15 0  0.1 0.15 0  0.125 0.15 0  0.15 0.15 0  0.175 0.15 0  0.2 0.15 0  0.225 0.15 0  0.25 0.15 0  0.275 0.15 0  0.3 0.15 0  0.325 0.15 0  0.35 0.15 0  0.375 0.15 0  0.4 0.15 0  0.425 0.15 0  0.45 0.15 0  0.475 0.15 0  0.5 0.15 0  0.525 0.15 0  0.55 0.15 0  0.575 0.15 0  0.6 0.15 0  0.625 0.15 0  0.65 0.15 0  0.675 0.15 0  0.7 0.15 0  0.725 0.15 0  0.75 0.15 0  0.775 0.15 0  0.8 0.15 0  0.825 0.15 0  0.85 0.15 0  0.875 0.15 0  0.9 0.15 0  0.925 0.15 0  0.95 0.15 0  0.975 0.15 0  1 0.15 0  0 0.175 0  0.025 0.175 0  0.05 0.175 0  0.075 0.175 0  0.1 0.175 0  0.125 0.175 0  0.15 0.175 0  0.175 0.175 0  0.2 0.175 0  0.225 0.175 0  0.25 0.175 0  0.275 0.175 0  0.3 0.175 0  0.325 0.175 0  0.35 0.175 0  0.375 0.175 0  0.4 0.175 0  0.425 0.175 0  0.45 0.175 0  0.475 0.175 0  0.5 0.175 0  0.525 0.175 0  0.55 0.175 0  0.575 0.175 0  0.6 0.175 0  0.625 0.175 0  0.65 0.175 0  0.675 0.175 0  0.7 0.175 0  0.725 0.175 0  0.75 0.175 0  0.775 0.175 0  0.8 0.175 0  0.825 0.175 0  0.85 0.175 0  0.875 0.175 0  0.9 0.175 0  0.925 0.175 0  0.95 0.175 0  0.975 0.175 0  1 0.175 0  0 0.2 0  0.025 0.2 0  0.05 0.2 0  0.075 0.2 0  0.1 0.2 0  0.125 0.2 0  0.15 0.2 0  0.175 0.2 0  0.2 0.2 0  0.225 0.2 0  0.25 0.2 0  0.275 0.2 0  0.3 0.2 0  0.325 0.2 0  0.35 0.2 0  0.375 0.2 0  0.4 0.2 0  0.425 0.2 0  0.45 0.2 0  0.475 0.2 0  0.5 0.2 0  0.525 0.2 0  0.55 0.2 0  0.575 0.2 0  0.6 0.2 0  0.625 0.2 0  0.65 0.2 0  0.675 0.2 0  0.7 0.2 0  0.725 0.2 0  0.75 0.2 0  0.775 0.2 0  0.8 0.2 0  0.825 0.2 0  0.85 0.2 0  0.875 0.2 0  0.9 0.2 0  0.925 0.2 0  0.95 0.2 0  0.975 0.2 0  1 0.2 0  0 0.225 0  0.025 0.225 0  0.05 0.225 0  0.075 0.225 0  0.1 0.225 0  0.125 0.225 0  0.15 0.225 0  0.175 0.225 0  0.2 0.225 0  0.225 0.225 0  0.25 0.225 0  0.275 0.225 0  0.3 0.225 0  0.325 0.225 0  0.35 0.225 0  0.375 0.225 0  0.4 0.225 0  0.425 0.225 0  0.45 0.225 0  0.475 0.225 0  0.5 0.225 0  0.525 0.225 0  0.55 0.225 0  0.575 0.225 0  0.6 0.225 0  0.625 0.225 0  0.65 0.225 0  0.675 0.225 0  0.7 0.225 0  0.725 0.225 0  0.75 0.225 0  0.775 0.225 0  0.8 0.225 0  0.825 0.225 0  0.85 0.225 0  0.875 0.225 0  0.9 0.225 0  0.925 0.225 0  0.95 0.225 0  0.975 0.225 0  1 0.225 0  0 0.25 0  0.025 0.25 0  0.05 0.25 0  0.075 0.25 0  0.1 0.25 0  0.125 0.25 0  0.15 0.25 0  0.175 0.25 0  0.2 0.25 0  0.225 0.25 0  0.25 0.25 0  0.275 0.25 0  0.3 0.25 0  0.325 0.25 0  0.35 0.25 0  0.375 0.25 0  0.4 0.25 0  0.425 0.25 0  0.45 0.25 0  0.475 0.25 0  0.5 0.25 0  0.525 0.25 0  0.55 0.25 0  0.575 0.25 0  0.6 0.25 0  0.625 0.25 0  0.65 0.25 0  0.675 0.25 0  0.7 0.25 0  0.725 0.25 0  0.75 0.25 0  0.775 0.25 0  0.8 0.25 0  0.825 0.25 0  0.85 0.25 0  0.875 0.25 0  0.9 0.25 0  0.925 0.25 0  0.95 0.25 0  0.975 0.25 0  1 0.25 0  0 0.275 0  0.025 0.275 0  0.05 0.275 0  0.075 0.275 0  0.1 0.275 0  0.125 0.275 0  0.15 0.275 0  0.175 0.275 0  0.2 0.275 0  0.225 0.275 0  0.25 0.275 0  0.275 0.275 0  0.3 0.275 0  0.325 0.275 0  0.35 0.275 0  0.375 0.275 0  0.4 0.275 0  0.425 0.275 0  0.45 0.275 0  0.475 0.275 0  0.5 0.275 0  0.525 0.275 0  0.55 0.275 0  0.575 0.275 0  0.6 0.275 0  0.625 0.275 0  0.65 0.275 0  0.675 0.275 0  0.7 0.275 0  0.725 0.275 0  0.75 0.275 0  0.775 0.275 0  0.8 0.275 0  0.825 0.275 0  0.85 0.275 0  0.875 0.275 0  0.9 0.275 0  0.925 0.275 0  0.95 0.275 0  0.975 0.275 0  1 0.275 0  0 0.3 0  0.025 0.3 0  0.05 0.3 0  0.075 0.3 0  0.1 0.3 0  0.125 0.3 0  0.15 0.3 0  0.175 0.3 0  0.2 0.3 0  0.225 0.3 0  0.25 0.3 0  0.275 0.3 0  0.3 0.3 0  0.325 0.3 0  0.35 0.3 0  0.375 0.3 0  0.4 0.3 0  0.425 0.3 0  0.45 0.3 0  0.475 0.3 0  0.5 0.3 0  0.525 0.3 0  0.55 0.3 0  0.575 0.3 0  0.6 0.3 0  0.625 0.3 0  0.65 0.3 0  0.675 0.3 0  0.7 0.3 0  0.725 0.3 0  0.75 0.3 0  0.775 0.3 0  0.8 0.3 0  0.825 0.3 0  0.85 0.3 0  0.875 0.3 0  0.9 0.3 0  0.925 0.3 0  0.95 0.3 0  0.975 0.3 0  1 0.3 0  0 0.325 0  0.025 0.325 0  0.05 0.325 0  0.075 0.325 0  0.1 0.325 0  0.125 0.325 0  0.15 0.325 0  0.175 0.325 0  0.2 0.325 0  0.225 0.325 0  0.25 0.325 0  0.275 0.325 0  0.3 0.325 0  0.325 0.325 0  0.35 0.325 0  0.375 0.325 0  0.4 0.325 0  0.425 0.325 0  0.45 0.325 0  0.475 0.325 0  0.5 0.325 0  0.525 0.325 0  0.55 0.325 0  0.575 0.325 0  0.6 0.325 0  0.625 0.325 0  0.65 0.325 0  0.675 0.325 0  0.7 0.325 0  0.725 0.325 0  0.75 0.325 0  0.775 0.325 0  0.8 0.325 0  0.825 0.325 0  0.85 0.325 0  0.875 0.325 0  0.9 0.325 0  0.925 0.325 0  0.95 0.325 0  0.975 0.325 0  1 0.325 0  0 0.35 0  0.025 0.35 0  0.05 0.35 0  0.075 0.35 0  0.1 0.35 0  0.125 0.35 0  0.15 0.35 0  0.175 0.35 0  0.2 0.35 0  0.225 0.35 0  0.25 0.35 0  0.275 0.35 0  0.3 0.35 0  0.325 0.35 0  0.35 0.35 0  0.375 0.35 0  0.4 0.35 0  0.425 0.35 0  0.45 0.35 0  0.475 0.35 0  0.5 0.35 0  0.525 0.35 0  0.55 0.35 0  0.575 0.35 0  0.6 0.35 0  0.625 0.35 0  0.65 0.35 0  0.675 0.35 0  0.7 0.35 0  0.725 0.35 0  0.75 0.35 0  0.775 0.35 0  0.8 0.35 0  0.825 0.35 0  0.85 0.35 0  0.875 0.35 0  0.9 0.35 0  0.925 0.35 0  0.95 0.35 0  0.975 0.35 0  1 0.35 0  0 0.375 0  0.025 0.375 0  0.05 0.375 0  0.075 0.375 0  0.1 0.375 0  0.125 0.375 0  0.15 0.375 0  0.175 0.375 0  0.2 0.375 0  0.225 0.375 0  0.25 0.375 0  0.275 0.375 0  0.3 0.375 0  0.325 0.375 0  0.35 0.375 0  0.375 0.375 0  0.4 0.375 0  0.425 0.375 0  0.45 0.375 0  0.475 0.375 0  0.5 0.375 0  0.525 0.375 0  0.55 0.375 0  0.575 0.375 0  0.6 0.375 0  0.625 0.375 0  0.65 0.375 0  0.675 0.375 0  0.7 0.375 0  0.725 0.375 0  0.75 0.375 0  0.775 0.375 0  0.8 0.375 0  0.825 0.375 0  0.85 0.375 0  0.875 0.375 0  0.9 0.375 0  0.925 0.375 0  0.95 0.375 0  0.975 0.375 0  1 0.375 0  0 0.4 0  0.025 0.4 0  0.05 0.4 0  0.075 0.4 0  0.1 0.4 0  0.125 0.4 0  0.15 0.4 0  0.175 0.4 0  0.2 0.4 0  0.225 0.4 0  0.25 0.4 0  0.275 0.4 0  0.3 0.4 0  0.325 0.4 0  0.35 0.4 0  0.375 0.4 0  0.4 0.4 0  0.425 0.4 0  0.45 0.4 0  0.475 0.4 0  0.5 0.4 0  0.525 0.4 0  0.55 0.4 0  0.575 0.4 0  0.6 0.4 0  0.625 0.4 0  0.65 0.4 0  0.675 0.4 0  0.7 0.4 0  0.725 0.4 0  0.75 0.4 0  0.775 0.4 0  0.8 0.4 0  0.825 0.4 0  0.85 0.4 0  0.875 0.4 0  0.9 0.4 0  0.925 0.4 0  0.95 0.4 0  0.975 0.4 0  1 0.4 0  0 0.425 0  0.025 0.425 0  0.05 0.425 0  0.075 0.425 0  0.1 0.425 0  0.125 0.425 0  0.15 0.425 0  0.175 0.425 0  0.2 0.425 0  0.225 0.425 0  0.25 0.425 0  0.275 0.425 0  0.3 0.425 0  0.325 0.425 0  0.35 0.425 0  0.375 0.425 0  0.4 0.425 0  0.425 0.425 0  0.45 0.425 0  0.475 0.425 0  0.5 0.425 0  0.525 0.425 0  0.55 0.425 0  0.575 0.425 0  0.6 0.425 0  0.625 0.425 0  0.65 0.425 0  0.675 0.425 0  0.7 0.425 0  0.725 0.425 0  0.75 0.425 0  0.775 0.425 0  0.8 0.425 0  0.825 0.425 0  0.85 0.425 0  0.875 0.425 0  0.9 0.425 0  0.925 0.425 0  0.95 0.425 0  0.975 0.425 0  1 0.425 0  0 0.45 0  0.02
[...]
<PointData  Scalars="ControlVisualisation"> 
<DataArray  type="Float64"  Name="ControlVisualisation"  format="ascii">4.1438137423594823e-01  3.5079219001085787e-01  3.5084926436643915e-01  3.5112792600618525e-01  3.5164837655921538e-01  3.5233777796409710e-01  3.5308886376590037e-01  3.5380288601484172e-01  3.5441244053790666e-01  3.5488515736536985e-01  3.5521664884086424e-01  3.5541980939909790e-01  3.5551512089057496e-01  3.5552403220985879e-01  3.5546547276956203e-01  3.5535463015394492e-01  3.5520303625716149e-01  3.5501924748226271e-01  3.5480967354773929e-01  3.5457932210329907e-01  3.5433237127957912e-01  3.5407256400221510e-01  3.5380345272967095e-01  3.5352853141763674e-01  3.5325128838255299e-01  3.5297520745667188e-01  3.5270373835456820e-01  3.5244025125793949e-01  3.5218798549131142e-01  3.5194999806573501e-01  3.5172911504099608e-01  3.5152788708685018e-01  3.5134855091346961e-01  3.5119300091940292e-01  3.5106278405252667e-01  3.5095915657749566e-01  3.5088324525109099e-01  3.5083612029208910e-01  3.5081716545782959e-01  3.5081752231050684e-01  5.0460546005096296e-01  3.5078783079377734e-01  2.3630101342196863e-01  2.3706678139949877e-01  2.3891798623047683e-01  2.4198214599161871e-01  2.4595152390196345e-01  2.5030968918864799e-01  2.5454349501849244e-01  2.5826083190685634e-01  2.6123375606919208e-01  2.6338801562948760e-01  2.6476126419991614e-01  2.6545323894499595e-01  2.6558472514345033e-01  2.6527153006500254e-01  2.6461199815602948e-01  2.6368388014431354e-01  2.6254642868893108e-01  2.6124458766975844e-01  2.5981334135963491e-01  2.5828130956962991e-01  2.5667334106356365e-01  2.5501219048631540e-01  2.5331947970391078e-01  2.5161615381225994e-01  2.4992261124989384e-01  2.4825864575297937e-01  2.4664329632519755e-01  2.4509466482202197e-01  2.4362973214847009e-01  2.4226418503537167e-01  2.4101225584873601e-01  2.3988657873178867e-01  2.3889807461142210e-01  2.3805590703454982e-01  2.3736758151305301e-01  2.3683909134943026e-01  2.3647403667820402e-01  2.3626670950053741e-01  2.3618694295711690e-01  3.5081751974709513e-01  3.5079816079574183e-01  2.3700848179716438e-01  2.3974947146658976e-01  2.4462253936920042e-01  2.5191924676827315e-01  2.6112315491251115e-01  2.7121692454935042e-01  2.8110782549343322e-01  2.8987972692871133e-01  2.9693406410844853e-01  3.0202470802714793e-01  3.0519440510652918e-01  3.0666414190311309e-01  3.0672991529608667e-01  3.0569010570501132e-01  3.0380507554898617e-01  3.0128287048613739e-01  2.9828183555791460e-01  2.9492105475693203e-01  2.9129210515694537e-01  2.8746882248640038e-01  2.8351414346582027e-01  2.7948430708865035e-01  2.7543110271319410e-01  2.7140285516781959e-01  2.6744469678159116e-01  2.6359851073985563e-01  2.5990278205911144e-01  2.5639247608775090e-01  2.5309898399068176e-01  2.5005012868452292e-01  2.4727020723586243e-01  2.4478005048748586e-01  2.4259709354179282e-01  2.4073545690738307e-01  2.3920586596794843e-01  2.3801447284078975e-01  2.3715670694131652e-01  2.3659756320196818e-01  2.3626661944852956e-01  3.5081710953033174e-01  3.5092284550748437e-01  2.3882124470753999e-01  2.4528321620725321e-01  2.5419041543453136e-01  2.6570876880538413e-01  2.7922952388698563e-01  2.9345515903663144e-01  3.0695353418973104e-01  3.1850103458598383e-01  3.2734047901084479e-01  3.3324317832641825e-01  3.3637562344465832e-01  3.3712823480175419e-01  3.3598236908868701e-01  3.3341148772115881e-01  3.2981774399761360e-01  3.2550798637460160e-01  3.2070081386901927e-01  3.1554864103310687e-01  3.1016129714467178e-01  3.0462428622209459e-01  2.9901022886832440e-01  2.9338476618176812e-01  2.8780890027894129e-01  2.8233944965277985e-01  2.7702874379704806e-01  2.7192419229175741e-01  2.6706801773169486e-01  2.6249722817616022e-01  2.5824379190246644e-01  2.5433493454952122e-01  2.5079347899786819e-01  2.4763816834446789e-01  2.4488391328479989e-01  2.4254180725831909e-01  2.4061819994107764e-01  2.3911019443369042e-01  2.3798917781750106e-01  2.3715922374558798e-01  2.3647424318638258e-01  3.5083583620039871e-01  3.5119442507934218e-01  2.4251480325659314e-01  2.5748122851062943e-01  2.7429294444909547e-01  2.9191622067045198e-01  3.0974787653220054e-01  3.2673548590406370e-01  3.4161041183636859e-01  3.5329790372037745e-01  3.6132173893793690e-01  3.6570882774824620e-01  3.6675882907367396e-01  3.6498823022080118e-01  3.6107357212355840e-01  3.5571295852037588e-01  3.4949065532111678e-01  3.4281681837815264e-01  3.3593922983329094e-01  3.2899088726099518e-01  3.2204096958474704e-01  3.1513221140375747e-01  3.0830166641434037e-01  3.0158888118529892e-01  2.9503692164391998e-01  2.8869042225355623e-01  2.8259306437340015e-01  2.7678555250093012e-01  2.7130437660930901e-01  2.6618127851690854e-01  2.6144321160591100e-01  2.5711257782774688e-01  2.5320757042306030e-01  2.4974249689148359e-01  2.4672793592389342e-01  2.4417033586257345e-01  2.4206957860031947e-01  2.4040943497489892e-01  2.3912560883727946e-01  2.3802804475498049e-01  2.3684193345649493e-01  3.5088257499554842e-01  3.5227066924975442e-01  2.5322015248606283e-01  2.8968253365127195e-01  3.2579491259360632e-01  3.5368396711509609e-01  3.7151704165465432e-01  3.8278371164856945e-01  3.9045040372271789e-01  3.9597436145224857e-01  3.9985053052937142e-01  4.0156464251893481e-01  4.0024913358246328e-01  3.9560453874773982e-01  3.8817687594627870e-01  3.7899077666116532e-01  3.6906375237095901e-01  3.5911893563644859e-01  3.4953309655226267e-01  3.4042523556727239e-01  3.3177737124940604e-01  3.2352734434033564e-01  3.1561942618306915e-01  3.0802233847027827e-01  3.0072930787272156e-01  2.9375127006828683e-01  2.8710930236285814e-01  2.8082868476464812e-01  2.7493501968232081e-01  2.6945204651722071e-01  2.6440060401555754e-01  2.5979825951397928e-01  2.5565925442489285e-01  2.5199451517696342e-01  2.4881144325167076e-01  2.4611276710777058e-01  2.4389195395511976e-01  2.4211676448737643e-01  2.4067582104346341e-01  2.3924947452595360e-01  2.3737926201437598e-01  3.5095821919607167e-01  3.7050330630946854e-01  3.1116478244839457e-01  4.3203273684362364e-01  4.6685465458393233e-01  4.6131699405970616e-01  4.7052597379667865e-01  4.8505020472662697e-01  4.8861753807313535e-01  4.7271905998911956e-01  4.5205328058333294e-01  4.3850861045053641e-01  4.3112509501330559e-01  4.2501112250763706e-01  4.1656512156280551e-01  4.0503103142797403e-01  3.9158691671784696e-01  3.7779819302938605e-01  3.6472596973547572e-01  3.5279054886225542e-01  3.4198897936784489e-01  3.3214113699295456e-01  3.2304575925729412e-01  3.1454703824855390e-01  3.0654714953640938e-01  2.9899578552431666e-01  2.9187456101185244e-01  2.8518374501802346e-01  2.7893308600601779e-01  2.7313619293218344e-01  2.6780737316059527e-01  2.6295994773936238e-01  2.5860534263870416e-01  2.5475246630719484e-01  2.5140685799116008e-01  2.4856843421393934e-01  2.4622397376541055e-01  2.4432162231241997e-01  2.4268992788213950e-01  2.4084344825652915e-01  2.3808840583518626e-01  3.5106224911161971e-01  5.4176762117468213e-01  5.9698995327613769e-01  6.3221921643697343e-01  6.1711030424175040e-01  5.9225199926652006e-01  5.7001315967070632e-01  5.5162862376382815e-01  5.1810577692424453e-01  4.7657778753832458e-01  4.8401798567004073e-01  4.8776344313835651e-01  4.6848729167789188e-01  4.5007962203749452e-01  4.3903984470552443e-01  4.2912636959366840e-01  4.1598175838863022e-01  4.0005474800631430e-01  3.8356921033864089e-01  3.6818475813953055e-01  3.5451701835292920e-01  3.4250707016675092e-01  3.3184484635308820e-01  3.2221176556424036e-01  3.1336892941075745e-01  3.0516492692799485e-01  2.9751546385278321e-01  2.9037996274560685e-01  2.8374354098236720e-01  2.7760523136179749e-01  2.7197091981250976e-01  2.6684925970099466e-01  2.6224924069849664e-01  2.5817848747174599e-01  2.5464139198456626e-01  2.5163526342948644e-01  2.4913890463165991e-01  2.4707574716284156e-01  2.4519977062318499e-01  2.4282374881703714e-01  2.3897081232845721e-01  3.5119433135026235e-01  8.1667136876938051e-01  8.5677518744664882e-01  8.2640557667074466e-01  7.8408238712519962e-01  7.3397517667390400e-01  6.7754019651909403e-01  6.2414766789187315e-01  5.9023775636817744e-01  5.8279480430131958e-01  5.4971149919751916e-01  4.8635366570061378e-01  4.7975037326923153e-01  4.7728353848134097e-01  4.5887741983223973e-01  4.4490940093004605e-01  4.3533645088188860e-01  4.2270245925058930e-01  4.0595304747408328e-01  3.8787776004949664e-01  3.7090480580442986e-01  3.5598868696841951e-01  3.4310052590042323e-01  3.3185260267707201e-01  3.2184267743268319e-01  3.1277044765712547e-01  3.0444463308078684e-01  2.9675578222140497e-01  2.8964727116500838e-01  2.8309383960544160e-01  2.7708781433201501e-01  2.7163075862459712e-01  2.6672834836607179e-01  2.6238682246745315e-01  2.5860948322757354e-01  2.5539052365904996e-01  2.5269846082754466e-01  2.5042547616356764e-01  2.4823526846945149e-01  2.4520361412599870e-01  2.4002770187407840e-01  3.5135420005665852e-01  8.7810493683774360e-01  9.1282405775114361e-01  8.8471155565199844e-01  8.4916005045420584e-01  8.0595084905225378e-01  7.5422338630330321e-01  6.9498039943160717e-01  6.3486391425025201e-01  5.8706914419223333e-01  5.7440377389463748e-01  5.8111057096328000e-01  5.1025657964276394e-01  4.6714684216891017e-01  4.6942498436535518e-01  4.5909413943540256e-01  4.4569973896780934e-01  4.3780739747173991e-01  4.2704563645797133e-01  4.1069398427940718e-01  3.9189264333728691e-01  3.7386961155699916e-01  3.5801889023052885e-01  3.4442832740094653e-01  3.3269095572303353e-01  3.2235572737254492e-01  3.1308003030130332e-01  3.0464281125532788e-01  2.9691517638640508e-01  2.8982836415462077e-01  2.8334995484604375e-01  2.7746834820558797e-01  2.7218289997708217e-01  2.6749712896576888e-01  2.6341251174316677e-01  2.5991887576991080e-01  2.5697111059900363e-01  2.5442217589344207e-01  2.5182875815719236e-01  2.4799608690306787e-01  2.4125937290394114e-01  3.5154141958167173e-01  8.8914238802311907e-01  9.2598547979868395e-01  9.0133445915807076e-01  8.6975104443755169e-01  8.3209162377588530e-01  7.8772953417025937e-01  7.3517805635130817e-01  6.7764467925504190e-01  6.2353215495066849e-01  5.8274675797196707e-01  5.7116417526445085e-01  5.8202776193867101e-01  5.1347340050307877e-01  4.5314225371009542e-01  4.5432878346635885e-01  4.5419120907030663e-01  4.4415709443041684e-01  4.3870965476063395e-01  4.3047704548511512e-01  4.1532296421777598e-01  3.9644010896284670e-01  3.7775295753707022e-01  3.6114876532764445e-01  3.4691560362973989e-01  3.3468865288506944e-01  3.2400239279894710e-01  3.1448808825436808e-01  3.0590186470272007e-01  2.9809867905085530e-01  2.9099988255983661e-01  2.8456786595433042e-01  2.7878853860539987e-01  2.7365897003411521e-01  2.6917664215210635e-01  2.6532466770836832e-01  2.6203969216981798e-01  2.5912590803725127e-01  2.5601554837125140e-01  2.5121288810692061e-01  2.4266437417538425e-01  3.5175522331586140e-01  8.6874914664554670e-01  9.1604717636068789e-01  8.9269116283433847e-01  8.6356249461279422e-01  8.2935793330504204e-01  7.8965948071614134e-01  7.4284361837373813e-01  6.9209435353071558e-01  6.4688802005706203e-01  6.1269046543230510e-01  5.8654472414168535e-01  5.7672234508488818e-01  5.7517219792634888e-01  4.9811001705561769e-01  4.3425278891231284e-01  4.3689357496287073e-01  4.4755150067120197e-01  4.4253773306307376e-01  4.3961871498999727e-01  4.3395630625373854e-01  4.2048049784585201e-01  4.0204390818979435e-01  3.8301707546891273e-01  3.6577739953334326e-01  3.5089285965650280e-01  3.3810963758062523e-01  3.2698712279348896e-01  3.1714849537551948e-01  3.0833427332497909e-01  3.0038623859810337e-01  2.9321743091498353e-01  2.8678570138769055e-01  2.8107309592464658e-01  2.7606787219081091e-01  2.7174193067778918e-01  2.6800711528090304e-01  2.6460746973771848e-01  2.6083324149303183e-01  2.5486269234960690e-01  2.4423865084118190e-01  3.5199438873651778e-01  7.7873239550115203e-01  8.6925867199696771e-01  8.5023833364541912e-01  8.2762913661484294e-01  7.9815520212973967e-01  7.6258250109667425e-01  7.2123349337668663e-01  6.8018847564121154e-01  6.5359578559662990e-01  6.4682339837939506e-01  6.3389185721815888e-01  6.0457214880460874e-01  5.8296289950866897e-01  5.6073270971703471e-01  4.7463800782615001e-01  4.1345226960682152e-01  4.2029534775719612e-01  4.4165501703164239e-01  4.4244227721813006e-01  4.4150758026760029e-01  4.3790461982573398e-01  4.2635919115393645e-01  4.0890936829113439e-01  3.8993642798413247e-01  3.7221469617866537e-01  3.5666057918713417e-01  3.4321571794668593e-01  3.3152056660179324e-01  3.2121980442158871e-01  3.1205211891942158e-01  3.0385198032815958e-01  2.9652563798383386e-01  2.9002369725103960e-01  2.8431401474897322e-01  2.7934838637535653e-01  2.7500389113210227e-01  2.7095072335842346e-01  2.6632058200692948e-01  2.5894898362372698e-01  2.4597462738153181e-01  3.5225711596953235e-01  4.7618041997054578e-01  6.6697500502044238e-01  7.3322076384167945e-01  7.3936678593913197e-01  7.2457690483423576e-01  6.9852020804830883e-01  6.6776539072456087e-01  6.4445501510389258e-01  6.5026359959481173e-01  6.9208168792118352e-01  7.1379526422015704e-01  6.7151005199462366e-01  6.1516912129108703e-01  5.8053787792742961e-01  5.4098666610715340e-01  4.5131018396906009e-01  3.9492781345696215e-01  4.0680452369234854e-01  4.3773264638630172e-01  4.4461794645734531e-01  4.4477537656204535e-01  4.4222945198272617e-01  4.3263982732396883e-01  4.1681715921937917e-01  3.9850961729579859e-01  3.8063359921620177e-01  3.6447477665010286e-01  3.5026960862218193e-01  3.3782677803255040e-01  3.2686900583835959e-01  3.1716451436526349e-01  3.0855422094671653e-01  3.0093787275646700e-01  2.9424473163557158e-01  2.8839036747218250e-01  2.8320126800445033e-01  2.7825691178565071e-01  2.7251641134151977e-01  2.6346767257182280e-01  2.4786027443643666e-01  3.5254090789175269e-01  3.6266493844688547e-01  3.7953328204898573e-01  5.2702736340446965e-01  6.0232501654534576e-01  6.1233277471482583e-01  6.0079276607808518e-01  5.8887015616290672e-01  5.9150735386365161e-01  6.3207939758363640e-01  7.1787409409566483e-01  7.8351625203343356e-01  7.4711070738177865e-01  6.5961283425862038e-01  6.0414569695772302e-01  5.7266674709214194e-01  5.2124676198219289e-01  4.3219751096827969e-01  3.8140084958417997e-01  3.9733887720189437e-01  4.3556487782275921e-01  4.4892461058167343e-01  4.4957658720416283e-01  4.4669751179866413e-01  4.3861986695748406e-01  4.2501089757008953e-01  4.0824931548582072e-01  3.9087501485485548e-01  3.7440692160947497e-01  3.5944449231484760e-01  3.4608406474456294e-01  3.3422797758625189e-01  3.2373821863601726e-01  3.1448895083398298e-01  3.0636590263734342e-01  2.9923057433342198e-01  2.9283717338478726e-01  2.8665454848268496e-01  2.7946024544328124e-01  2.6840511462729011e-01  2.4987834529249650e-01  3.5284246771089434e-01  3.5517275519085378e-01  2.8276270126260261e-01  4.1632316553891136e-01  4.5438570723070781e-01  5.1490528210393005e-01  5.7253764961808951e-01  5.7033981569044545e-01  5.5944442775587433e-01  5.8795697083810350e-01  6.5894134370257618e-01  7.3120967981956952e-01  7.3116103587696291e-01  6.6062931924285251e-01  6.0854592482365777e-01  5.9453919952087209e-01  5.6941486926503471e-01  5.0490924370433099e-01  4.1887118875316987e-01  3.7456490954046329e-01  3.9157404613998031e-01  4.3347162888014079e-01  4.5431950082936301e-01  4.5657311716104487e-01  4.5224686237677725e-01  4.4432320417272841e-01  4.3270491804325273e-01  4.1818297172264451e-01  4.0221152997944665e-01  3.8607427805924466e-01  3.7060676085312699e-01  3.5626991385177320e-01  3.4328084449833279e-01  3.3169863327132582e-01  3.2146896771060968e-01  3.1243205555547937e-01  3.0426733905238934e-01  2.9632259238362540e-01  2.8719829042927902e-01  2.7373816634931758e-01  2.5200618104739814e-01  3.5315764781864950e-01  3.5469355713982320e-01  2.6800904199554137e-01  3.2791971296224598e-01  3.8666309385114273e-01  4.5420662236513254e-01  4.4458884901624740e-01  4.3968789265804414e-01  5.3316202424032388e-01  5.6709999969772085e-01  5.8260989978597899e-01  6.1513729929436090e-01  6.2214133910612746e-01  5.9019846888134908e-01  5.7251381302058824e-01  5.9459325849659694e-01  6.0929947056912215e-01  5.7281786200370455e-01  4.9394424335598885e-01  4.1422605207160051e-01  3.7657444132045748e-01  3.8943579860674959e-01  4.2867641636094633e-01  4.5765645951973355e-01  4.6645340560500248e-01  4.6282385875694043e-01  4.5380783016292908e-01  4.4221006557538450e-01  4.2887546496841195e-01  4.1424998251011647e-01  3.9882810672707186e-01  3.8320145398510691e-01  3.6798722277033291e-01  3.5370011811527585e-01  3.4064139876862409e-01  3.2884694795499808e-01  3.1804685011413830e-01  3.0753772865585216e-01  2.9580205868426307e-01  2.7943957269330366e-01  2.5421677129864073e-01  3.5348149634863657e-01  3.5401057095655858e-01  2.5901183710068632e-01  2.9844803589343771e-01  3.3244949706571503e-01  3.5991426377984165e-01  3.9491581394098974e-01  4.3349941445837020e-01  3.9943412035952458e-01  3.7309929009143011e-01  5.0002649284924550e-01  5.5709907433654660e-01  5.6517779895904097e-01  5.4560355385958903e-01  5.4232136996403546e-01  5.8657739708065260e-01  6.3838353851409990e-01  6.3874895352986749e-01  5.7789280982599067e-01  4.9275049811701960e-01  4.2386107798580774e-01  3.9148873218607161e-01  3.9486192863011182e-01  4.2108899869996569e-01  4.5144787785842355e-01  4.7191539567992802e-01  4.7871564263833283e-01  4.7447186476762815e-01  4.6325282683527119e-01  4.4833657758141809e-01  4.3179185914814189e-01  4.1471263501418965e-01  3.9763862698249641e-01  3.8090765650418490e-01  3.6479731762016587e-01  3.4949651959652100e-01  3.3497338829850393e-01  3.2073944576685148e-01  3.0540635182272174e-01  2.8549337696160698e-01  2.5648193707297989e-01  3.5380843021633740e-01  3.5338244274953978e-01  2.5282066499304734e-01  2.7865161762612833e-01  3.0310652953562750e-01  3.2876513639840066e-01  3.5017476909270284e-01  3.6553789020905980e-01  3.9086045049886120e-01  3.7392176380358016e-01  3.2448718225191081e-01  4.3229394957899198e-01  5.5366054823504862e-01  5.7365150838786794e-01  5.7460755057968793e-01  6.0896915531296025e-01  6.6759595772658153e-01  6.9498720367964184e-01  6.5997935464344493e-01  5.8383024315781995e-01  5.0629218440285340e-01  4.5225087838516231e-01  4.2527776124301553e-01  4.1892304150495696e-01  4.2556208771279136e-01  4.3903092276585109e-01  4.5530027226803038e-01  4.7130082439988563e-01  4.8364215747143646e-01  4.8840337700981395e-01  4.8261613408188397e-01  4.6651511864074058e-01  4.4390749931672402e-01  4.1963500362369277e-01  3.9671448716635793e-01  3.7572565094356103e-01  3.5596548322758859e-01  3.3652530192168634e-01  3.1624957727524311e-01  2.9192252358459514e-01  2.5877817574617845e-01  3.5413242873229062e-01  3.5275636814047606e-01  2.4783645366829726e-01  2.6452374786364358e-01  2.8119369038299108e-01  3.0263175416127264e-01  3.2809602477943733e-01  3.4764856989133963e-01  3.5466604021600212e-01  3.7004055274024183e-01  3.4610331531649396e-01  3.1439421543375035e-01  4.2378735451550514e-01  5.7743592351204553e-01  6.2355572979139628e-01  6.5509350181107306e-01  7.0036583069846103e-01  7.3431564251656345e-01  7.2250503285676526e-01  6.6603964695419315e-01  5.9382968660191371e-01  5.3257383872412900e-01  4.9393474029476730e-01  4.7615162632965280e-01  4.7101083206738492e-01  4.7070183245355535e-01  4.7035677069560655e-01  4.6764746070911034e-01  4.6235955477147506e-01  4.5678146891903182e-01  4.5598406910474604e-01  4.6458973872259035e-01  4.7771281215228656e-01  4.7848149273519103e-01  4.5618442856959140e-01  4.1992572327421251e-01  3.8486764385451688e-01  3.5567465646963681e-01  3.2862144058611981e-01  2.9882155042272035e-01  2.6109385337378582e-01  3.5444664819984745e-01  3.5218602529005305e-01  2.4393144871724323e-01  2.5462438749246924e-01  2.6652851246857562e-01  2.8373806867112250e-01  3.0739866859512088e-01  3.3340597221062096e-01  3.4927272582374691e-01  3.543773401