<?xml version="1.0"?>
<VTKFile type="UnstructuredGrid"  version="0.1"  >
<UnstructuredGrid>
<Piece  NumberOfPoints="1681" NumberOfCells="3200">
<Points>
<DataArray  type="Float64"  NumberOfComponents="3"  format="ascii">0 0 0  0.025 0 0  0.05 0 0  0.075 0 0  0.1 0 0  0.125 0 0  0.15 0 0  0.175 0 0  0.2 0 0  0.225 0 0  0.25 0 0  0.275 0 0  0.3 0 0  0.325 0 0  0.35 0 0  0.375 0 0  0.4 0 0  0.425 0 0  0.45 0 0  0.475 0 0  0.5 0 0  0.525 0 0  0.55 0 0  0.575 0 0  0.6 0 0  0.625 0 0  0.65 0 0  0.675 0 0  0.7 0 0  0.725 0 0  0.75 0 0  0.775 0 0  0.8 0 0  0.825 0 0  0.85 0 0  0.875 0 0  0.9 0 0  0.925 0 0  0.95 0 0  0.975 0 0  1 0 0  0 0.025 0  0.025 0.025 0  0.05 0.025 0  0.075 0.025 0  0.1 0.025 0  0.125 0.025 0  0.15 0.025 0  0.175 0.025 0  0.2 0.025 0  0.225 0.025 0  0.25 0.025 0  0.275 0.025 0  0.3 0.025 0  0.325 0.025 0  0.35 0.025 0  0.375 0.025 0  0.4 0.025 0  0.425 0.025 0  0.45 0.025 0  0.475 0.025 0  0.5 0.025 0  0.525 0.025 0  0.55 0.025 0  0.575 0.025 0  0.6 0.025 0  0.625 0.025 0  0.65 0.025 0  0.675 0.025 0  0.7 0.025 0  0.725 0.025 0  0.75 0.025 0  0.775 0.025 0  0.8 0.025 0  0.825 0.025 0  0.85 0.025 0  0.875 0.025 0  0.9 0.025 0  0.925 0.025 0  0.95 0.025 0  0.975 0.025 0  1 0.025 0  0 0.05 0  0.025 0.05 0  0.05 0.05 0  0.075 0.05 0  0.1 0.05 0  0.125 0.05 0  0.15 0.05 0  0.175 0.05 0  0.2 0.05 0  0.225 0.05 0  0.25 0.05 0  0.275 0.05 0  0.3 0.05 0  0.325 0.05 0  0.35 0.05 0  0.375 0.05 0  0.4 0.05 0  0.425 0.05 0  0.45 0.05 0  0.475 0.05 0  0.5 0.05 0  0.525 0.05 0  0.55 0.05 0  0.575 0.05 0  0.6 0.05 0  0.625 0.05 0  0.65 0.05 0  0.675 0.05 0  0.7 0.05 0  0.725 0.05 0  0.75 0.05 0  0.775 0.05 0  0.8 0.05 0  0.825 0.05 0  0.85 0.05 0  0.875 0.05 0  0.9 0.05 0  0.925 0.05 0  0.95 0.05 0  0.975 0.05 0  1 0.05 0  0 0.075 0  0.025 0.075 0  0.05 0.075 0  0.075 0.075 0  0.1 0.075 0  0.125 0.075 0  0.15 0.075 0  0.175 0.075 0  0.2 0.075 0  0.225 0.075 0  0.25 0.075 0  0.275 0.075 0  0.3 0.075 0  0.325 0.075 0  0.35 0.075 0  0.375 0.075 0  0.4 0.075 0  0.425 0.075 0  0.45 0.075 0  0.475 0.075 0  0.5 0.075 0  0.525 0.075 0  0.55 0.075 0  0.575 0.075 0  0.6 0.075 0  0.625 0.075 0  0.65 0.075 0  0.675 0.075 0  0.7 0.075 0  0.725 0.075 0  0.75 0.075 0  0.775 0.075 0  0.8 0.075 0  0.825 0.075 0  0.85 0.075 0  0.875 0.075 0  0.9 0.075 0  0.925 0.075 0  0.95 0.075 0  0.975 0.075 0  1 0.075 0  0 0.1 0  0.025 0.1 0  0.05 0.1 0  0.075 0.1 0  0.1 0.1 0  0.125 0.1 0  0.15 0.1 0  0.175 0.1 0  0.2 0.1 0  0.225 0.1 0  0.25 0.1 0  0.275 0.1 0  0.3 0.1 0  0.325 0.1 0  0.35 0.1 0  0.375 0.1 0  0.4 0.1 0  0.425 0.1 0  0.45 0.1 0  0.475 0.1 0  0.5 0.1 0  0.525 0.1 0  0.55 0.1 0  0.575 0.1 0  0.6 0.1 0  0.625 0.1 0  0.65 0.1 0  0.675 0.1 0  0.7 0.1 0  0.725 0.1 0  0.75 0.1 0  0.775 0.1 0  0.8 0.1 0  0.825 0.1 0  0.85 0.1 0  0.875 0.1 0  0.9 0.1 0  0.925 0.1 0  0.95 0.1 0  0.975 0.1 0  1 0.1 0  0 0.125 0  0.025 0.125 0  0.05 0.125 0  0.075 0.125 0  0.1 0.125 0  0.125 0.125 0  0.15 0.125 0  0.175 0.125 0  0.2 0.125 0  0.225 0.125 0  0.25 0.125 0  0.275 0.125 0  0.3 0.125 0  0.325 0.125 0  0.35 0.125 0  0.375 0.125 0  0.4 0.125 0  0.425 0.125 0  0.45 0.125 0  0.475 0.125 0  0.5 0.125 0  0.525 0.125 0  0.55 0.125 0  0.575 0.125 0  0.6 0.125 0  0.625 0.125 0  0.65 0.125 0  0.675 0.125 0  0.7 0.125 0  0.725 0.125 0  0.75 0.125 0  0.775 0.125 0  0.8 0.125 0  0.825 0.125 0  0.85 0.125 0  0.875 0.125 0  0.9 0.125 0  0.925 0.125 0  0.95 0.125 0  0.975 0.125 0  1 0.125 0  0 0.15 0  0.025 0.15 0  0.05 0.15 0  0.075 0.15 0  0.1 0.15 0  0.125 0.15 0  0.15 0.15 0  0.175 0.15 0  0.2 0.15 0  0.225 0.15 0  0.25 0.15 0  0.275 0.15 0  0.3 0.15 0  0.325 0.15 0  0.35 0.15 0  0.375 0.15 0  0.4 0.15 0  0.425 0.15 0  0.45 0.15 0  0.475 0.15 0  0.5 0.15 0  0.525 0.15 0  0.55 0.15 0  0.575 0.15 0  0.6 0.15 0  0.625 0.15 0  0.65 0.15 0  0.675 0.15 0  0.7 0.15 0  0.725 0.15 0  0.75 0.15 0  0.775 0.15 0  0.8 0.15 0  0.825 0.15 0  0.85 0.15 0  0.875 0.15 0  0.9 0.15 0  0.925 0.15 0  0.95 0.15 0  0.975 0.15 0  1 0.15 0  0 0.175 0  0.025 0.175 0  0.05 0.175 0  0.075 0.175 0  0.1 0.175 0  0.125 0.175 0  0.15 0.175 0  0.175 0.175 0  0.2 0.175 0  0.225 0.175 0  0.25 0.175 0  0.275 0.175 0  0.3 0.175 0  0.325 0.175 0  0.35 0.175 0  0.375 0.175 0  0.4 0.175 0  0.425 0.175 0  0.45 0.175 0  0.475 0.175 0  0.5 0.175 0  0.525 0.175 0  0.55 0.175 0  0.575 0.175 0  0.6 0.175 0  0.625 0.175 0  0.65 0.175 0  0.675 0.175 0  0.7 0.175 0  0.725 0.175 0  0.75 0.175 0  0.775 0.175 0  0.8 0.175 0  0.825 0.175 0  0.85 0.175 0  0.875 0.175 0  0.9 0.175 0  0.925 0.175 0  0.95 0.175 0  0.975 0.175 0  1 0.175 0  0 0.2 0  0.025 0.2 0  0.05 0.2 0  0.075 0.2 0  0.1 0.2 0  0.125 0.2 0  0.15 0.2 0  0.175 0.2 0  0.2 0.2 0  0.225 0.2 0  0.25 0.2 0  0.275 0.2 0  0.3 0.2 0  0.325 0.2 0  0.35 0.2 0  0.375 0.2 0  0.4 0.2 0  0.425 0.2 0  0.45 0.2 0  0.475 0.2 0  0.5 0.2 0  0.525 0.2 0  0.55 0.2 0  0.575 0.2 0  0.6 0.2 0  0.625 0.2 0  0.65 0.2 0  0.675 0.2 0  0.7 0.2 0  0.725 0.2 0  0.75 0.2 0  0.775 0.2 0  0.8 0.2 0  0.825 0.2 0  0.85 0.2 0  0.875 0.2 0  0.9 0.2 0  0.925 0.2 0  0.95 0.2 0  0.975 0.2 0  1 0.2 0  0 0.225 0  0.025 0.225 0  0.05 0.225 0  0.075 0.225 0  0.1 0.225 0  0.125 0.225 0  0.15 0.225 0  0.175 0.225 0  0.2 0.225 0  0.225 0.225 0  0.25 0.225 0  0.275 0.225 0  0.3 0.225 0  0.325 0.225 0  0.35 0.225 0  0.375 0.225 0  0.4 0.225 0  0.425 0.225 0  0.45 0.225 0  0.475 0.225 0  0.5 0.225 0  0.525 0.225 0  0.55 0.225 0  0.575 0.225 0  0.6 0.225 0  0.625 0.225 0  0.65 0.225 0  0.675 0.225 0  0.7 0.225 0  0.725 0.225 0  0.75 0.225 0  0.775 0.225 0  0.8 0.225 0  0.825 0.225 0  0.85 0.225 0  0.875 0.225 0  0.9 0.225 0  0.925 0.225 0  0.95 0.225 0  0.975 0.225 0  1 0.225 0  0 0.25 0  0.025 0.25 0  0.05 0.25 0  0.075 0.25 0  0.1 0.25 0  0.125 0.25 0  0.15 0.25 0  0.175 0.25 0  0.2 0.25 0  0.225 0.25 0  0.25 0.25 0  0.275 0.25 0  0.3 0.25 0  0.325 0.25 0  0.35 0.25 0  0.375 0.25 0  0.4 0.25 0  0.425 0.25 0  0.45 0.25 0  0.475 0.25 0  0.5 0.25 0  0.525 0.25 0  0.55 0.25 0  0.575 0.25 0  0.6 0.25 0  0.625 0.25 0  0.65 0.25 0  0.675 0.25 0  0.7 0.25 0  0.725 0.25 0  0.75 0.25 0  0.775 0.25 0  0.8 0.25 0  0.825 0.25 0  0.85 0.25 0  0.875 0.25 0  0.9 0.25 0  0.925 0.25 0  0.95 0.25 0  0.975 0.25 0  1 0.25 0  0 0.275 0  0.025 0.275 0  0.05 0.275 0  0.075 0.275 0  0.1 0.275 0  0.125 0.275 0  0.15 0.275 0  0.175 0.275 0  0.2 0.275 0  0.225 0.275 0  0.25 0.275 0  0.275 0.275 0  0.3 0.275 0  0.325 0.275 0  0.35 0.275 0  0.375 0.275 0  0.4 0.275 0  0.425 0.275 0  0.45 0.275 0  0.475 0.275 0  0.5 0.275 0  0.525 0.275 0  0.55 0.275 0  0.575 0.275 0  0.6 0.275 0  0.625 0.275 0  0.65 0.275 0  0.675 0.275 0  0.7 0.275 0  0.725 0.275 0  0.75 0.275 0  0.775 0.275 0  0.8 0.275 0  0.825 0.275 0  0.85 0.275 0  0.875 0.275 0  0.9 0.275 0  0.925 0.275 0  0.95 0.275 0  0.975 0.275 0  1 0.275 0  0 0.3 0  0.025 0.3 0  0.05 0.3 0  0.075 0.3 0  0.1 0.3 0  0.125 0.3 0  0.15 0.3 0  0.175 0.3 0  0.2 0.3 0  0.225 0.3 0  0.25 0.3 0  0.275 0.3 0  0.3 0.3 0  0.325 0.3 0  0.35 0.3 0  0.375 0.3 0  0.4 0.3 0  0.425 0.3 0  0.45 0.3 0  0.475 0.3 0  0.5 0.3 0  0.525 0.3 0  0.55 0.3 0  0.575 0.3 0  0.6 0.3 0  0.625 0.3 0  0.65 0.3 0  0.675 0.3 0  0.7 0.3 0  0.725 0.3 0  0.75 0.3 0  0.775 0.3 0  0.8 0.3 0  0.825 0.3 0  0.85 0.3 0  0.875 0.3 0  0.9 0.3 0  0.925 0.3 0  0.95 0.3 0  0.975 0.3 0  1 0.3 0  0 0.325 0  0.025 0.325 0  0.05 0.325 0  0.075 0.325 0  0.1 0.325 0  0.125 0.325 0  0.15 0.325 0  0.175 0.325 0  0.2 0.325 0  0.225 0.325 0  0.25 0.325 0  0.275 0.325 0  0.3 0.325 0  0.325 0.325 0  0.35 0.325 0  0.375 0.325 0  0.4 0.325 0  0.425 0.325 0  0.45 0.325 0  0.475 0.325 0  0.5 0.325 0  0.525 0.325 0  0.55 0.325 0  0.575 0.325 0  0.6 0.325 0  0.625 0.325 0  0.65 0.325 0  0.675 0.325 0  0.7 0.325 0  0.725 0.325 0  0.75 0.325 0  0.775 0.325 0  0.8 0.325 0  0.825 0.325 0  0.85 0.325 0  0.875 0.325 0  0.9 0.325 0  0.925 0.325 0  0.95 0.325 0  0.975 0.325 0  1 0.325 0  0 0.35 0  0.025 0.35 0  0.05 0.35 0  0.075 0.35 0  0.1 0.35 0  0.125 0.35 0  0.15 0.35 0  0.175 0.35 0  0.2 0.35 0  0.225 0.35 0  0.25 0.35 0  0.275 0.35 0  0.3 0.35 0  0.325 0.35 0  0.35 0.35 0  0.375 0.35 0  0.4 0.35 0  0.425 0.35 0  0.45 0.35 0  0.475 0.35 0  0.5 0.35 0  0.525 0.35 0  0.55 0.35 0  0.575 0.35 0  0.6 0.35 0  0.625 0.35 0  0.65 0.35 0  0.675 0.35 0  0.7 0.35 0  0.725 0.35 0  0.75 0.35 0  0.775 0.35 0  0.8 0.35 0  0.825 0.35 0  0.85 0.35 0  0.875 0.35 0  0.9 0.35 0  0.925 0.35 0  0.95 0.35 0  0.975 0.35 0  1 0.35 0  0 0.375 0  0.025 0.375 0  0.05 0.375 0  0.075 0.375 0  0.1 0.375 0  0.125 0.375 0  0.15 0.375 0  0.175 0.375 0  0.2 0.375 0  0.225 0.375 0  0.25 0.375 0  0.275 0.375 0  0.3 0.375 0  0.325 0.375 0  0.35 0.375 0  0.375 0.375 0  0.4 0.375 0  0.425 0.375 0  0.45 0.375 0  0.475 0.375 0  0.5 0.375 0  0.525 0.375 0  0.55 0.375 0  0.575 0.375 0  0.6 0.375 0  0.625 0.375 0  0.65 0.375 0  0.675 0.375 0  0.7 0.375 0  0.725 0.375 0  0.75 0.375 0  0.775 0.375 0  0.8 0.375 0  0.825 0.375 0  0.85 0.375 0  0.875 0.375 0  0.9 0.375 0  0.925 0.375 0  0.95 0.375 0  0.975 0.375 0  1 0.375 0  0 0.4 0  0.025 0.4 0  0.05 0.4 0  0.075 0.4 0  0.1 0.4 0  0.125 0.4 0  0.15 0.4 0  0.175 0.4 0  0.2 0.4 0  0.225 0.4 0  0.25 0.4 0  0.275 0.4 0  0.3 0.4 0  0.325 0.4 0  0.35 0.4 0  0.375 0.4 0  0.4 0.4 0  0.425 0.4 0  0.45 0.4 0  0.475 0.4 0  0.5 0.4 0  0.525 0.4 0  0.55 0.4 0  0.575 0.4 0  0.6 0.4 0  0.625 0.4 0  0.65 0.4 0  0.675 0.4 0  0.7 0.4 0  0.725 0.4 0  0.75 0.4 0  0.775 0.4 0  0.8 0.4 0  0.825 0.4 0  0.85 0.4 0  0.875 0.4 0  0.9 0.4 0  0.925 0.4 0  0.95 0.4 0  0.975 0.4 0  1 0.4 0  0 0.425 0  0.025 0.425 0  0.05 0.425 0  0.075 0.425 0  0.1 0.425 0  0.125 0.425 0  0.15 0.425 0  0.175 0.425 0  0.2 0.425 0  0.225 0.425 0  0.25 0.425 0  0.275 0.425 0  0.3 0.425 0  0.325 0.425 0  0.35 0.425 0  0.375 0.425 0  0.4 0.425 0  0.425 0.425 0  0.45 0.425 0  0.475 0.425 0  0.5 0.425 0  0.525 0.425 0  0.55 0.425 0  0.575 0.425 0  0.6 0.425 0  0.625 0.425 0  0.65 0.425 0  0.675 0.425 0  0.7 0.425 0  0.725 0.425 0  0.75 0.425 0  0.775 0.425 0  0.8 0.425 0  0.825 0.425 0  0.85 0.425 0  0.875 0.425 0  0.9 0.425 0  0.925 0.425 0  0.95 0.425 0  0.975 0.425 0  1 0.425 0  0 0.45 0  0.02
[...]
<PointData  Scalars="ControlVisualisation"> 
<DataArray  type="Float64"  Name="ControlVisualisation"  format="ascii">5.7601064256450701e-02  3.7408483607480204e-02  3.7484971828538681e-02  3.7486678828251824e-02  3.7408707168928940e-02  3.7453085013016953e-02  3.8017406507207092e-02  3.9596643363906378e-02  4.2206570998326774e-02  4.5310041888339578e-02  4.8425702008476575e-02  5.1141125851779358e-02  5.3240325927474151e-02  5.4763432205100770e-02  5.5808674121618010e-02  5.6507709286068603e-02  5.6975877156210331e-02  5.7285305285921226e-02  5.7490160328057677e-02  5.7630456645929674e-02  5.7730018103814250e-02  5.7795361310077960e-02  5.7815390957476745e-02  5.7762979236204055e-02  5.7597774386686888e-02  5.7258432472301501e-02  5.6626387267465293e-02  5.5536631822918542e-02  5.3785464641182501e-02  5.1113301199839097e-02  4.7420338328596427e-02  4.3323509684472558e-02  3.9966554556945193e-02  3.8142484261812153e-02  3.7469056961668815e-02  3.7377048225726621e-02  3.7454042858155859e-02  3.7492195433045612e-02  3.7441853170838042e-02  3.7365166523579185e-02  1.1962648236565737e-01  3.7431414005228508e-02  1.6771593021451103e-02  1.6874774888880194e-02  1.6904429898326818e-02  1.7353125186429529e-02  1.9381850732691074e-02  2.3512446035907124e-02  3.1129819285145306e-02  3.2824041256274236e-02  9.3621061787692902e-02  1.6897480156747494e-01  2.7048513248121769e-01  3.6297567484144289e-01  4.2421396717051202e-01  4.6692525675773106e-01  4.9975784381943850e-01  5.2486500040819761e-01  5.4409996097636915e-01  5.5842184652819071e-01  5.6752898361838799e-01  5.7065389973381042e-01  5.6738990087490593e-01  5.5796793932703981e-01  5.4297034164709035e-01  5.2267728358126142e-01  4.9635848888148276e-01  4.6213061938342448e-01  4.1674244215032658e-01  3.4973489233290289e-01  2.5206947750681191e-01  1.5625211164867611e-01  9.4191391915120937e-02  4.5114892869768219e-02  3.1857180105815917e-02  2.2304078394533414e-02  1.7676886640134320e-02  1.6801030384181206e-02  1.6873696774484252e-02  1.6865263752677120e-02  1.6739383983529466e-02  3.7368242126877817e-02  3.7796475314082159e-02  1.7137460308746497e-02  1.7238142731123673e-02  1.9027972794394752e-02  2.5400624365456974e-02  3.6105110149350410e-02  2.7700988942146576e-01  5.7929090511052073e-01  8.0126353640378012e-01  9.4001407847428553e-01  9.9361548542286482e-01  9.9897058047568521e-01  9.9818737532037960e-01  9.9759177402690746e-01  9.9734414413702344e-01  9.9726785774840743e-01  9.9725920299790238e-01  9.9727119756286531e-01  9.9728453360315117e-01  9.9729226150580297e-01  9.9729231093664217e-01  9.9728442864467959e-01  9.9726937644578106e-01  9.9724988355310984e-01  9.9723447643843299e-01  9.9724495373723809e-01  9.9733208769057635e-01  9.9760575367823479e-01  9.9822796337496345e-01  9.9867793387935799e-01  9.9048493493933609e-01  9.3029517761141556e-01  7.7915088902964214e-01  5.4303704538302711e-01  2.2334769340918662e-01  3.6588837240211405e-02  2.5160307005293467e-02  1.7423621954499136e-02  1.7110954074083334e-02  1.7095996749339756e-02  3.7535390700891617e-02  3.8864615378065639e-02  1.7911030351431156e-02  2.0303161768271915e-02  1.7642199169047926e-02  3.9405440130779057e-01  8.8521178261357436e-01  9.9851907430292630e-01  9.9720474167693030e-01  9.9788263417438505e-01  9.9837596907747794e-01  9.9869432170102501e-01  9.9888700189418667e-01  9.9900326274922124e-01  9.9907645022515612e-01  9.9912443213346880e-01  9.9915674911109187e-01  9.9917842265285839e-01  9.9919235319002986e-01  9.9920141317794509e-01  9.9920639411270185e-01  9.9920785054082728e-01  9.9920593191454132e-01  9.9920041859094899e-01  9.9919069032566665e-01  9.9917588908854771e-01  9.9915300436829979e-01  9.9911882229543980e-01  9.9906794006706523e-01  9.9898985944388585e-01  9.9886409004643140e-01  9.9864878912496846e-01  9.9826400314530883e-01  9.9761709524998154e-01  9.9700114968941966e-01  9.9740551611793726e-01  8.5198233037712612e-01  3.3482196669012088e-01  8.7272073825859844e-03  1.8678499368533726e-02  1.8000029191974042e-02  3.8132283089728054e-02  4.0108329048962721e-02  2.0828149585878229e-02  6.6902051590715397e-02  9.0022039423711608e-01  9.9701820785468043e-01  9.9848714926697424e-01  9.9904522033228216e-01  9.9926944954631536e-01  9.9938579962997409e-01  9.9945286139956790e-01  9.9949383719112217e-01  9.9951931217615742e-01  9.9953520698534859e-01  9.9954525822499474e-01  9.9955170313721331e-01  9.9955591198088167e-01  9.9955879424345284e-01  9.9956095819856605e-01  9.9956252783537103e-01  9.9956344573266831e-01  9.9956376520124535e-01  9.9956349235733788e-01  9.9956260940073538e-01  9.9956106101778086e-01  9.9955870761703447e-01  9.9955546118110328e-01  9.9955097073766053e-01  9.9954426800160712e-01  9.9953390662338815e-01  9.9951769384501332e-01  9.9949200438899188e-01  9.9945060548112019e-01  9.9938166925797201e-01  9.9925991732179553e-01  9.9899984696192057e-01  9.9819621296091965e-01  9.9682512877212226e-01  8.0176444753537268e-01  5.4676450281020042e-02  2.0031100206155599e-02  3.9374337479056658e-02  4.0843503873851487e-02  7.6652458132374507e-02  9.9695019991507583e-01  9.9894768086993257e-01  9.9940643826763087e-01  9.9956139782725140e-01  9.9962015603562193e-01  9.9964572160780785e-01  9.9965934602781203e-01  9.9966701153525761e-01  9.9967134289530823e-01  9.9967359072827278e-01  9.9967441727953077e-01  9.9967434784230591e-01  9.9967380759463742e-01  9.9967311654058100e-01  9.9967248964746580e-01  9.9967203358402712e-01  9.9967176987234729e-01  9.9967167200487328e-01  9.9967170267780747e-01  9.9967184317071867e-01  9.9967210731674205e-01  9.9967253359380503e-01  9.9967315718524985e-01  9.9967397088278465e-01  9.9967488715230157e-01  9.9967571720722315e-01  9.9967617739049308e-01  9.9967590379557192e-01  9.9967443934352873e-01  9.9967114676570357e-01  9.9966478457950847e-01  9.9965198113437337e-01  9.9962473616618530e-01  9.9956097572506319e-01  9.9938226104896399e-01  9.9864164754747020e-01  9.9351348807689199e-01  3.7785155466502768e-03  4.1979987149074957e-02  6.4907518465615310e-01  9.9837678176807210e-01  9.9959664073189769e-01  9.9971901747575143e-01  9.9974517570994093e-01  9.9974944540363264e-01  9.9974660325387588e-01  9.9974155473987558e-01  9.9973638830157685e-01  9.9973184283829686e-01  9.9972804937444648e-01  9.9972483797320844e-01  9.9972202967965917e-01  9.9971954621150905e-01  9.9971738688815714e-01  9.9971558574487407e-01  9.9971417446466637e-01  9.9971315769312818e-01  9.9971251100994896e-01  9.9971219423371271e-01  9.9971217114635691e-01  9.9971242676124739e-01  9.9971297522701186e-01  9.9971385480490105e-01  9.9971511155704840e-01  9.9971677863397768e-01  9.9971886167258028e-01  9.9972134089958420e-01  9.9972419384525790e-01  9.9972743034170342e-01  9.9973112409567078e-01  9.9973541856997938e-01  9.9974045506953690e-01  9.9974615752745644e-01  9.9975189013164412e-01  9.9975584533843886e-01  9.9975248506684866e-01  9.9972129819674826e-01  9.9953099834555070e-01  9.9666286033464668e-01  5.2582552813506572e-02  9.9961935103985033e-01  9.9980199922464941e-01  9.9981063545087212e-01  9.9980583280646596e-01  9.9979660460513919e-01  9.9978686932923400e-01  9.9977774358990523e-01  9.9976959131624465e-01  9.9976251764358237e-01  9.9975652752158151e-01  9.9975153191403110e-01  9.9974736888899540e-01  9.9974387794584474e-01  9.9974094382807377e-01  9.9973850090478922e-01  9.9973651766480665e-01  9.9973497535104117e-01  9.9973385214096966e-01  9.9973311805997866e-01  9.9973273981112087e-01  9.9973269095075201e-01  9.9973296139743828e-01  9.9973356169284777e-01  9.9973451989467133e-01  9.9973587235595485e-01  9.9973765297520067e-01  9.9973988715822892e-01  9.9974259557265754e-01  9.9974580798861690e-01  9.9974958109521894e-01  9.9975401001445141e-01  9.9975922194740097e-01  9.9976534141295315e-01  9.9977243082609457e-01  9.9978044358309515e-01  9.9978922545557436e-01  9.9979849722721115e-01  9.9980756784524882e-01  9.9981362874924551e-01  9.9980524376653057e-01  9.9900883746008884e-01  9.9979862378609563e-01  9.9982594938343095e-01  9.9982105920631636e-01  9.9981338213742843e-01  9.9980471627231993e-01  9.9979619863827562e-01  9.9978822956174307e-01  9.9978097706028146e-01  9.9977450314204186e-01  9.9976883228198610e-01  9.9976393989582801e-01  9.9975976149215728e-01  9.9975621726088082e-01  9.9975323481924128e-01  9.9975075993280460e-01  9.9974875450504053e-01  9.9974718890803249e-01  9.9974603492885217e-01  9.9974526314392720e-01  9.9974484564660304e-01  9.9974476191087858e-01  9.9974500441988234e-01  9.9974558113002343e-01  9.9974651345572474e-01  9.9974783066297690e-01  9.9974956348816080e-01  9.9975174045689019e-01  9.9975438918789983e-01  9.9975754199235956e-01  9.9976124177681269e-01  9.9976554252199645e-01  9.9977049962339370e-01  9.9977614959562799e-01  9.9978248621055144e-01  9.9978944846746554e-01  9.9979692208571214e-01  9.9980471806914595e-01  9.9981247263481288e-01  9.9981947909598490e-01  9.9982875640175506e-01  9.9979066210810463e-01  9.9981307394969698e-01  9.9984138831201408e-01  9.9982820718715204e-01  9.9981766979979625e-01  9.9980851238511570e-01  9.9980044988264616e-01  9.9979322625038924e-01  9.9978668879853350e-01  9.9978077695212064e-01  9.9977548044993958e-01  9.9977079427029047e-01  9.9976670114179422e-01  9.9976317064721165e-01  9.9976016789356792e-01  9.9975766002426181e-01  9.9975561751129627e-01  9.9975401225320282e-01  9.9975281543911676e-01  9.9975199775682733e-01  9.9975153258144400e-01  9.9975140090606962e-01  9.9975159578647821e-01  9.9975212423995197e-01  9.9975300568731773e-01  9.9975426757378327e-01  9.9975594009024971e-01  9.9975805226311754e-01  9.9976063075459876e-01  9.9976370098029577e-01  9.9976728843787610e-01  9.9977141751188858e-01  9.9977610645201587e-01  9.9978136055421507e-01  9.9978717159166519e-01  9.9979353593635500e-01  9.9980049587256192e-01  9.9980820546281823e-01  9.9981701651695065e-01  9.9982749812990013e-01  9.9984275497141595e-01  9.9981313724323084e-01  9.9981742965713316e-01  9.9985040392421620e-01  9.9983263786020493e-01  9.9982010438148960e-01  9.9981037966695685e-01  9.9980240392382780e-01  9.9979545733872599e-01  9.9978918974042918e-01  9.9978347248915478e-01  9.9977827796834629e-01  9.9977360923656589e-01  9.9976946849703052e-01  9.9976584959235970e-01  9.9976274050230762e-01  9.9976012547739135e-01  9.9975798494891177e-01  9.9975629437118751e-01  9.9975502409969885e-01  9.9975414178725586e-01  9.9975361734571533e-01  9.9975342910401055e-01  9.9975356898251144e-01  9.9975404470391072e-01  9.9975487815213748e-01  9.9975610048514074e-01  9.9975774585053967e-01  9.9975984593212897e-01  9.9976242678006022e-01  9.9976550817819720e-01  9.9976910465948543e-01  9.9977322686621795e-01  9.9977788192590467e-01  9.9978307311521031e-01  9.9978880662512504e-01  9.9979511765604645e-01  9.9980213322660405e-01  9.9981019008192373e-01  9.9981998952368356e-01  9.9983257710957374e-01  9.9985037630000984e-01  9.9981741558136583e-01  9.9981320295797438e-01  9.9984297340969874e-01  9.9982811291690354e-01  9.9981810647819835e-01  9.9980971291083220e-01  9.9980227680860845e-01  9.9979542639837038e-01  9.9978903671587671e-01  9.9978310847498952e-01  9.9977767592293443e-01  9.9977276287077599e-01  9.9976837623701365e-01  9.9976451567588254e-01  9.9976117964756617e-01  9.9975836390403672e-01  9.9975605676626000e-01  9.9975423546652087e-01  9.9975286603223368e-01  9.9975190756593446e-01  9.9975132023877988e-01  9.9975107469447744e-01  9.9975115972732231e-01  9.9975158556547472e-01  9.9975238155025659e-01  9.9975358898630184e-01  9.9975525176520053e-01  9.9975740805385427e-01  9.9976008542487760e-01  9.9976330013898607e-01  9.9976706054153230e-01  9.9977137407926031e-01  9.9977625325106856e-01  9.9978171445644315e-01  9.9978776936931235e-01  9.9979441888185727e-01  9.9980168132700742e-01  9.9980964954991569e-01  9.9981855066504133e-01  9.9982871750149593e-01  9.9984155304474975e-01  9.9981310191876271e-01  9.9979088629210244e-01  9.9982943658501833e-01  9.9982114620217521e-01  9.9981508835031507e-01  9.9980803837923182e-01  9.9980060488260170e-01  9.9979317648891053e-01  9.9978604600597354e-01  9.9977942536363507e-01  9.9977341709779310e-01  9.9976802874812098e-01  9.9976322971966569e-01  9.9975899883346264e-01  9.9975533499242497e-01  9.9975224412608954e-01  9.9974972293011588e-01  9.9974774895858021e-01  9.9974627892716827e-01  9.9974525529622082e-01  9.9974461946494841e-01  9.9974432730366558e-01  9.9974436165945724e-01  9.9974473765591521e-01  9.9974549889617581e-01  9.9974670553463774e-01  9.9974841852740093e-01  9.9975068628521679e-01  9.9975353800041988e-01  9.9975698394345658e-01  9.9976102416279045e-01  9.9976566729059080e-01  9.9977095130073856e-01  9.9977694455676602e-01  9.9978370255988569e-01  9.9979120426215484e-01  9.9979930775435810e-01  9.9980770229489091e-01  9.9981588755607365e-01  9.9982274958232098e-01  9.9982666263711450e-01  9.9979875988098277e-01  9.9901008313001238e-01  9.9980775323168369e-01  9.9981797127690375e-01  9.9981315744187160e-01  9.9980478819533769e-01  9.9979564942889054e-01  9.9978657791114922e-01  9.9977809099566151e-01  9.9977050368437481e-01  9.9976386613840529e-01  9.9975804077258601e-01  9.9975287341185537e-01  9.9974829501997964e-01  9.9974431299285083e-01  9.9974095912547034e-01  9.9973824974523606e-01  9.9973616659553555e-01  9.9973465282168450e-01  9.9973362342815841e-01  9.9973298803620236e-01  9.9973267749033734e-01  9.9973266460112697e-01  9.9973297286450002e-01  9.9973367028823446e-01  9.9973484870648399e-01  9.9973659557360595e-01  9.9973897107364151e-01  9.9974199940119868e-01  9.9974567102116019e-01  9.9974995697602631e-01  9.9975484734635223e-01  9.9976041788155845e-01  9.9976685539277299e-01  9.9977436865719471e-01  9.9978304690978670e-01  9.9979269234870505e-01  9.9980265116583344e-01  9.9981153618775043e-01  9.9981536148903372e-01  9.9980498053257072e-01  9.9962008026080196e-01  5.2613168110212133e-02  9.9668966208733756e-01  9.9954325919751452e-01  9.9973309458436610e-01  9.9976392436624839e-01  9.9976642996585641e-01  9.9976130416822762e-01  9.9975451242669755e-01  9.9974807723517756e-01  9.9974246371738240e-01  9.9973744961235622e-01  9.9973278474619165e-01  9.9972844722162835e-01  9.9972456080677574e-01  9.9972125892906982e-01  9.9971862254624655e-01  9.9971666169801066e-01  9.9971531107591827e-01  9.9971444816609645e-01  9.9971393515926943e-01  9.9971366546697005e-01  9.9971359684432148e-01  9.9971376510834653e-01  9.9971427568404791e-01  9.9971526950084655e-01  9.9971686978142515e-01  9.9971913819007918e-01  9.9972206594564061e-01  9.9972557916559235e-01  9.9972953740928361e-01  9.9973378368284560e-01  9.9973831283352466e-01  9.9974335057925845e-01  9.9974910891455393e-01  9.9975516935617670e-01  9.9975950024583438e-01  9.9975662063830906e-01  9.9973110401945231e-01  9.9960918238520657e-01  9.9838891154959419e-01  6.4874626424089554e-01  4.1890547526975741e-02  2.8695746611541451e-04  9.9329505328514045e-01  9.9866839739942093e-01  9.9940267088635859e-01  9.9957813547531016e-01  9.9963884621873478e-01  9.9966387704911031e-01  9.9967578192034978e-01  9.9968174763632001e-01  9.9968434727225208e-01  9.9968463231669669e-01  9.9968353322277936e-01  9.9968185860326164e-01  9.9968015690518819e-01  9.9967875609867785e-01  9.9967781266992073e-01  9.9967731502893564e-01  9.9967712134390752e-01  9.9967704670895263e-01  9.9967694632548554e-01  9.9967676192754229e-01  9.9967653956674851e-01  9.9967642436733983e-01  9.9967661288067144e-01  9.9967724826445892e-01  9.9967832333568685e-01  9.9967967459972196e-01  9.9968099603345073e-01  9.9968170815535329e-01  9.9968086120709787e-01  9.9967737478837670e-01  9.9967015364839062e-01  9.9965744764997078e-01  9.9963375678312505e-01  9.9957836921242071e-01  9.9942638721718635e-01  9.9896968023690269e-01  9.9707941301138869e-01  7.6402656794025955e-02  4.0859855172783122e-02  3.9266108583404666e-02  2.0013518720666357e-02  5.3978054525930075e-02  8.3914061825245678e-01  9.9688458380808764e-01  9.9823033482145296e-01  9.9902401917006811e-01  9.9927837912355888e-01  9.9939877166286062e-01  9.9946758680913794e-01  9.9950835329768839e-01  9.9953277378275196e-01  9.9954771366562423e-01  9.9955722887815823e-01  9.9956356795424761e-01  9.9956805202781074e-01  9.9957148325894474e-01  9.9957425486096985e-01  9.9957644439822024e-01  9.9957785246150466e-01  9.9957827390462961e-01  9.9957766149090688e-01  9.9957614777506376e-01  9.9957392743685369e-01  9.9957108888778912e-01  9.9956761414339312e-01  9.9956316320437355e-01  9.9955696919200387e-01  9.9954781946651750e-01  9.9953341877458579e-01  9.9950947631550169e-01  9.9946904606809739e-01  9.9940199502086624e-01  9.9928803719436854e-01  9.9906956962807336e-01  9.9852640062531961e-01  9.9708926159011746e-01  9.1742966591331099e-01  6.6295412814217219e-02  2.0763319218377544e-02  4.0058976322129694e-02  3.8051257091263592e-02  1.7852499695625142e-02  1.8844366581436983e-02  2.2914890640072932e-03  3.4694628812927386e-01  8.7293045387598944e-01  9.9769634918261652e-01  9.9706906290981390e-01  9.9761830800380558e-01  9.9830364811702832e-01  9.9868899343398088e-01  9.9889437705187878e-01  9.9901645849082976e-01  9.9909548973521078e-01  9.9914890591750694e-01  9.9918604213518314e-01  9.9921228467666690e-01  9.9923072569932148e-01  9.9924296452115313e-01  9.9924987137147958e-01  9.9925223719020795e-01  9.9925005640703934e-01  9.9924331441446446e-01  9.9923121893994282e-01  9.9921307405481963e-01  9.9918745884768456e-01  9.9915144103089193e-01  9.9910045584286633e-01  9.9902658320593207e-01  9.9891102532647480e-01  9.9871503722810040e-01  9.9839317710469200e-01  9.9785545825840183e-01  9.9723677277701794e-01  9.9868663544625857e-01  8.4152452554009671e-01  4.0522055603614132e-01  1.8423314832048274e-02  2.0298825835883674e-02  1.7821399436598405e-02  3.8775241036694538e-02  3.7502675167556419e-02  1.7003761253565605e-02  1.7090155674721271e-02  1.7744926829615485e-02  2.6074607763283922e-02  4.1383174906044984e-02  2.1217684402024356e-01  5.2332455840544023e-01  7.9599234875505498e-01  9.5467058068159050e-01  9.9698660894295021e-01  9.9868982134301065e-01  9.9822638392770291e-01  9.9776060086868379e-01  9.9750474726959126e-01  9.9740947139606995e-01  9.9740757260041446e-01  9.9744479157018173e-01  9.9748713680802936e-01  9.9751861092103689e-01  9.9753298232614862e-01  9.9752856627496833e-01  9.9750644783269415e-01  9.9747154579074160e-01  9.9743740852009999e-01  9.9743008951498568e-01  9.9749795582640122e-01  9.9775092849411262e-01  9.9829749545214774e-01  9.9887969619890249e-01  9.9751755533130881e-01  9.6133266763492997e-01  8.2338768338483259e-01  5.5810118097122097e-01  2.4585639335720388e-01  3.6982280012845009e-02  2.5871872500367731e-02  1.9350617007787226e-02  1.7261178851303020e-02  1.7048272314661838e-02  3.7736017939062533e-02  3.7369541670192859e-02  1.6712226545478465e-02  1.6831644908722274e-02  1.6968872416917798e-02  1.7193109939146831e-02  1.8432500612587832e-02  2.3518047274670325e-02  3.2212209656018405e-02  5.6115266384182391e-02  1.1507899271250686e-01  1.8618565969085718e-01  2.8829573072882819e-01  3.8970015333155239e-01  4.8265374551448498e-01  5.4923659382929380e-01  5.9375466471848792e-01  6.3443528512677894e-01  6.7016167166259810e-01  6.9598025132744545e-01  7.1092477438197521e-01  7.1605497745777791e-01  7.1194777158419131e-01  6.9797977458932869e-01  6.7268720938035986e-01  6.3629109141432383e-01  5.9407463769885549e-01  5.5082155219357953e-01  4.9158845873836854e-01  3.9606500037556613e-01  2.9174164328154018e-01  1.9283013055481099e-01  1.1294230118196372e-01  4.7697594260435683e-02  3.1753319425478169e-02  2.4094708793472530e-02  2.0205038793793508e-02  1.7809014218733380e-02  1.7038971345427135e-02  1.6845850207050171e-02  1.6733486499558019e-02  3.7416599227051262e-02  3.7354171017367474e-02  1.6665618358228197e-02  1.6734429811769490e-02  1.6833421344091246e-02  1.6943632941367727e-02  1.7046159692041478e-02  1.7166087932092008e-02  1.7473090348775106e-02  1.830837592