<?xml version="1.0"?>
<VTKFile type="UnstructuredGrid"  version="0.1"  >
<UnstructuredGrid>
<Piece  NumberOfPoints="1681" NumberOfCells="3200">
<Points>
<DataArray  type="Float64"  NumberOfComponents="3"  format="ascii">0 0 0  0.025 0 0  0.05 0 0  0.075 0 0  0.1 0 0  0.125 0 0  0.15 0 0  0.175 0 0  0.2 0 0  0.225 0 0  0.25 0 0  0.275 0 0  0.3 0 0  0.325 0 0  0.35 0 0  0.375 0 0  0.4 0 0  0.425 0 0  0.45 0 0  0.475 0 0  0.5 0 0  0.525 0 0  0.55 0 0  0.575 0 0  0.6 0 0  0.625 0 0  0.65 0 0  0.675 0 0  0.7 0 0  0.725 0 0  0.75 0 0  0.775 0 0  0.8 0 0  0.825 0 0  0.85 0 0  0.875 0 0  0.9 0 0  0.925 0 0  0.95 0 0  0.975 0 0  1 0 0  0 0.025 0  0.025 0.025 0  0.05 0.025 0  0.075 0.025 0  0.1 0.025 0  0.125 0.025 0  0.15 0.025 0  0.175 0.025 0  0.2 0.025 0  0.225 0.025 0  0.25 0.025 0  0.275 0.025 0  0.3 0.025 0  0.325 0.025 0  0.35 0.025 0  0.375 0.025 0  0.4 0.025 0  0.425 0.025 0  0.45 0.025 0  0.475 0.025 0  0.5 0.025 0  0.525 0.025 0  0.55 0.025 0  0.575 0.025 0  0.6 0.025 0  0.625 0.025 0  0.65 0.025 0  0.675 0.025 0  0.7 0.025 0  0.725 0.025 0  0.75 0.025 0  0.775 0.025 0  0.8 0.025 0  0.825 0.025 0  0.85 0.025 0  0.875 0.025 0  0.9 0.025 0  0.925 0.025 0  0.95 0.025 0  0.975 0.025 0  1 0.025 0  0 0.05 0  0.025 0.05 0  0.05 0.05 0  0.075 0.05 0  0.1 0.05 0  0.125 0.05 0  0.15 0.05 0  0.175 0.05 0  0.2 0.05 0  0.225 0.05 0  0.25 0.05 0  0.275 0.05 0  0.3 0.05 0  0.325 0.05 0  0.35 0.05 0  0.375 0.05 0  0.4 0.05 0  0.425 0.05 0  0.45 0.05 0  0.475 0.05 0  0.5 0.05 0  0.525 0.05 0  0.55 0.05 0  0.575 0.05 0  0.6 0.05 0  0.625 0.05 0  0.65 0.05 0  0.675 0.05 0  0.7 0.05 0  0.725 0.05 0  0.75 0.05 0  0.775 0.05 0  0.8 0.05 0  0.825 0.05 0  0.85 0.05 0  0.875 0.05 0  0.9 0.05 0  0.925 0.05 0  0.95 0.05 0  0.975 0.05 0  1 0.05 0  0 0.075 0  0.025 0.075 0  0.05 0.075 0  0.075 0.075 0  0.1 0.075 0  0.125 0.075 0  0.15 0.075 0  0.175 0.075 0  0.2 0.075 0  0.225 0.075 0  0.25 0.075 0  0.275 0.075 0  0.3 0.075 0  0.325 0.075 0  0.35 0.075 0  0.375 0.075 0  0.4 0.075 0  0.425 0.075 0  0.45 0.075 0  0.475 0.075 0  0.5 0.075 0  0.525 0.075 0  0.55 0.075 0  0.575 0.075 0  0.6 0.075 0  0.625 0.075 0  0.65 0.075 0  0.675 0.075 0  0.7 0.075 0  0.725 0.075 0  0.75 0.075 0  0.775 0.075 0  0.8 0.075 0  0.825 0.075 0  0.85 0.075 0  0.875 0.075 0  0.9 0.075 0  0.925 0.075 0  0.95 0.075 0  0.975 0.075 0  1 0.075 0  0 0.1 0  0.025 0.1 0  0.05 0.1 0  0.075 0.1 0  0.1 0.1 0  0.125 0.1 0  0.15 0.1 0  0.175 0.1 0  0.2 0.1 0  0.225 0.1 0  0.25 0.1 0  0.275 0.1 0  0.3 0.1 0  0.325 0.1 0  0.35 0.1 0  0.375 0.1 0  0.4 0.1 0  0.425 0.1 0  0.45 0.1 0  0.475 0.1 0  0.5 0.1 0  0.525 0.1 0  0.55 0.1 0  0.575 0.1 0  0.6 0.1 0  0.625 0.1 0  0.65 0.1 0  0.675 0.1 0  0.7 0.1 0  0.725 0.1 0  0.75 0.1 0  0.775 0.1 0  0.8 0.1 0  0.825 0.1 0  0.85 0.1 0  0.875 0.1 0  0.9 0.1 0  0.925 0.1 0  0.95 0.1 0  0.975 0.1 0  1 0.1 0  0 0.125 0  0.025 0.125 0  0.05 0.125 0  0.075 0.125 0  0.1 0.125 0  0.125 0.125 0  0.15 0.125 0  0.175 0.125 0  0.2 0.125 0  0.225 0.125 0  0.25 0.125 0  0.275 0.125 0  0.3 0.125 0  0.325 0.125 0  0.35 0.125 0  0.375 0.125 0  0.4 0.125 0  0.425 0.125 0  0.45 0.125 0  0.475 0.125 0  0.5 0.125 0  0.525 0.125 0  0.55 0.125 0  0.575 0.125 0  0.6 0.125 0  0.625 0.125 0  0.65 0.125 0  0.675 0.125 0  0.7 0.125 0  0.725 0.125 0  0.75 0.125 0  0.775 0.125 0  0.8 0.125 0  0.825 0.125 0  0.85 0.125 0  0.875 0.125 0  0.9 0.125 0  0.925 0.125 0  0.95 0.125 0  0.975 0.125 0  1 0.125 0  0 0.15 0  0.025 0.15 0  0.05 0.15 0  0.075 0.15 0  0.1 0.15 0  0.125 0.15 0  0.15 0.15 0  0.175 0.15 0  0.2 0.15 0  0.225 0.15 0  0.25 0.15 0  0.275 0.15 0  0.3 0.15 0  0.325 0.15 0  0.35 0.15 0  0.375 0.15 0  0.4 0.15 0  0.425 0.15 0  0.45 0.15 0  0.475 0.15 0  0.5 0.15 0  0.525 0.15 0  0.55 0.15 0  0.575 0.15 0  0.6 0.15 0  0.625 0.15 0  0.65 0.15 0  0.675 0.15 0  0.7 0.15 0  0.725 0.15 0  0.75 0.15 0  0.775 0.15 0  0.8 0.15 0  0.825 0.15 0  0.85 0.15 0  0.875 0.15 0  0.9 0.15 0  0.925 0.15 0  0.95 0.15 0  0.975 0.15 0  1 0.15 0  0 0.175 0  0.025 0.175 0  0.05 0.175 0  0.075 0.175 0  0.1 0.175 0  0.125 0.175 0  0.15 0.175 0  0.175 0.175 0  0.2 0.175 0  0.225 0.175 0  0.25 0.175 0  0.275 0.175 0  0.3 0.175 0  0.325 0.175 0  0.35 0.175 0  0.375 0.175 0  0.4 0.175 0  0.425 0.175 0  0.45 0.175 0  0.475 0.175 0  0.5 0.175 0  0.525 0.175 0  0.55 0.175 0  0.575 0.175 0  0.6 0.175 0  0.625 0.175 0  0.65 0.175 0  0.675 0.175 0  0.7 0.175 0  0.725 0.175 0  0.75 0.175 0  0.775 0.175 0  0.8 0.175 0  0.825 0.175 0  0.85 0.175 0  0.875 0.175 0  0.9 0.175 0  0.925 0.175 0  0.95 0.175 0  0.975 0.175 0  1 0.175 0  0 0.2 0  0.025 0.2 0  0.05 0.2 0  0.075 0.2 0  0.1 0.2 0  0.125 0.2 0  0.15 0.2 0  0.175 0.2 0  0.2 0.2 0  0.225 0.2 0  0.25 0.2 0  0.275 0.2 0  0.3 0.2 0  0.325 0.2 0  0.35 0.2 0  0.375 0.2 0  0.4 0.2 0  0.425 0.2 0  0.45 0.2 0  0.475 0.2 0  0.5 0.2 0  0.525 0.2 0  0.55 0.2 0  0.575 0.2 0  0.6 0.2 0  0.625 0.2 0  0.65 0.2 0  0.675 0.2 0  0.7 0.2 0  0.725 0.2 0  0.75 0.2 0  0.775 0.2 0  0.8 0.2 0  0.825 0.2 0  0.85 0.2 0  0.875 0.2 0  0.9 0.2 0  0.925 0.2 0  0.95 0.2 0  0.975 0.2 0  1 0.2 0  0 0.225 0  0.025 0.225 0  0.05 0.225 0  0.075 0.225 0  0.1 0.225 0  0.125 0.225 0  0.15 0.225 0  0.175 0.225 0  0.2 0.225 0  0.225 0.225 0  0.25 0.225 0  0.275 0.225 0  0.3 0.225 0  0.325 0.225 0  0.35 0.225 0  0.375 0.225 0  0.4 0.225 0  0.425 0.225 0  0.45 0.225 0  0.475 0.225 0  0.5 0.225 0  0.525 0.225 0  0.55 0.225 0  0.575 0.225 0  0.6 0.225 0  0.625 0.225 0  0.65 0.225 0  0.675 0.225 0  0.7 0.225 0  0.725 0.225 0  0.75 0.225 0  0.775 0.225 0  0.8 0.225 0  0.825 0.225 0  0.85 0.225 0  0.875 0.225 0  0.9 0.225 0  0.925 0.225 0  0.95 0.225 0  0.975 0.225 0  1 0.225 0  0 0.25 0  0.025 0.25 0  0.05 0.25 0  0.075 0.25 0  0.1 0.25 0  0.125 0.25 0  0.15 0.25 0  0.175 0.25 0  0.2 0.25 0  0.225 0.25 0  0.25 0.25 0  0.275 0.25 0  0.3 0.25 0  0.325 0.25 0  0.35 0.25 0  0.375 0.25 0  0.4 0.25 0  0.425 0.25 0  0.45 0.25 0  0.475 0.25 0  0.5 0.25 0  0.525 0.25 0  0.55 0.25 0  0.575 0.25 0  0.6 0.25 0  0.625 0.25 0  0.65 0.25 0  0.675 0.25 0  0.7 0.25 0  0.725 0.25 0  0.75 0.25 0  0.775 0.25 0  0.8 0.25 0  0.825 0.25 0  0.85 0.25 0  0.875 0.25 0  0.9 0.25 0  0.925 0.25 0  0.95 0.25 0  0.975 0.25 0  1 0.25 0  0 0.275 0  0.025 0.275 0  0.05 0.275 0  0.075 0.275 0  0.1 0.275 0  0.125 0.275 0  0.15 0.275 0  0.175 0.275 0  0.2 0.275 0  0.225 0.275 0  0.25 0.275 0  0.275 0.275 0  0.3 0.275 0  0.325 0.275 0  0.35 0.275 0  0.375 0.275 0  0.4 0.275 0  0.425 0.275 0  0.45 0.275 0  0.475 0.275 0  0.5 0.275 0  0.525 0.275 0  0.55 0.275 0  0.575 0.275 0  0.6 0.275 0  0.625 0.275 0  0.65 0.275 0  0.675 0.275 0  0.7 0.275 0  0.725 0.275 0  0.75 0.275 0  0.775 0.275 0  0.8 0.275 0  0.825 0.275 0  0.85 0.275 0  0.875 0.275 0  0.9 0.275 0  0.925 0.275 0  0.95 0.275 0  0.975 0.275 0  1 0.275 0  0 0.3 0  0.025 0.3 0  0.05 0.3 0  0.075 0.3 0  0.1 0.3 0  0.125 0.3 0  0.15 0.3 0  0.175 0.3 0  0.2 0.3 0  0.225 0.3 0  0.25 0.3 0  0.275 0.3 0  0.3 0.3 0  0.325 0.3 0  0.35 0.3 0  0.375 0.3 0  0.4 0.3 0  0.425 0.3 0  0.45 0.3 0  0.475 0.3 0  0.5 0.3 0  0.525 0.3 0  0.55 0.3 0  0.575 0.3 0  0.6 0.3 0  0.625 0.3 0  0.65 0.3 0  0.675 0.3 0  0.7 0.3 0  0.725 0.3 0  0.75 0.3 0  0.775 0.3 0  0.8 0.3 0  0.825 0.3 0  0.85 0.3 0  0.875 0.3 0  0.9 0.3 0  0.925 0.3 0  0.95 0.3 0  0.975 0.3 0  1 0.3 0  0 0.325 0  0.025 0.325 0  0.05 0.325 0  0.075 0.325 0  0.1 0.325 0  0.125 0.325 0  0.15 0.325 0  0.175 0.325 0  0.2 0.325 0  0.225 0.325 0  0.25 0.325 0  0.275 0.325 0  0.3 0.325 0  0.325 0.325 0  0.35 0.325 0  0.375 0.325 0  0.4 0.325 0  0.425 0.325 0  0.45 0.325 0  0.475 0.325 0  0.5 0.325 0  0.525 0.325 0  0.55 0.325 0  0.575 0.325 0  0.6 0.325 0  0.625 0.325 0  0.65 0.325 0  0.675 0.325 0  0.7 0.325 0  0.725 0.325 0  0.75 0.325 0  0.775 0.325 0  0.8 0.325 0  0.825 0.325 0  0.85 0.325 0  0.875 0.325 0  0.9 0.325 0  0.925 0.325 0  0.95 0.325 0  0.975 0.325 0  1 0.325 0  0 0.35 0  0.025 0.35 0  0.05 0.35 0  0.075 0.35 0  0.1 0.35 0  0.125 0.35 0  0.15 0.35 0  0.175 0.35 0  0.2 0.35 0  0.225 0.35 0  0.25 0.35 0  0.275 0.35 0  0.3 0.35 0  0.325 0.35 0  0.35 0.35 0  0.375 0.35 0  0.4 0.35 0  0.425 0.35 0  0.45 0.35 0  0.475 0.35 0  0.5 0.35 0  0.525 0.35 0  0.55 0.35 0  0.575 0.35 0  0.6 0.35 0  0.625 0.35 0  0.65 0.35 0  0.675 0.35 0  0.7 0.35 0  0.725 0.35 0  0.75 0.35 0  0.775 0.35 0  0.8 0.35 0  0.825 0.35 0  0.85 0.35 0  0.875 0.35 0  0.9 0.35 0  0.925 0.35 0  0.95 0.35 0  0.975 0.35 0  1 0.35 0  0 0.375 0  0.025 0.375 0  0.05 0.375 0  0.075 0.375 0  0.1 0.375 0  0.125 0.375 0  0.15 0.375 0  0.175 0.375 0  0.2 0.375 0  0.225 0.375 0  0.25 0.375 0  0.275 0.375 0  0.3 0.375 0  0.325 0.375 0  0.35 0.375 0  0.375 0.375 0  0.4 0.375 0  0.425 0.375 0  0.45 0.375 0  0.475 0.375 0  0.5 0.375 0  0.525 0.375 0  0.55 0.375 0  0.575 0.375 0  0.6 0.375 0  0.625 0.375 0  0.65 0.375 0  0.675 0.375 0  0.7 0.375 0  0.725 0.375 0  0.75 0.375 0  0.775 0.375 0  0.8 0.375 0  0.825 0.375 0  0.85 0.375 0  0.875 0.375 0  0.9 0.375 0  0.925 0.375 0  0.95 0.375 0  0.975 0.375 0  1 0.375 0  0 0.4 0  0.025 0.4 0  0.05 0.4 0  0.075 0.4 0  0.1 0.4 0  0.125 0.4 0  0.15 0.4 0  0.175 0.4 0  0.2 0.4 0  0.225 0.4 0  0.25 0.4 0  0.275 0.4 0  0.3 0.4 0  0.325 0.4 0  0.35 0.4 0  0.375 0.4 0  0.4 0.4 0  0.425 0.4 0  0.45 0.4 0  0.475 0.4 0  0.5 0.4 0  0.525 0.4 0  0.55 0.4 0  0.575 0.4 0  0.6 0.4 0  0.625 0.4 0  0.65 0.4 0  0.675 0.4 0  0.7 0.4 0  0.725 0.4 0  0.75 0.4 0  0.775 0.4 0  0.8 0.4 0  0.825 0.4 0  0.85 0.4 0  0.875 0.4 0  0.9 0.4 0  0.925 0.4 0  0.95 0.4 0  0.975 0.4 0  1 0.4 0  0 0.425 0  0.025 0.425 0  0.05 0.425 0  0.075 0.425 0  0.1 0.425 0  0.125 0.425 0  0.15 0.425 0  0.175 0.425 0  0.2 0.425 0  0.225 0.425 0  0.25 0.425 0  0.275 0.425 0  0.3 0.425 0  0.325 0.425 0  0.35 0.425 0  0.375 0.425 0  0.4 0.425 0  0.425 0.425 0  0.45 0.425 0  0.475 0.425 0  0.5 0.425 0  0.525 0.425 0  0.55 0.425 0  0.575 0.425 0  0.6 0.425 0  0.625 0.425 0  0.65 0.425 0  0.675 0.425 0  0.7 0.425 0  0.725 0.425 0  0.75 0.425 0  0.775 0.425 0  0.8 0.425 0  0.825 0.425 0  0.85 0.425 0  0.875 0.425 0  0.9 0.425 0  0.925 0.425 0  0.95 0.425 0  0.975 0.425 0  1 0.425 0  0 0.45 0  0.02
[...]
<PointData  Scalars="ControlVisualisation"> 
<DataArray  type="Float64"  Name="ControlVisualisation"  format="ascii">1.0412655751988992e-01  6.6125393357834544e-02  6.6298666301607911e-02  6.6654624276665408e-02  6.7153733462423190e-02  6.7735868729162263e-02  6.8342688037523414e-02  6.8930005289053325e-02  6.9471796953531534e-02  6.9958249658877952e-02  7.0390930133063995e-02  7.0777150359065816e-02  7.1125073283865109e-02  7.1440441778905878e-02  7.1725131125889297e-02  7.1977201827175361e-02  7.2191897301167568e-02  7.2363046865553282e-02  7.2484475473074378e-02  7.2551183886405080e-02  7.2560190442946107e-02  7.2511001517924334e-02  7.2405708240737054e-02  7.2248709207837436e-02  7.2046054749615979e-02  7.1804420794009421e-02  7.1529770076491472e-02  7.1225861058645298e-02  7.0892917037975289e-02  7.0526946902624468e-02  7.0120314183982027e-02  6.9664081730649308e-02  6.9152305734977493e-02  6.8587700715311742e-02  6.7987642954947997e-02  6.7388691653474858e-02  6.6845539664934409e-02  6.6421869083307120e-02  6.6170521570822205e-02  6.6092174750372393e-02  2.0538433468417425e-01  6.6123726982695696e-02  3.2462238807740462e-02  3.2872341051317748e-02  3.3644768733654060e-02  3.4738120745447354e-02  3.6039487541531412e-02  3.7428799457583636e-02  3.8806078033868610e-02  4.0101675888379762e-02  4.1280373807273389e-02  4.2339016556562331e-02  4.3297626941061700e-02  4.4186321464760821e-02  4.5031758069004710e-02  4.5846632016972713e-02  4.6624441920543436e-02  4.7340080180100406e-02  4.7955297807228327e-02  4.8427126260281929e-02  4.8717038573261796e-02  4.8798876946604418e-02  4.8664112458717705e-02  4.8323609804818986e-02  4.7805639957840755e-02  4.7150426434421931e-02  4.6402080522464029e-02  4.5599381583578270e-02  4.4767381135712860e-02  4.3912029622955907e-02  4.3019711407456675e-02  4.2062587792390659e-02  4.1009174753008928e-02  3.9837908047601941e-02  3.8550328725466002e-02  3.7180885141341866e-02  3.5801256206928034e-02  3.4518611834085368e-02  3.3465167559337920e-02  3.2753699237767123e-02  3.2392656212791540e-02  6.6091875352144391e-02  6.6285510894347532e-02  3.2877909700266557e-02  3.3816872893134564e-02  3.5237315894530871e-02  3.7165914156899668e-02  3.9392576275039753e-02  4.1683684370154621e-02  4.3873633929383059e-02  4.5900270316003938e-02  4.7813495695900966e-02  4.9769780417081563e-02  5.2002329338448339e-02  5.4751031889097912e-02  5.8167005323038673e-02  6.2234373800892792e-02  6.6745391019568737e-02  7.1334705543840762e-02  7.5552492624165024e-02  7.8948587842611551e-02  8.1146616242005684e-02  8.1898069899669718e-02  8.1114310047765328e-02  7.8877666299053850e-02  7.5432381783911429e-02  7.1154402553429197e-02  6.6498438120206199e-02  6.1923722748275373e-02  5.7807937687028577e-02  5.4370226187757567e-02  5.1632277703286156e-02  4.9440033732707458e-02  4.7542524729556841e-02  4.5691550497110656e-02  4.3717186948453848e-02  4.1561005021232347e-02  3.9283022270033885e-02  3.7057135323233667e-02  3.5134358398721623e-02  3.3721272836504682e-02  3.2750215941276375e-02  6.6164270155717256e-02  6.6631199611003306e-02  3.3734100435528644e-02  3.5491454784156620e-02  3.7485751455332013e-02  3.9847669944854364e-02  4.2267348962155761e-02  4.4487713436266778e-02  4.6476453215108959e-02  4.8517948595153571e-02  5.1286441697849905e-02  5.5734163172376061e-02  6.2733657369887855e-02  7.2672958714742122e-02  8.5261830672453034e-02  9.9621226232762511e-02  1.1453838922676197e-01  1.2873273337892344e-01  1.4104593685372135e-01  1.5054376214229853e-01  1.5655403875687582e-01  1.5867130280724401e-01  1.5675124046003558e-01  1.5090824048120161e-01  1.4152052951531030e-01  1.2923916164135410e-01  1.1498803456170516e-01  9.9931476071066172e-02  8.5376962198715642e-02  7.2584195549920849e-02  6.2487703563734190e-02  5.5418501682983234e-02  5.0991517755352711e-02  4.8296861414488967e-02  4.6332209376986892e-02  4.4391614061132081e-02  4.2186885461115799e-02  3.9758062674113540e-02  3.7364258649748058e-02  3.5330607830776128e-02  3.3485636690226819e-02  6.6396329845067964e-02  6.7152303834081564e-02  3.5146671485244349e-02  3.8732988651089942e-02  4.1807893716650057e-02  4.4594837214078149e-02  4.6883774990420228e-02  4.8896087575719741e-02  5.1807637641785698e-02  5.7809431554517426e-02  6.9141370761253582e-02  8.6848671275977229e-02  1.1033441972431104e-01  1.3780576683624046e-01  1.6702022315416409e-01  1.9585241348513072e-01  2.2256364838065781e-01  2.4585573801296223e-01  2.6481896246514175e-01  2.7884833853002533e-01  2.8756504535805738e-01  2.9075723733295150e-01  2.8834409011223733e-01  2.8036346790647171e-01  2.6698326024935415e-01  2.4853701115089380e-01  2.2558434132412836e-01  1.9899363584160529e-01  1.7003456232757674e-01  1.4044499658594883e-01  1.1239675737969076e-01  8.8239424978483944e-02  6.9919039537722230e-02  5.8165642490395075e-02  5.1963272196008742e-02  4.8973744712903902e-02  4.6892438802197317e-02  4.4497593423947199e-02  4.1622490116079179e-02  3.8533896837294246e-02  3.4848728473160728e-02  6.6821971607402650e-02  6.8033127916058839e-02  3.8653002312471083e-02  4.7802650121348690e-02  5.5286580373910703e-02  6.2341831363471101e-02  7.1187322950527640e-02  8.5084392544635415e-02  1.0674619485757120e-01  1.3660530257160614e-01  1.7291717887556540e-01  2.1291969312549905e-01  2.5384825483359152e-01  2.9344721091739384e-01  3.3009922059805985e-01  3.6276082214990996e-01  3.9082923976029066e-01  4.1400427078538560e-01  4.3217195906121281e-01  4.4531719494819860e-01  4.5346333848847387e-01  4.5663391434320771e-01  4.5483153798916665e-01  4.4803076619400567e-01  4.3618359257323053e-01  4.1923844411878158e-01  3.9717565179593556e-01  3.7006429980304356e-01  3.3814651744395519e-01  3.0195409819508567e-01  2.6245556202471604e-01  2.2121141454134619e-01  1.8047461593146003e-01  1.4308595221759562e-01  1.1196195265875548e-01  8.8968659609143810e-02  7.3782530427036405e-02  6.3615192528853018e-02  5.5486512042544081e-02  4.6956591363110999e-02  3.7265628158934902e-02  6.7238849595826086e-02  7.8914969357056108e-02  5.9546367158808795e-02  1.3048156341932410e-01  2.0212770497470001e-01  2.5498519455708984e-01  2.9578905618328566e-01  3.3077360350551099e-01  3.6409215828155733e-01  3.9736846812614462e-01  4.3056579034348880e-01  4.6293565857700220e-01  4.9358045584704935e-01  5.2171658255946807e-01  5.4677836307567207e-01  5.6843967173245813e-01  5.8658636653394569e-01  6.0126097749260832e-01  6.1259820065389869e-01  6.2076505835613827e-01  6.2591336593618041e-01  6.2814693048195991e-01  6.2750292918507666e-01  6.2394600143797163e-01  6.1737396149713553e-01  6.0763485669297179e-01  5.9455570169606009e-01  5.7798322842183869e-01  5.5783629321993566e-01  5.3416822571195222e-01  5.0723474834650717e-01  4.7755586221227886e-01  4.4594185926448987e-01  4.1339704046986270e-01  3.8078840136413800e-01  3.4800268354575598e-01  3.1296640093272460e-01  2.6965998957033649e-01  2.1252734160910541e-01  1.3063213568765661e-01  5.5800938968235216e-02  7.0451735115314162e-02  5.7577293323522871e-01  7.1242845479166050e-01  8.5526029262829240e-01  8.3276363594454250e-01  8.0154721648071492e-01  7.7361777584924585e-01  7.5237353070931035e-01  7.3864130764908298e-01  7.3188343274333456e-01  7.3073419407884288e-01  7.3357915594381140e-01  7.3890681200834230e-01  7.4544796990185413e-01  7.5221811406345840e-01  7.5852816785565369e-01  7.6397142594930034e-01  7.6838162685514333e-01  7.7176693435814392e-01  7.7423380703046607e-01  7.7591582028766137e-01  7.7691814933474679e-01  7.7728309075086965e-01  7.7697817566445482e-01  7.7590638886152341e-01  7.7393682580460832e-01  7.7095272821510197e-01  7.6691196911045456e-01  7.6191387210534822e-01  7.5626803817333832e-01  7.5056615718865116e-01  7.4575981342484465e-01  7.4322536031464637e-01  7.4472962288029521e-01  7.5216360451802233e-01  7.6689828082862954e-01  7.8927310895053981e-01  8.1777303958880010e-01  8.5074824361293011e-01  8.7215237282673352e-01  8.0553484208974113e-01  3.0715776002692113e-01  9.8209370786780770e-01  9.8408582508951414e-01  9.8171010098553901e-01  9.8373060442440097e-01  9.8154288869702289e-01  9.7312032796065617e-01  9.6006869129550676e-01  9.4571791421642759e-01  9.3248883692036699e-01  9.2138584435542481e-01  9.1251128742808818e-01  9.0557319065481223e-01  9.0014891568243627e-01  8.9580387486137802e-01  8.9216913208009929e-01  8.8900365603332387e-01  8.8622459493187644e-01  8.8389305946005670e-01  8.8216288290291200e-01  8.8121256297894035e-01  8.8118144243269270e-01  8.8212513076130827e-01  8.8399779110390897e-01  8.8666275680086648e-01  8.8992786617925868e-01  8.9359707314528125e-01  8.9752597572917181e-01  9.0166946746311649e-01  9.0611963191522071e-01  9.1114963959405737e-01  9.1728263427860968e-01  9.2534428051817641e-01  9.3630498860135414e-01  9.5058842615520200e-01  9.6679341061282364e-01  9.8068484031790082e-01  9.8679446855000819e-01  9.8428149730556524e-01  9.8015292439565649e-01  9.8542070774083057e-01  9.8575950878595253e-01  9.8813517161116915e-01  9.9186380980550892e-01  9.8939015107741901e-01  9.8572018712296172e-01  9.8097121229812700e-01  9.7701521371893352e-01  9.7632638258050841e-01  9.7877497401785840e-01  9.8223416716084611e-01  9.8439432012894890e-01  9.8381203355849534e-01  9.8026436164146902e-01  9.7439191201987296e-01  9.6712484336123350e-01  9.5931296401883015e-01  9.5162068147140688e-01  9.4456565395307934e-01  9.3858105691387261e-01  9.3404394474209107e-01  9.3126437903937154e-01  9.3045400101619413e-01  9.3169542394093585e-01  9.3492652302169676e-01  9.3994381891050482e-01  9.4641955828909696e-01  9.5391909337475589e-01  9.6190236241591021e-01  9.6970400830082570e-01  9.7652094757374308e-01  9.8149041130195491e-01  9.8396573192846215e-01  9.8396934457124652e-01  9.8243755666442101e-01  9.8067210579370956e-01  9.7943422973493055e-01  9.7938162994603906e-01  9.8169516431980397e-01  9.8581058302216984e-01  9.8933913394555761e-01  9.9208595215211492e-01  9.8685922357792222e-01  9.8931745853999331e-01  9.9326195177189802e-01  9.9112312323205021e-01  9.8835309113695990e-01  9.8418978185560613e-01  9.7883217737376016e-01  9.7523251851113923e-01  9.7689599275668026e-01  9.8380506276556012e-01  9.9203329378696792e-01  9.9688355254477634e-01  9.9595862380692091e-01  9.8956328082657752e-01  9.7943633215069692e-01  9.6753278157667744e-01  9.5544773270984518e-01  9.4432121845614880e-01  9.3493745072229595e-01  9.2784144330966778e-01  9.2341029811680442e-01  9.2187923308562059e-01  9.2334272504984649e-01  9.2774861097406036e-01  9.3489163938487940e-01  9.4440002915132193e-01  9.5569866195482700e-01  9.6793294590101264e-01  9.7986222816574875e-01  9.8979942169329571e-01  9.9578583824536127e-01  9.9626638522740207e-01  9.9130623110386096e-01  9.8355205262423850e-01  9.7734086600530912e-01  9.7585961456818437e-01  9.7908398861563117e-01  9.8411992744127541e-01  9.8826082794108749e-01  9.9108882370440499e-01  9.9324946553482973e-01  9.8934842141399604e-01  9.8688909952837089e-01  9.9222276380737995e-01  9.8981844616464099e-01  9.8695627097511252e-01  9.8335491321463209e-01  9.7946599367016596e-01  9.7677601323299168e-01  9.7692044060396843e-01  9.7953135646755241e-01  9.8146835001830812e-01  9.7880112557353005e-01  9.6968166743572970e-01  9.5496823699520894e-01  9.3695927001303436e-01  9.1805279986556898e-01  9.0009890195161979e-01  8.8431282402018385e-01  8.7142715474053767e-01  8.6187235226871928e-01  8.5590417307948852e-01  8.5367063357931294e-01  8.5523773849057771e-01  8.6059315704257133e-01  8.6963565012840571e-01  8.8214396002666950e-01  8.9770772630078466e-01  9.1560243377173556e-01  9.3461423931418586e-01  9.5288881265167824e-01  9.6800166632202156e-01  9.7756447453113759e-01  9.8053237876783472e-01  9.7854970976156519e-01  9.7558832058607980e-01  9.7521821312678303e-01  9.7821194446182580e-01  9.8275420484986309e-01  9.8680446558973367e-01  9.8983849869202822e-01  9.9197276654496691e-01  9.8816270668963802e-01  9.8601049044441569e-01  9.8667167784398280e-01  9.8324733817145660e-01  9.8311488780484968e-01  9.8219344111516438e-01  9.7865917331769892e-01  9.7031081132430352e-01  9.5760117420792412e-01  9.4219190940240138e-01  9.2427836706097954e-01  9.0310230452210494e-01  8.7868537124284851e-01  8.5231975609530286e-01  8.2589048898987460e-01  8.0111304093266367e-01  7.7918330150194037e-01  7.6077952949503058e-01  7.4621530418802284e-01  7.3560273767691609e-01  7.2896875304922493e-01  7.2631930163470804e-01  7.2766674523888275e-01  7.3303622069532515e-01  7.4245806401747183e-01  7.5594205227771216e-01  7.7342000756300411e-01  7.9464144803402015e-01  8.1902043551602377e-01  8.4547132919852863e-01  8.7234323424963933e-01  8.9763985574920424e-01  9.1966603715284101e-01  9.3784544322660401e-01  9.5280542059571838e-01  9.6514621730661743e-01  9.7441965795935181e-01  9.8014297749722357e-01  9.8301796784677165e-01  9.8372900733301383e-01  9.8558471764163935e-01  9.8143332752809520e-01  3.2265564736315638e-01  9.3159342954916347e-01  9.9768291226826733e-01  9.6644016712474801e-01  9.3377918368122992e-01  8.9844760520500189e-01  8.6104431853386632e-01  8.2401558674906616e-01  7.8894063153143512e-01  7.5600464181160387e-01  7.2464909601171268e-01  6.9462238842882318e-01  6.6627807674398953e-01  6.4029429008085603e-01  6.1730678919843851e-01  5.9771755926678638e-01  5.8168100406370604e-01  5.6918027016375894e-01  5.6011896675874051e-01  5.5439125616915375e-01  5.5192275265900093e-01  5.5268892485053467e-01  5.5672001460767606e-01  5.6409717047693086e-01  5.7493809067610746e-01  5.8936553265818015e-01  6.0745186845197097e-01  6.2914084222970013e-01  6.5416646185453087e-01  6.8201729686084767e-01  7.1201861830821034e-01  7.4358222783494443e-01  7.7653490325032670e-01  8.1119040821701605e-01  8.4780404097802109e-01  8.8568971738612490e-01  9.2331697064617768e-01  9.5985520849633210e-01  9.9206230611292490e-01  8.7161661518351996e-01  5.9154693508791234e-01  7.5211975775312523e-02  9.1017127211859061e-02  3.6556199391852801e-01  5.1260733269325398e-01  5.5264864154982263e-01  5.5512013870625265e-01  5.4148006547474292e-01  5.2221258094642153e-01  5.0176589624595902e-01  4.8190187345027347e-01  4.6300319258609013e-01  4.4513644369101463e-01  4.2847236975106928e-01  4.1330552623465000e-01  3.9992673241137905e-01  3.8852717098167061e-01  3.7917563418002459e-01  3.7184721177784974e-01  3.6646944379050739e-01  3.6296302267444530e-01  3.6126855625568577e-01  3.6136016187813136e-01  3.6324964505456198e-01  3.6698375881959228e-01  3.7263425652282861e-01  3.8027856744519944e-01  3.8996990648728302e-01  4.0170059495851917e-01  4.1537054292206110e-01  4.3078014286593996e-01  4.4766447110823721e-01  4.6575872965732956e-01  4.8481462705913009e-01  5.0437184944472557e-01  5.2299032160989622e-01  5.3661530170640848e-01  5.3565385698358825e-01  4.9704150978800699e-01  3.6268974674318716e-01  9.6833184940856673e-02  8.5076412612028501e-02  7.0590577695403500e-02  4.8124333300129087e-02  9.3019129222879651e-02  1.4620939222193891e-01  1.8611172186882100e-01  2.0879725388500697e-01  2.1939852840451773e-01  2.2350481939275682e-01  2.2432804038492643e-01  2.2350384323618175e-01  2.2166915414361255e-01  2.1911802015353937e-01  2.1609796816584906e-01  2.1288131688750037e-01  2.0972751136031359e-01  2.0683762273329420e-01  2.0433586171723087e-01  2.0227852131272056e-01  2.0067654771786375e-01  1.9951896277141576e-01  1.9879037634894570e-01  1.9848106116335112e-01  1.9859052004618441e-01  1.9912560525891421e-01  2.0009341619472448e-01  2.0148880584185969e-01  2.0327739815346935e-01  2.0537776098839827e-01  2.0764952268912029e-01  2.0989471609989685e-01  2.1187341414367561e-01  2.1331764350968432e-01  2.1389464704776673e-01  2.1301793815854780e-01  2.0935932401233459e-01  2.0000106923837749e-01  1.7978643806685995e-01  1.4284489221961627e-01  9.2590047511618895e-02  5.0351164757012110e-02  7.1516083058320204e-02  7.0402806273142410e-02  4.4158516686939486e-02  6.1163310364981731e-02  7.2881656267190689e-02  7.9520691420610107e-02  8.2536715920681042e-02  8.3907363015746056e-02  8.4970862445486767e-02  8.6326905698455664e-02  8.8070814799671771e-02  9.0003041197456002e-02  9.1887147247283280e-02  9.3563561821491892e-02  9.4970214545776310e-02  9.6110453750745478e-02  9.7013221556758178e-02  9.7705496093930769e-02  9.8201311617966830e-02  9.8502414886750586e-02  9.8603952915662665e-02  9.8500469740446947e-02  9.8190039690634445e-02  9.7676044971024820e-02  9.6966761969595777e-02  9.6073070359890517e-02  9.5004890426857641e-02  9.3767825920689746e-02  9.2362851689210851e-02  9.0792839001856973e-02  8.9078639760105383e-02  8.7282838717187505e-02  8.5530526620760522e-02  8.4002998932947909e-02  8.2861608912553619e-02  8.2050311728492448e-02  8.0983791505939401e-02  7.8312851196890118e-02  7.2164907050740620e-02  6.1150707736657609e-02  4.4472000283073077e-02  7.0622831834169161e-02  6.9954787327796669e-02  4.2236419818133780e-02  5.2864567985259910e-02  5.8436749532207982e-02  6.0566149265594851e-02  6.0089868462152057e-02  5.8237350033300855e-02  5.6051032124745256e-02  5.4211824074744883e-02  5.3019359511197434e-02  5.2488617165112439e-02  5.2490616599863121e-02  5.2857898826692867e-02  5.3441154009416153e-02  5.4125149832962224e-02  5.4824576081632881e-02  5.5474774844919639e-02  5.6024908017422576e-02  5.6435068615825840e-02  5.6676123194694700e-02  5.6730640286061396e-02  5.6593826826898591e-02  5.6274024338615045e-02  5.5792692829890467e-02  5.5183998915399504e-02  5.4494311272093754e-02  5.3782186375953167e-02  5.3119630954481523e-02  5.2595024025004586e-02  5.2316323815457116e-02  5.2409661616790018e-02  5.3003859651469087e-02  5.4188156927097914e-02  5.5932972639266595e-02  5.7979298422446535e-02  5.9734945965901398e-02  6.0255271016799720e-02  5.8428080670256274e-02  5.3234724311943322e-02  4.2627397785593338e-02  7.0204664648565784e-02  6.9522794427893414e-02  4.0981395400954218e-02  4.8839059790786607e-02  5.2183137288479023e-02  5.3583135238275022e-02  5.3677481859604512e-02  5.2867315975699825e-02  5.1533454586547262e-02  5.0018423351754354e-02  4.8576545232624266e-02  4.7357206722451320e-02  4.6418821508435709e-02  4.5759021530251132e-02  4.5343127903951383e-02  4.5122941110203332e-02  4.5046859978261217e-02  4.5064937339486910e-02  4.5131904288936292e-02  4.5209608546267266e-02  4.5269166959425580e-02  4.5292676243577717e-02  4.5274303101740881e-02  4.5220674313169201e-02  4.5150552232070401e-02  4.5093792896119519e-02  4.5089583092117802e-02  4.5183955418258787e-02  4.5426522383400378e-02  4.5866102935976913e-02  4.6544322543941891e-02  4.7485538140930469e-02  4.8681369002660874e-02  5.0070024670903074e-02  5.1515377179490340e-02  5.2796163950974029e-02  5.3613663299671384e-02  5.3607785571586360e-02  5.2340448958968763e-02  4.9096804425405580e-02  4.1225552694530342e-02  6.9773216041188538e-02  6.9086102498336355e-02  3.9823747069964832e-02  4.5956405953096663e-02  4.8199705861416614e-02  4.9194964755840863e-02  4.9506871113822924e-02  4.9346623281849328e-02  4.8847439105917413e-02  4.8129617313753745e-02  4.7308178108915667e-02  4.6479371851648327e-02  4.5711695452773218e-02  4.5046106115062587e-02  4.4500901264307086e-02  4.4077653122268648e-02  4.3766599384011909e-02  4.3551206505026835e-02  4.3412078960899061e-02  4.3330318724806582e-02  4.3290283806924248e-02  4.3281638181890847e-02  4.3300612563486399e-02  4.3350443223023824e-02  4.3440984024191123e-02  4.3587494147805508e-02  4.3808611137159822e-02  4.4123541930050109e-02  4.4548538147434730e-02  4.5092745333933718e-02  4.5753531865720454e-02  4.6511505074698818e-02  4.7325819308095665e-02  4.8131239841936964e-02  4.8839418936301372e-02  4.9346248322077964e-02  4.9540841889051682e-02  4.9293945359902037e-02  4.8375899782896872e-02  4.6166285040500868e-02  4.0035889394207852e-02  6.9340421631052959e-02  6.8667957093401677e-02  3.8763865118743732e-02  4.3691698013327541e-02  4.5299927842316699e-02  4.6012645726190994e-02  4.6331744935091686e-02  4.6406800900637667e-02  4.6292740148847523e-02  4.603020263