<?xml version="1.0"?>
<VTKFile type="UnstructuredGrid"  version="0.1"  >
<UnstructuredGrid>
<Piece  NumberOfPoints="1681" NumberOfCells="3200">
<Points>
<DataArray  type="Float64"  NumberOfComponents="3"  format="ascii">0 0 0  0.025 0 0  0.05 0 0  0.075 0 0  0.1 0 0  0.125 0 0  0.15 0 0  0.175 0 0  0.2 0 0  0.225 0 0  0.25 0 0  0.275 0 0  0.3 0 0  0.325 0 0  0.35 0 0  0.375 0 0  0.4 0 0  0.425 0 0  0.45 0 0  0.475 0 0  0.5 0 0  0.525 0 0  0.55 0 0  0.575 0 0  0.6 0 0  0.625 0 0  0.65 0 0  0.675 0 0  0.7 0 0  0.725 0 0  0.75 0 0  0.775 0 0  0.8 0 0  0.825 0 0  0.85 0 0  0.875 0 0  0.9 0 0  0.925 0 0  0.95 0 0  0.975 0 0  1 0 0  0 0.025 0  0.025 0.025 0  0.05 0.025 0  0.075 0.025 0  0.1 0.025 0  0.125 0.025 0  0.15 0.025 0  0.175 0.025 0  0.2 0.025 0  0.225 0.025 0  0.25 0.025 0  0.275 0.025 0  0.3 0.025 0  0.325 0.025 0  0.35 0.025 0  0.375 0.025 0  0.4 0.025 0  0.425 0.025 0  0.45 0.025 0  0.475 0.025 0  0.5 0.025 0  0.525 0.025 0  0.55 0.025 0  0.575 0.025 0  0.6 0.025 0  0.625 0.025 0  0.65 0.025 0  0.675 0.025 0  0.7 0.025 0  0.725 0.025 0  0.75 0.025 0  0.775 0.025 0  0.8 0.025 0  0.825 0.025 0  0.85 0.025 0  0.875 0.025 0  0.9 0.025 0  0.925 0.025 0  0.95 0.025 0  0.975 0.025 0  1 0.025 0  0 0.05 0  0.025 0.05 0  0.05 0.05 0  0.075 0.05 0  0.1 0.05 0  0.125 0.05 0  0.15 0.05 0  0.175 0.05 0  0.2 0.05 0  0.225 0.05 0  0.25 0.05 0  0.275 0.05 0  0.3 0.05 0  0.325 0.05 0  0.35 0.05 0  0.375 0.05 0  0.4 0.05 0  0.425 0.05 0  0.45 0.05 0  0.475 0.05 0  0.5 0.05 0  0.525 0.05 0  0.55 0.05 0  0.575 0.05 0  0.6 0.05 0  0.625 0.05 0  0.65 0.05 0  0.675 0.05 0  0.7 0.05 0  0.725 0.05 0  0.75 0.05 0  0.775 0.05 0  0.8 0.05 0  0.825 0.05 0  0.85 0.05 0  0.875 0.05 0  0.9 0.05 0  0.925 0.05 0  0.95 0.05 0  0.975 0.05 0  1 0.05 0  0 0.075 0  0.025 0.075 0  0.05 0.075 0  0.075 0.075 0  0.1 0.075 0  0.125 0.075 0  0.15 0.075 0  0.175 0.075 0  0.2 0.075 0  0.225 0.075 0  0.25 0.075 0  0.275 0.075 0  0.3 0.075 0  0.325 0.075 0  0.35 0.075 0  0.375 0.075 0  0.4 0.075 0  0.425 0.075 0  0.45 0.075 0  0.475 0.075 0  0.5 0.075 0  0.525 0.075 0  0.55 0.075 0  0.575 0.075 0  0.6 0.075 0  0.625 0.075 0  0.65 0.075 0  0.675 0.075 0  0.7 0.075 0  0.725 0.075 0  0.75 0.075 0  0.775 0.075 0  0.8 0.075 0  0.825 0.075 0  0.85 0.075 0  0.875 0.075 0  0.9 0.075 0  0.925 0.075 0  0.95 0.075 0  0.975 0.075 0  1 0.075 0  0 0.1 0  0.025 0.1 0  0.05 0.1 0  0.075 0.1 0  0.1 0.1 0  0.125 0.1 0  0.15 0.1 0  0.175 0.1 0  0.2 0.1 0  0.225 0.1 0  0.25 0.1 0  0.275 0.1 0  0.3 0.1 0  0.325 0.1 0  0.35 0.1 0  0.375 0.1 0  0.4 0.1 0  0.425 0.1 0  0.45 0.1 0  0.475 0.1 0  0.5 0.1 0  0.525 0.1 0  0.55 0.1 0  0.575 0.1 0  0.6 0.1 0  0.625 0.1 0  0.65 0.1 0  0.675 0.1 0  0.7 0.1 0  0.725 0.1 0  0.75 0.1 0  0.775 0.1 0  0.8 0.1 0  0.825 0.1 0  0.85 0.1 0  0.875 0.1 0  0.9 0.1 0  0.925 0.1 0  0.95 0.1 0  0.975 0.1 0  1 0.1 0  0 0.125 0  0.025 0.125 0  0.05 0.125 0  0.075 0.125 0  0.1 0.125 0  0.125 0.125 0  0.15 0.125 0  0.175 0.125 0  0.2 0.125 0  0.225 0.125 0  0.25 0.125 0  0.275 0.125 0  0.3 0.125 0  0.325 0.125 0  0.35 0.125 0  0.375 0.125 0  0.4 0.125 0  0.425 0.125 0  0.45 0.125 0  0.475 0.125 0  0.5 0.125 0  0.525 0.125 0  0.55 0.125 0  0.575 0.125 0  0.6 0.125 0  0.625 0.125 0  0.65 0.125 0  0.675 0.125 0  0.7 0.125 0  0.725 0.125 0  0.75 0.125 0  0.775 0.125 0  0.8 0.125 0  0.825 0.125 0  0.85 0.125 0  0.875 0.125 0  0.9 0.125 0  0.925 0.125 0  0.95 0.125 0  0.975 0.125 0  1 0.125 0  0 0.15 0  0.025 0.15 0  0.05 0.15 0  0.075 0.15 0  0.1 0.15 0  0.125 0.15 0  0.15 0.15 0  0.175 0.15 0  0.2 0.15 0  0.225 0.15 0  0.25 0.15 0  0.275 0.15 0  0.3 0.15 0  0.325 0.15 0  0.35 0.15 0  0.375 0.15 0  0.4 0.15 0  0.425 0.15 0  0.45 0.15 0  0.475 0.15 0  0.5 0.15 0  0.525 0.15 0  0.55 0.15 0  0.575 0.15 0  0.6 0.15 0  0.625 0.15 0  0.65 0.15 0  0.675 0.15 0  0.7 0.15 0  0.725 0.15 0  0.75 0.15 0  0.775 0.15 0  0.8 0.15 0  0.825 0.15 0  0.85 0.15 0  0.875 0.15 0  0.9 0.15 0  0.925 0.15 0  0.95 0.15 0  0.975 0.15 0  1 0.15 0  0 0.175 0  0.025 0.175 0  0.05 0.175 0  0.075 0.175 0  0.1 0.175 0  0.125 0.175 0  0.15 0.175 0  0.175 0.175 0  0.2 0.175 0  0.225 0.175 0  0.25 0.175 0  0.275 0.175 0  0.3 0.175 0  0.325 0.175 0  0.35 0.175 0  0.375 0.175 0  0.4 0.175 0  0.425 0.175 0  0.45 0.175 0  0.475 0.175 0  0.5 0.175 0  0.525 0.175 0  0.55 0.175 0  0.575 0.175 0  0.6 0.175 0  0.625 0.175 0  0.65 0.175 0  0.675 0.175 0  0.7 0.175 0  0.725 0.175 0  0.75 0.175 0  0.775 0.175 0  0.8 0.175 0  0.825 0.175 0  0.85 0.175 0  0.875 0.175 0  0.9 0.175 0  0.925 0.175 0  0.95 0.175 0  0.975 0.175 0  1 0.175 0  0 0.2 0  0.025 0.2 0  0.05 0.2 0  0.075 0.2 0  0.1 0.2 0  0.125 0.2 0  0.15 0.2 0  0.175 0.2 0  0.2 0.2 0  0.225 0.2 0  0.25 0.2 0  0.275 0.2 0  0.3 0.2 0  0.325 0.2 0  0.35 0.2 0  0.375 0.2 0  0.4 0.2 0  0.425 0.2 0  0.45 0.2 0  0.475 0.2 0  0.5 0.2 0  0.525 0.2 0  0.55 0.2 0  0.575 0.2 0  0.6 0.2 0  0.625 0.2 0  0.65 0.2 0  0.675 0.2 0  0.7 0.2 0  0.725 0.2 0  0.75 0.2 0  0.775 0.2 0  0.8 0.2 0  0.825 0.2 0  0.85 0.2 0  0.875 0.2 0  0.9 0.2 0  0.925 0.2 0  0.95 0.2 0  0.975 0.2 0  1 0.2 0  0 0.225 0  0.025 0.225 0  0.05 0.225 0  0.075 0.225 0  0.1 0.225 0  0.125 0.225 0  0.15 0.225 0  0.175 0.225 0  0.2 0.225 0  0.225 0.225 0  0.25 0.225 0  0.275 0.225 0  0.3 0.225 0  0.325 0.225 0  0.35 0.225 0  0.375 0.225 0  0.4 0.225 0  0.425 0.225 0  0.45 0.225 0  0.475 0.225 0  0.5 0.225 0  0.525 0.225 0  0.55 0.225 0  0.575 0.225 0  0.6 0.225 0  0.625 0.225 0  0.65 0.225 0  0.675 0.225 0  0.7 0.225 0  0.725 0.225 0  0.75 0.225 0  0.775 0.225 0  0.8 0.225 0  0.825 0.225 0  0.85 0.225 0  0.875 0.225 0  0.9 0.225 0  0.925 0.225 0  0.95 0.225 0  0.975 0.225 0  1 0.225 0  0 0.25 0  0.025 0.25 0  0.05 0.25 0  0.075 0.25 0  0.1 0.25 0  0.125 0.25 0  0.15 0.25 0  0.175 0.25 0  0.2 0.25 0  0.225 0.25 0  0.25 0.25 0  0.275 0.25 0  0.3 0.25 0  0.325 0.25 0  0.35 0.25 0  0.375 0.25 0  0.4 0.25 0  0.425 0.25 0  0.45 0.25 0  0.475 0.25 0  0.5 0.25 0  0.525 0.25 0  0.55 0.25 0  0.575 0.25 0  0.6 0.25 0  0.625 0.25 0  0.65 0.25 0  0.675 0.25 0  0.7 0.25 0  0.725 0.25 0  0.75 0.25 0  0.775 0.25 0  0.8 0.25 0  0.825 0.25 0  0.85 0.25 0  0.875 0.25 0  0.9 0.25 0  0.925 0.25 0  0.95 0.25 0  0.975 0.25 0  1 0.25 0  0 0.275 0  0.025 0.275 0  0.05 0.275 0  0.075 0.275 0  0.1 0.275 0  0.125 0.275 0  0.15 0.275 0  0.175 0.275 0  0.2 0.275 0  0.225 0.275 0  0.25 0.275 0  0.275 0.275 0  0.3 0.275 0  0.325 0.275 0  0.35 0.275 0  0.375 0.275 0  0.4 0.275 0  0.425 0.275 0  0.45 0.275 0  0.475 0.275 0  0.5 0.275 0  0.525 0.275 0  0.55 0.275 0  0.575 0.275 0  0.6 0.275 0  0.625 0.275 0  0.65 0.275 0  0.675 0.275 0  0.7 0.275 0  0.725 0.275 0  0.75 0.275 0  0.775 0.275 0  0.8 0.275 0  0.825 0.275 0  0.85 0.275 0  0.875 0.275 0  0.9 0.275 0  0.925 0.275 0  0.95 0.275 0  0.975 0.275 0  1 0.275 0  0 0.3 0  0.025 0.3 0  0.05 0.3 0  0.075 0.3 0  0.1 0.3 0  0.125 0.3 0  0.15 0.3 0  0.175 0.3 0  0.2 0.3 0  0.225 0.3 0  0.25 0.3 0  0.275 0.3 0  0.3 0.3 0  0.325 0.3 0  0.35 0.3 0  0.375 0.3 0  0.4 0.3 0  0.425 0.3 0  0.45 0.3 0  0.475 0.3 0  0.5 0.3 0  0.525 0.3 0  0.55 0.3 0  0.575 0.3 0  0.6 0.3 0  0.625 0.3 0  0.65 0.3 0  0.675 0.3 0  0.7 0.3 0  0.725 0.3 0  0.75 0.3 0  0.775 0.3 0  0.8 0.3 0  0.825 0.3 0  0.85 0.3 0  0.875 0.3 0  0.9 0.3 0  0.925 0.3 0  0.95 0.3 0  0.975 0.3 0  1 0.3 0  0 0.325 0  0.025 0.325 0  0.05 0.325 0  0.075 0.325 0  0.1 0.325 0  0.125 0.325 0  0.15 0.325 0  0.175 0.325 0  0.2 0.325 0  0.225 0.325 0  0.25 0.325 0  0.275 0.325 0  0.3 0.325 0  0.325 0.325 0  0.35 0.325 0  0.375 0.325 0  0.4 0.325 0  0.425 0.325 0  0.45 0.325 0  0.475 0.325 0  0.5 0.325 0  0.525 0.325 0  0.55 0.325 0  0.575 0.325 0  0.6 0.325 0  0.625 0.325 0  0.65 0.325 0  0.675 0.325 0  0.7 0.325 0  0.725 0.325 0  0.75 0.325 0  0.775 0.325 0  0.8 0.325 0  0.825 0.325 0  0.85 0.325 0  0.875 0.325 0  0.9 0.325 0  0.925 0.325 0  0.95 0.325 0  0.975 0.325 0  1 0.325 0  0 0.35 0  0.025 0.35 0  0.05 0.35 0  0.075 0.35 0  0.1 0.35 0  0.125 0.35 0  0.15 0.35 0  0.175 0.35 0  0.2 0.35 0  0.225 0.35 0  0.25 0.35 0  0.275 0.35 0  0.3 0.35 0  0.325 0.35 0  0.35 0.35 0  0.375 0.35 0  0.4 0.35 0  0.425 0.35 0  0.45 0.35 0  0.475 0.35 0  0.5 0.35 0  0.525 0.35 0  0.55 0.35 0  0.575 0.35 0  0.6 0.35 0  0.625 0.35 0  0.65 0.35 0  0.675 0.35 0  0.7 0.35 0  0.725 0.35 0  0.75 0.35 0  0.775 0.35 0  0.8 0.35 0  0.825 0.35 0  0.85 0.35 0  0.875 0.35 0  0.9 0.35 0  0.925 0.35 0  0.95 0.35 0  0.975 0.35 0  1 0.35 0  0 0.375 0  0.025 0.375 0  0.05 0.375 0  0.075 0.375 0  0.1 0.375 0  0.125 0.375 0  0.15 0.375 0  0.175 0.375 0  0.2 0.375 0  0.225 0.375 0  0.25 0.375 0  0.275 0.375 0  0.3 0.375 0  0.325 0.375 0  0.35 0.375 0  0.375 0.375 0  0.4 0.375 0  0.425 0.375 0  0.45 0.375 0  0.475 0.375 0  0.5 0.375 0  0.525 0.375 0  0.55 0.375 0  0.575 0.375 0  0.6 0.375 0  0.625 0.375 0  0.65 0.375 0  0.675 0.375 0  0.7 0.375 0  0.725 0.375 0  0.75 0.375 0  0.775 0.375 0  0.8 0.375 0  0.825 0.375 0  0.85 0.375 0  0.875 0.375 0  0.9 0.375 0  0.925 0.375 0  0.95 0.375 0  0.975 0.375 0  1 0.375 0  0 0.4 0  0.025 0.4 0  0.05 0.4 0  0.075 0.4 0  0.1 0.4 0  0.125 0.4 0  0.15 0.4 0  0.175 0.4 0  0.2 0.4 0  0.225 0.4 0  0.25 0.4 0  0.275 0.4 0  0.3 0.4 0  0.325 0.4 0  0.35 0.4 0  0.375 0.4 0  0.4 0.4 0  0.425 0.4 0  0.45 0.4 0  0.475 0.4 0  0.5 0.4 0  0.525 0.4 0  0.55 0.4 0  0.575 0.4 0  0.6 0.4 0  0.625 0.4 0  0.65 0.4 0  0.675 0.4 0  0.7 0.4 0  0.725 0.4 0  0.75 0.4 0  0.775 0.4 0  0.8 0.4 0  0.825 0.4 0  0.85 0.4 0  0.875 0.4 0  0.9 0.4 0  0.925 0.4 0  0.95 0.4 0  0.975 0.4 0  1 0.4 0  0 0.425 0  0.025 0.425 0  0.05 0.425 0  0.075 0.425 0  0.1 0.425 0  0.125 0.425 0  0.15 0.425 0  0.175 0.425 0  0.2 0.425 0  0.225 0.425 0  0.25 0.425 0  0.275 0.425 0  0.3 0.425 0  0.325 0.425 0  0.35 0.425 0  0.375 0.425 0  0.4 0.425 0  0.425 0.425 0  0.45 0.425 0  0.475 0.425 0  0.5 0.425 0  0.525 0.425 0  0.55 0.425 0  0.575 0.425 0  0.6 0.425 0  0.625 0.425 0  0.65 0.425 0  0.675 0.425 0  0.7 0.425 0  0.725 0.425 0  0.75 0.425 0  0.775 0.425 0  0.8 0.425 0  0.825 0.425 0  0.85 0.425 0  0.875 0.425 0  0.9 0.425 0  0.925 0.425 0  0.95 0.425 0  0.975 0.425 0  1 0.425 0  0 0.45 0  0.02
[...]
<PointData  Scalars="ControlVisualisation"> 
<DataArray  type="Float64"  Name="ControlVisualisation"  format="ascii">1.2378877121247506e-01  8.5224268201866599e-02  8.5268755603852026e-02  8.5349653817345897e-02  8.5465493410744511e-02  8.5615142884705425e-02  8.5796998659678547e-02  8.6009072046256962e-02  8.6248993120719417e-02  8.6514025251910251e-02  8.6801093124519030e-02  8.7106813028679786e-02  8.7427528329588722e-02  8.7759348757503838e-02  8.8098192224570521e-02  8.8439827465372323e-02  8.8779914930476822e-02  8.9114042146127254e-02  8.9437748127448147e-02  8.9746529488754820e-02  9.0035818874291990e-02  9.0300924663572923e-02  9.0536920314360086e-02  9.0738473299547956e-02  9.0899608958895664e-02  9.1013416000644970e-02  9.1071720657807290e-02  9.1064790141141855e-02  9.0981176120177795e-02  9.0807884687352514e-02  9.0531156159184958e-02  9.0138253816239730e-02  8.9620798059544649e-02  8.8979990417041827e-02  8.8233987861328952e-02  8.7425691654483190e-02  8.6627288705701466e-02  8.5933600492598086e-02  8.5447388346796660e-02  8.5231651916111290e-02  2.3460256723229181e-01  8.5224281953634434e-02  4.3536458792319876e-02  4.3628495569094178e-02  4.3794139267305757e-02  4.4037273478184126e-02  4.4357271614238483e-02  4.4752856582369042e-02  4.5222312054822578e-02  4.5763264029155946e-02  4.6372603068737167e-02  4.7046390476003862e-02  4.7779766455075728e-02  4.8566865505744489e-02  4.9400740644472974e-02  5.0273300952979202e-02  5.1175266726787058e-02  5.2096144951780471e-02  5.3024224033333039e-02  5.3946580243720038e-02  5.4849079459853935e-02  5.5716347414722006e-02  5.6531672024567436e-02  5.7276796240458894e-02  5.7931565604627394e-02  5.8473420559440673e-02  5.8876781730946473e-02  5.9112479160621498e-02  5.9147531710024494e-02  5.8945775927480820e-02  5.8470041317443870e-02  5.7686644199499842e-02  5.6572850408964107e-02  5.5127364724284617e-02  5.3382668953338347e-02  5.1417100082729213e-02  4.9360243646932582e-02  4.7387908723758934e-02  4.5697960064898097e-02  4.4470647818458831e-02  4.3740238264676615e-02  8.5231721960393414e-02  8.5268967545648555e-02  4.3628840444351676e-02  4.3777110801319324e-02  4.4001189682183729e-02  4.4331457321862208e-02  4.4769635731502500e-02  4.5316116762678355e-02  4.5970882075008795e-02  4.6733301743006453e-02  4.7601924297125398e-02  4.8574205334519116e-02  4.9646233551380314e-02  5.0812446855542273e-02  5.2065348580517902e-02  5.3395237554030583e-02  5.4789968374245560e-02  5.6234759397628800e-02  5.7712063187989902e-02  5.9201506108200588e-02  6.0679889036674053e-02  6.2121219315234386e-02  6.3496716314784166e-02  6.4774704546716799e-02  6.5920290788197694e-02  6.6894736965232390e-02  6.7654522658322669e-02  6.8150282542842180e-02  6.8326143697637343e-02  6.8120460675600319e-02  6.7469461679255369e-02  6.6315491907519231e-02  6.4621112187827678e-02  6.2388211439136469e-02  5.9678804085696854e-02  5.6630863201351370e-02  5.3458346287989671e-02  5.0438978778357860e-02  4.7861922991067223e-02  4.5961449769404278e-02  4.4518891395917005e-02  8.5456471599474795e-02  8.5350809801472083e-02  4.3796214285855797e-02  4.4003443513268597e-02  4.4236360975465600e-02  4.4576105837871527e-02  4.5027048546215608e-02  4.5590336273614571e-02  4.6266490608654766e-02  4.7055525251625901e-02  4.7956679818699513e-02  4.8968136796750494e-02  5.0086721475233173e-02  5.1307584191870897e-02  5.2623878194050233e-02  5.4026446775724588e-02  5.5503538407637727e-02  5.7040571473262622e-02  5.8619970000903951e-02  6.0221086870303933e-02  6.1820219431589454e-02  6.3390702416043776e-02  6.4903033364568791e-02  6.6324948218016266e-02  6.7621327041427634e-02  6.8753791048841481e-02  6.9679886987937895e-02  7.0351894951759142e-02  7.0715602878691233e-02  7.0709886529567167e-02  7.0268586436105507e-02  6.9326572232544958e-02  6.7831949099578986e-02  6.5764110634157769e-02  6.3156521529467990e-02  6.0115587262591724e-02  5.6833343113440085e-02  5.3588276479638514e-02  5.0684303391321996e-02  4.8412177709720394e-02  4.6049270056249113e-02  8.6024039819789788e-02  8.5469351869401466e-02  4.4044481204829997e-02  4.4340586819963716e-02  4.4583162448399771e-02  4.4930501501479182e-02  4.5391124117270219e-02  4.5966701640463750e-02  4.6657955855996663e-02  4.7465118346339291e-02  4.8387638948060564e-02  4.9423920301036456e-02  5.0571020805970972e-02  5.1824349423916116e-02  5.3177362579693452e-02  5.4621277737255336e-02  5.6144823193535691e-02  5.7734046237607993e-02  5.9372202037467812e-02  6.1039741739001327e-02  6.2714408520840786e-02  6.4371432569740608e-02  6.5983788091076245e-02  6.7522437213601183e-02  6.8956441375926672e-02  7.0252783761481669e-02  7.1375742576733361e-02  7.2285726359781435e-02  7.2937681014857675e-02  7.3279534742606997e-02  7.3251706940621525e-02  7.2789172067340382e-02  7.1828272121736342e-02  7.0318574189632124e-02  6.8242442400049605e-02  6.5631404795566339e-02  6.2599210555811566e-02  5.9341617827166973e-02  5.6137854351774513e-02  5.3287221465013260e-02  4.8904625072941590e-02  8.7038866141620513e-02  8.5624909804465590e-02  4.4376059632819397e-02  4.4794602341654388e-02  4.5050503202180722e-02  4.5407826080280905e-02  4.5881064787440001e-02  4.6472498539755991e-02  4.7183035618412542e-02  4.8013063563067941e-02  4.8962162032376383e-02  5.0028849574147244e-02  5.1210300139208867e-02  5.2502069267559917e-02  5.3897837751077787e-02  5.5389190009433029e-02  5.6965446499206950e-02  5.8613570686409537e-02  6.0318170048157788e-02  6.2061606167418376e-02  6.3824220040707508e-02  6.5584663480537111e-02  6.7320304287714280e-02  6.9007641563833627e-02  7.0622632085627607e-02  7.2140799245168474e-02  7.3536990136424715e-02  7.4784683397103868e-02  7.5854830897575304e-02  7.6714326972513736e-02  7.7324338187465397e-02  7.7638695621309817e-02  7.7603312116452813e-02  7.7156450311127001e-02  7.6237616114736007e-02  7.4792212399581698e-02  7.2824725407549612e-02  7.0350137980101674e-02  6.7400653048529935e-02  6.3398809641794521e-02  5.3717701785550673e-02  8.8267715293016982e-02  8.5817740107153026e-02  4.4793818982801034e-02  4.5372014069611805e-02  4.5646023914010340e-02  4.6016552402944090e-02  4.6506322598714039e-02  4.7118492097339655e-02  4.7854201807221747e-02  4.8714012635391261e-02  4.9697644776311695e-02  5.0803734062401927e-02  5.2029572399996324e-02  5.3370881048587643e-02  5.4821625818081740e-02  5.6373893507478429e-02  5.8017847280196468e-02  5.9741777523217382e-02  6.1532261712243061e-02  6.3374442347223697e-02  6.5252425755089966e-02  6.7149795602616663e-02  6.9050222909836367e-02  7.0938141369128918e-02  7.2799450421573986e-02  7.4622223490381695e-02  7.6397452760860768e-02  7.8119947268490794e-02  7.9789541880778678e-02  8.1412571013677840e-02  8.3002626192852230e-02  8.4577568478864912e-02  8.6147994109903023e-02  8.7691224111375643e-02  8.9125855143296462e-02  9.0296201525728814e-02  9.1131396956604216e-02  9.1690186457937042e-02  9.2096581627382129e-02  9.0114450239852956e-02  6.9836255689228882e-02  9.1917152083112491e-02  8.6048099152868360e-02  4.5301390156748320e-02  4.6081048013317728e-02  4.6379060201520300e-02  4.6766697152150233e-02  4.7277692026723564e-02  4.7916431905633217e-02  4.8684338351059786e-02  4.9582169570623558e-02  5.0609800215452215e-02  5.1765994451776112e-02  5.3048185854689955e-02  5.4452321846747406e-02  5.5972784952423207e-02  5.7602410437198187e-02  5.9332613679583507e-02  6.1153635971509746e-02  6.3054913076298902e-02  6.5025569257067789e-02  6.7055041393024969e-02  6.9133843596090913e-02  7.1254494163996249e-02  7.3412650877659205e-02  7.5608555154445298e-02  7.7849002659584693e-02  8.0150272256454685e-02  8.2542745994383715e-02  8.5078183154411777e-02  8.7840134624068270e-02  9.0955487011798355e-02  9.4599358637327144e-02  9.8974942261359222e-02  1.0423858836667095e-01  1.1038015336201060e-01  1.1716608904306731e-01  1.2460050467840930e-01  1.3359478523332283e-01  1.4609769737273631e-01  1.5904438032030141e-01  1.5419675446183603e-01  1.4367374157824189e-01  8.6316216629010442e-02  4.5903070116242353e-02  4.6931850971725725e-02  4.7261265941135659e-02  4.7670844956991497e-02  4.8208784928018854e-02  4.8881167090999773e-02  4.9689747164452333e-02  5.0635496085114653e-02  5.1718447035523377e-02  5.2937502294895820e-02  5.4290278622014840e-02  5.5773062634395978e-02  5.7380890780992524e-02  5.9107769903257459e-02  6.0947041428187965e-02  6.2891883544528612e-02  6.4935942837597169e-02  6.7074094537023482e-02  6.9303350317107978e-02  7.1623965267902351e-02  7.4040844740607903e-02  7.6565430513754723e-02  7.9218385764245627e-02  8.2033655738549482e-02  8.5064920729144233e-02  8.8396118494814213e-02  9.2158436000271682e-02  9.6556337286144822e-02  1.0190364205289051e-01  1.0866073288319092e-01  1.1742649571779890e-01  1.2879407716396568e-01  1.4310435548498934e-01  1.6054247859609397e-01  1.8236870125629417e-01  2.1250633232592686e-01  2.5844587769887001e-01  3.1829445718846033e-01  4.2048068139070405e-01  4.4489135324060347e-01  8.6622279402311958e-02  4.6603899904210766e-02  4.7936821803589297e-02  4.8307004140870149e-02  4.8744605068302770e-02  4.9316596473282556e-02  5.0031360728146540e-02  5.0891038324981902e-02  5.1896812724516753e-02  5.3048871412366520e-02  5.4346277974112893e-02  5.5786929420644629e-02  5.7367688296869723e-02  5.9084701477471968e-02  6.0933908306726854e-02  6.2911717690620317e-02  6.5015822227926220e-02  6.7246122874257713e-02  6.9605765518967175e-02  7.2102340162961256e-02  7.4749360273605084e-02  7.7568224496255722e-02  8.0590977884592074e-02  8.3864369146387244e-02  8.7456002233926411e-02  9.1463896076595497e-02  9.6031684804664091e-02  1.0137339123218864e-01  1.0781486078307616e-01  1.1585906376451893e-01  1.2625734107757969e-01  1.4002875682011895e-01  1.5843868938547623e-01  1.8307961035807338e-01  2.1612652380409184e-01  2.6112173822502810e-01  3.2397456415857773e-01  4.1239378659617970e-01  5.1962457859957267e-01  6.7029340910651936e-01  6.7226879113515337e-01  8.6966429157052355e-02  4.7409764325553133e-02  4.9111034146912265e-02  4.9533921890059542e-02  5.0007339097864152e-02  5.0622398267442956e-02  5.1390567411810174e-02  5.2314416157128327e-02  5.3395325432327237e-02  5.4633643602202672e-02  5.6028683533166382e-02  5.7578873170165579e-02  5.9282167818726611e-02  6.1136717413590891e-02  6.3141753259012195e-02  6.5298622583597893e-02  6.7611891465432145e-02  7.0090464609269251e-02  7.2748733326343171e-02  7.5607845935490386e-02  7.8697277303309610e-02  8.2056941149723825e-02  8.5740138053248260e-02  8.9817678628278302e-02  9.4383610523454800e-02  9.9563289110617334e-02  1.0552567421209239e-01  1.1250507071469036e-01  1.2084323291601108e-01  1.3106400979252270e-01  1.4401636613773744e-01  1.6122978091691967e-01  1.8542732470832304e-01  2.2043373865937244e-01  2.6981414082443395e-01  3.3422024637007230e-01  4.1263906862614164e-01  5.0591983440946942e-01  6.1229070159057486e-01  7.5612038577510565e-01  7.2870592193854622e-01  8.7348755200858774e-02  4.8327524748209151e-02  5.0472839962710347e-02  5.0963773165520962e-02  5.1483199715195091e-02  5.2153030317289004e-02  5.2988820239769849e-02  5.3993606641593722e-02  5.5168959507995607e-02  5.6515472276506648e-02  5.8032992057499441e-02  5.9721093995538557e-02  6.1579912130515502e-02  6.3611257550537786e-02  6.5819895431378256e-02  6.8214809681186123e-02  7.0810303836656457e-02  7.3626867000838064e-02  7.6691846276257220e-02  8.0040062739459364e-02  8.3714537342094608e-02  8.7767425421303780e-02  9.2261089754693409e-02  9.7269006891612997e-02  1.0287604560524778e-01  1.0917807978130986e-01  1.1628315872821780e-01  1.2432277342406406e-01  1.3349657276401886e-01  1.4422417363607798e-01  1.5757878182996141e-01  1.7587602692934601e-01  2.0254738115914478e-01  2.4174502507106943e-01  2.9753355371198714e-01  3.6566795502583538e-01  4.3500010303859793e-01  5.0539323605964936e-01  5.9130983670215786e-01  6.8707762312868614e-01  6.7470141426750729e-01  8.7769262138106069e-02  4.9365150597155127e-02  5.2044648362731677e-02  5.2623557353233277e-02  5.3202631879179590e-02  5.3942823237212542e-02  5.4865042574302067e-02  5.5972852315656796e-02  5.7268097208880923e-02  5.8751962478245087e-02  6.0425611531948933e-02  6.2291150443160262e-02  6.4352978249926140e-02  6.6619294255151715e-02  6.9103452407446780e-02  7.1824851171399862e-02  7.4809164496645306e-02  7.8087904969792885e-02  8.1697471688896656e-02  8.5677875378267682e-02  9.0071197378746581e-02  9.4919539923724705e-02  1.0026185009732679e-01  1.0612875303906152e-01  1.1253489355996082e-01  1.1947038886666539e-01  1.2689930706459429e-01  1.3478945775580095e-01  1.4323892696046733e-01  1.5281873256133546e-01  1.6500584975512739e-01  1.8187637190470957e-01  2.0542546821444099e-01  2.3857436266849796e-01  2.8543622231804061e-01  3.4290514357753149e-01  3.9445914279602201e-01  4.3306342585947433e-01  4.8234129698884892e-01  4.7668341135064157e-01  4.7670943315754566e-01  8.8227760026265922e-02  5.0531746402930525e-02  5.3853812373074725e-02  5.4547027834674147e-02  5.5204484186340524e-02  5.6036395404130440e-02  5.7070661669160548e-02  5.8311562538731293e-02  5.9761663280044459e-02  6.1423801518796436e-02  6.3302337399766234e-02  6.5404669612127153e-02  6.7742885491908766e-02  7.0335014594854695e-02  7.3205354598706154e-02  7.6383532136791957e-02  7.9902306321949154e-02  8.3794444898723119e-02  8.8089124158100163e-02  9.2808136911936845e-02  9.7961794549341549e-02  1.0354396667965285e-01  1.0952551616779974e-01  1.1584594653804779e-01  1.2240531057093247e-01  1.2906420361998583e-01  1.3567249934018080e-01  1.4217119946373111e-01  1.4882686372826506e-01  1.5651383844152522e-01  1.6647929300258901e-01  1.7942832951216456e-01  1.9575199792867209e-01  2.1684747652323469e-01  2.4445003201366544e-01  2.7635739074671828e-01  3.0176837680062929e-01  3.0849045116085178e-01  2.9934388232174802e-01  1.9889569180655664e-01  1.8542578787372602e-01  8.8723585559801671e-02  5.1837274810774742e-02  5.5933400857307379e-02  5.6776523596449871e-02  5.7538808051799797e-02  5.8492529413333536e-02  5.9674840378313575e-02  6.1091456821310064e-02  6.2747183581535693e-02  6.4649268699003087e-02  6.6809226108780026e-02  6.9244330148009250e-02  7.1978296655610008e-02  7.5040343609378668e-02  7.8462224030980868e-02  8.2273458578640990e-02  8.6495587032813223e-02  9.1136484034459425e-02  9.6185519699158006e-02  1.0160973435618752e-01  1.0735058208064036e-01  1.1332059508707265e-01  1.1939996990503837e-01  1.2543513025280029e-01  1.3124559617379292e-01  1.3665283784213492e-01  1.4155371101046416e-01  1.4605701319556139e-01  1.5063064683662061e-01  1.5600569405445600e-01  1.6258155062415305e-01  1.7002974482124561e-01  1.7804631773464791e-01  1.8687433095239536e-01  1.9624992977626032e-01  2.0379583891318576e-01  2.0477666668069600e-01  1.9427889200916645e-01  1.6843383308248214e-01  1.0236702194310618e-01  1.0288564094661892e-01  8.9255027548493210e-02  5.3291679182146917e-02  5.8322394552397100e-02  5.9364829316613923e-02  6.0270100747144909e-02  6.1388935937639222e-02  6.2771431688118259e-02  6.4427175914615553e-02  6.6367538728031306e-02  6.8610437135563418e-02  7.1181403444768532e-02  7.4112474686973434e-02  7.7438423287313873e-02  8.1190186046224994e-02  8.5386500721695860e-02  9.0025597894857146e-02  9.5078885383753725e-02  1.0048784484307652e-01  1.0616422420280250e-01  1.1199264388065801e-01  1.1783444679396259e-01  1.2353229975614383e-01  1.2891678139529109e-01  1.3381884504620370e-01  1.3809491070184443e-01  1.4167174067134966e-01  1.4460862087947016e-01  1.4714091823370126e-01  1.4961198145732715e-01  1.5221068663155282e-01  1.5469674766979249e-01  1.5656795242137136e-01  1.5754470872861859e-01  1.5753326676310367e-01  1.5603789949660535e-01  1.5182869271343705e-01  1.4340214356835546e-01  1.2983396829300939e-01  1.1016313303737461e-01  7.5752397230544916e-02  9.4444586280568427e-02  8.9818345359909207e-02  5.4903108084492114e-02  6.1064607952182506e-02  6.2376243743632223e-02  6.3479742817176277e-02  6.4826269232843181e-02  6.6486381520336091e-02  6.8480986891827342e-02  7.0838841494801810e-02  7.3600403741139450e-02  7.6812699732749304e-02  8.0518820242021782e-02  8.4744249543898309e-02  8.9483377214982243e-02  9.4690097338866283e-02  1.0027514380494645e-01  1.0611054953181638e-01  1.1203954554343738e-01  1.1788918402808121e-01  1.2348317701856890e-01  1.2865360688438565e-01  1.3325180853391072e-01  1.3716026922683772e-01  1.4030795070203880e-01  1.4268938530449940e-01  1.4438080717236815e-01  1.4553339040567156e-01  1.4631257864980357e-01  1.4677206812468194e-01  1.4673115030918504e-01  1.4579820059944873e-01  1.4355842815870901e-01  1.3969364270615181e-01  1.3393183210906695e-01  1.2608123476461186e-01  1.1626518342971684e-01  1.0516613817467009e-01  9.3803836937100316e-02  8.2546469192550015e-02  6.4514792567847618e-02  9.2737060143410932e-02  9.0406347331141973e-02  5.6675262256914424e-02  6.4205795650985623e-02  6.5885035421133109e-02  6.7263573529135756e-02  6.8925575426427049e-02  7.0980405797942542e-02  7.3480930162392960e-02  7.6496527507700696e-02  8.0105419520759308e-02  8.4368888113956930e-02  8.9301383165798998e-02  9.4848388424668972e-02  1.0088049538949939e-01  1.0720534398143318e-01  1.1359210169155060e-01  1.1980006311132120e-01  1.2560426699717345e-01  1.3081451618116097e-01  1.3528739326785677e-01  1.3893266031018747e-01  1.4171584553022726e-01  1.4365814147136310e-01  1.4483290535784155e-01  1.4535485440702897e-01  1.4535428294232419e-01  1.4492795834181513e-01  1.4406783932946646e-01  1.4259264513266159e-01  1.4013155955447482e-01  1.3620004925410453e-01  1.3036466884306422e-01  1.2247459276671407e-01  1.1288586711596370e-01  1.0244435867876880e-01  9.2117012114456651e-02  8.2656193046392185e-02  7.4552289674082242e-02  6.7802535366421779e-02  5.7827285612158351e-02  9.0889078818570376e-02  9.1007022064496707e-02  5.8605067475514652e-02  6.7789204462866959e-02  6.9966959180904759e-02  7.1713600069159653e-02  7.3804035600399720e-02  7.6434915045740015e-02  7.9741973023021676e-02  8.3872524168268694e-02  8.8936000663923501e-02  9.4935944670349215e-02  1.0172764475126887e-01  1.0902513593920815e-01  1.1645343800473859e-01  1.2362064098886956e-01  1.3018123573629570e-01  1.3587461262470815e-01  1.4053816120383539e-01  1.4410306433788073e-01  1.4658150820417121e-01  1.4805059043836830e-01  1.4863456711824291e-01  1.4848481672843494e-01  1.4775583284241259e-01  1.4657512948348600e-01  1.4500548340724681e-01  1.4300138668765716e-01  1.4037085037594194e-01  1.3676910796047931e-01  1.3176379873244329e-01  1.2500157564938660e-01  1.1644834597367829e-01  1.0656454326462633e-01  9.6209834124264482e-02  8.6263002620555890e-02  7.7306685966450281e-02  6.9669005873934542e-02  6.3574020594722572e-02  5.9008029624408494e-02  5.3015042309635843e-02  8.9296424745634123e-02  9.1602384247142149e-02  6.0681063736458873e-02  7.1850219192838988e-02  7.4675991236094363e-02  7.6861602589785943e-02  7.9503166733338321e-02  8.3013927747155269e-02  8.7713438673171926e-02  9.3839380314564902e-02  1.0141121223332208e-01  1.1013572553586595e-01  1.1943842915780850e-01  1.2860971927809645e-01  1.3698500688483350e-01  1.4407569325703043e-01  1.4961606638003505e-01  1.5354170734309514e-01  1.5593575456841033e-01  1.5697278786806182e-01  1.5687396472644535e-01  1.5587439850583681e-01  1.5419813516570413e-01  1.5203557232789411e-01  1.4951992326933181e-01  1.4670179378031728e-01  1.4352450207782169e-01  1.3980913894468119e-01  1.3526766036090218e-01  1.2956814167324859e-01  1.2246406352269665e-01  1.1395662999690687e-01  1.0439941838274709e-01  9.4437942187991591e-02  8.4775535143649910e-02  7.5933554238691525e-02  6.8205211717765196e-02  6.1776628130284415e-02  5.6796231118573987e-02  5.3274769399297484e-02  4.9496635997129626e-02  8.7955894705737794e-02  9.2166629918251974e-02  6.2885503179891028e-02  7.6419071194621199e-02  7.9995520929037819e-02  8.2557932698637204e-02  8.5885598444719463e-02  9.0905318572129690e-02  9.8216840246291265e-02  1.079569785