<?xml version="1.0"?>
<VTKFile type="UnstructuredGrid"  version="0.1"  >
<UnstructuredGrid>
<Piece  NumberOfPoints="1681" NumberOfCells="3200">
<Points>
<DataArray  type="Float64"  NumberOfComponents="3"  format="ascii">0 0 0  0.025 0 0  0.05 0 0  0.075 0 0  0.1 0 0  0.125 0 0  0.15 0 0  0.175 0 0  0.2 0 0  0.225 0 0  0.25 0 0  0.275 0 0  0.3 0 0  0.325 0 0  0.35 0 0  0.375 0 0  0.4 0 0  0.425 0 0  0.45 0 0  0.475 0 0  0.5 0 0  0.525 0 0  0.55 0 0  0.575 0 0  0.6 0 0  0.625 0 0  0.65 0 0  0.675 0 0  0.7 0 0  0.725 0 0  0.75 0 0  0.775 0 0  0.8 0 0  0.825 0 0  0.85 0 0  0.875 0 0  0.9 0 0  0.925 0 0  0.95 0 0  0.975 0 0  1 0 0  0 0.025 0  0.025 0.025 0  0.05 0.025 0  0.075 0.025 0  0.1 0.025 0  0.125 0.025 0  0.15 0.025 0  0.175 0.025 0  0.2 0.025 0  0.225 0.025 0  0.25 0.025 0  0.275 0.025 0  0.3 0.025 0  0.325 0.025 0  0.35 0.025 0  0.375 0.025 0  0.4 0.025 0  0.425 0.025 0  0.45 0.025 0  0.475 0.025 0  0.5 0.025 0  0.525 0.025 0  0.55 0.025 0  0.575 0.025 0  0.6 0.025 0  0.625 0.025 0  0.65 0.025 0  0.675 0.025 0  0.7 0.025 0  0.725 0.025 0  0.75 0.025 0  0.775 0.025 0  0.8 0.025 0  0.825 0.025 0  0.85 0.025 0  0.875 0.025 0  0.9 0.025 0  0.925 0.025 0  0.95 0.025 0  0.975 0.025 0  1 0.025 0  0 0.05 0  0.025 0.05 0  0.05 0.05 0  0.075 0.05 0  0.1 0.05 0  0.125 0.05 0  0.15 0.05 0  0.175 0.05 0  0.2 0.05 0  0.225 0.05 0  0.25 0.05 0  0.275 0.05 0  0.3 0.05 0  0.325 0.05 0  0.35 0.05 0  0.375 0.05 0  0.4 0.05 0  0.425 0.05 0  0.45 0.05 0  0.475 0.05 0  0.5 0.05 0  0.525 0.05 0  0.55 0.05 0  0.575 0.05 0  0.6 0.05 0  0.625 0.05 0  0.65 0.05 0  0.675 0.05 0  0.7 0.05 0  0.725 0.05 0  0.75 0.05 0  0.775 0.05 0  0.8 0.05 0  0.825 0.05 0  0.85 0.05 0  0.875 0.05 0  0.9 0.05 0  0.925 0.05 0  0.95 0.05 0  0.975 0.05 0  1 0.05 0  0 0.075 0  0.025 0.075 0  0.05 0.075 0  0.075 0.075 0  0.1 0.075 0  0.125 0.075 0  0.15 0.075 0  0.175 0.075 0  0.2 0.075 0  0.225 0.075 0  0.25 0.075 0  0.275 0.075 0  0.3 0.075 0  0.325 0.075 0  0.35 0.075 0  0.375 0.075 0  0.4 0.075 0  0.425 0.075 0  0.45 0.075 0  0.475 0.075 0  0.5 0.075 0  0.525 0.075 0  0.55 0.075 0  0.575 0.075 0  0.6 0.075 0  0.625 0.075 0  0.65 0.075 0  0.675 0.075 0  0.7 0.075 0  0.725 0.075 0  0.75 0.075 0  0.775 0.075 0  0.8 0.075 0  0.825 0.075 0  0.85 0.075 0  0.875 0.075 0  0.9 0.075 0  0.925 0.075 0  0.95 0.075 0  0.975 0.075 0  1 0.075 0  0 0.1 0  0.025 0.1 0  0.05 0.1 0  0.075 0.1 0  0.1 0.1 0  0.125 0.1 0  0.15 0.1 0  0.175 0.1 0  0.2 0.1 0  0.225 0.1 0  0.25 0.1 0  0.275 0.1 0  0.3 0.1 0  0.325 0.1 0  0.35 0.1 0  0.375 0.1 0  0.4 0.1 0  0.425 0.1 0  0.45 0.1 0  0.475 0.1 0  0.5 0.1 0  0.525 0.1 0  0.55 0.1 0  0.575 0.1 0  0.6 0.1 0  0.625 0.1 0  0.65 0.1 0  0.675 0.1 0  0.7 0.1 0  0.725 0.1 0  0.75 0.1 0  0.775 0.1 0  0.8 0.1 0  0.825 0.1 0  0.85 0.1 0  0.875 0.1 0  0.9 0.1 0  0.925 0.1 0  0.95 0.1 0  0.975 0.1 0  1 0.1 0  0 0.125 0  0.025 0.125 0  0.05 0.125 0  0.075 0.125 0  0.1 0.125 0  0.125 0.125 0  0.15 0.125 0  0.175 0.125 0  0.2 0.125 0  0.225 0.125 0  0.25 0.125 0  0.275 0.125 0  0.3 0.125 0  0.325 0.125 0  0.35 0.125 0  0.375 0.125 0  0.4 0.125 0  0.425 0.125 0  0.45 0.125 0  0.475 0.125 0  0.5 0.125 0  0.525 0.125 0  0.55 0.125 0  0.575 0.125 0  0.6 0.125 0  0.625 0.125 0  0.65 0.125 0  0.675 0.125 0  0.7 0.125 0  0.725 0.125 0  0.75 0.125 0  0.775 0.125 0  0.8 0.125 0  0.825 0.125 0  0.85 0.125 0  0.875 0.125 0  0.9 0.125 0  0.925 0.125 0  0.95 0.125 0  0.975 0.125 0  1 0.125 0  0 0.15 0  0.025 0.15 0  0.05 0.15 0  0.075 0.15 0  0.1 0.15 0  0.125 0.15 0  0.15 0.15 0  0.175 0.15 0  0.2 0.15 0  0.225 0.15 0  0.25 0.15 0  0.275 0.15 0  0.3 0.15 0  0.325 0.15 0  0.35 0.15 0  0.375 0.15 0  0.4 0.15 0  0.425 0.15 0  0.45 0.15 0  0.475 0.15 0  0.5 0.15 0  0.525 0.15 0  0.55 0.15 0  0.575 0.15 0  0.6 0.15 0  0.625 0.15 0  0.65 0.15 0  0.675 0.15 0  0.7 0.15 0  0.725 0.15 0  0.75 0.15 0  0.775 0.15 0  0.8 0.15 0  0.825 0.15 0  0.85 0.15 0  0.875 0.15 0  0.9 0.15 0  0.925 0.15 0  0.95 0.15 0  0.975 0.15 0  1 0.15 0  0 0.175 0  0.025 0.175 0  0.05 0.175 0  0.075 0.175 0  0.1 0.175 0  0.125 0.175 0  0.15 0.175 0  0.175 0.175 0  0.2 0.175 0  0.225 0.175 0  0.25 0.175 0  0.275 0.175 0  0.3 0.175 0  0.325 0.175 0  0.35 0.175 0  0.375 0.175 0  0.4 0.175 0  0.425 0.175 0  0.45 0.175 0  0.475 0.175 0  0.5 0.175 0  0.525 0.175 0  0.55 0.175 0  0.575 0.175 0  0.6 0.175 0  0.625 0.175 0  0.65 0.175 0  0.675 0.175 0  0.7 0.175 0  0.725 0.175 0  0.75 0.175 0  0.775 0.175 0  0.8 0.175 0  0.825 0.175 0  0.85 0.175 0  0.875 0.175 0  0.9 0.175 0  0.925 0.175 0  0.95 0.175 0  0.975 0.175 0  1 0.175 0  0 0.2 0  0.025 0.2 0  0.05 0.2 0  0.075 0.2 0  0.1 0.2 0  0.125 0.2 0  0.15 0.2 0  0.175 0.2 0  0.2 0.2 0  0.225 0.2 0  0.25 0.2 0  0.275 0.2 0  0.3 0.2 0  0.325 0.2 0  0.35 0.2 0  0.375 0.2 0  0.4 0.2 0  0.425 0.2 0  0.45 0.2 0  0.475 0.2 0  0.5 0.2 0  0.525 0.2 0  0.55 0.2 0  0.575 0.2 0  0.6 0.2 0  0.625 0.2 0  0.65 0.2 0  0.675 0.2 0  0.7 0.2 0  0.725 0.2 0  0.75 0.2 0  0.775 0.2 0  0.8 0.2 0  0.825 0.2 0  0.85 0.2 0  0.875 0.2 0  0.9 0.2 0  0.925 0.2 0  0.95 0.2 0  0.975 0.2 0  1 0.2 0  0 0.225 0  0.025 0.225 0  0.05 0.225 0  0.075 0.225 0  0.1 0.225 0  0.125 0.225 0  0.15 0.225 0  0.175 0.225 0  0.2 0.225 0  0.225 0.225 0  0.25 0.225 0  0.275 0.225 0  0.3 0.225 0  0.325 0.225 0  0.35 0.225 0  0.375 0.225 0  0.4 0.225 0  0.425 0.225 0  0.45 0.225 0  0.475 0.225 0  0.5 0.225 0  0.525 0.225 0  0.55 0.225 0  0.575 0.225 0  0.6 0.225 0  0.625 0.225 0  0.65 0.225 0  0.675 0.225 0  0.7 0.225 0  0.725 0.225 0  0.75 0.225 0  0.775 0.225 0  0.8 0.225 0  0.825 0.225 0  0.85 0.225 0  0.875 0.225 0  0.9 0.225 0  0.925 0.225 0  0.95 0.225 0  0.975 0.225 0  1 0.225 0  0 0.25 0  0.025 0.25 0  0.05 0.25 0  0.075 0.25 0  0.1 0.25 0  0.125 0.25 0  0.15 0.25 0  0.175 0.25 0  0.2 0.25 0  0.225 0.25 0  0.25 0.25 0  0.275 0.25 0  0.3 0.25 0  0.325 0.25 0  0.35 0.25 0  0.375 0.25 0  0.4 0.25 0  0.425 0.25 0  0.45 0.25 0  0.475 0.25 0  0.5 0.25 0  0.525 0.25 0  0.55 0.25 0  0.575 0.25 0  0.6 0.25 0  0.625 0.25 0  0.65 0.25 0  0.675 0.25 0  0.7 0.25 0  0.725 0.25 0  0.75 0.25 0  0.775 0.25 0  0.8 0.25 0  0.825 0.25 0  0.85 0.25 0  0.875 0.25 0  0.9 0.25 0  0.925 0.25 0  0.95 0.25 0  0.975 0.25 0  1 0.25 0  0 0.275 0  0.025 0.275 0  0.05 0.275 0  0.075 0.275 0  0.1 0.275 0  0.125 0.275 0  0.15 0.275 0  0.175 0.275 0  0.2 0.275 0  0.225 0.275 0  0.25 0.275 0  0.275 0.275 0  0.3 0.275 0  0.325 0.275 0  0.35 0.275 0  0.375 0.275 0  0.4 0.275 0  0.425 0.275 0  0.45 0.275 0  0.475 0.275 0  0.5 0.275 0  0.525 0.275 0  0.55 0.275 0  0.575 0.275 0  0.6 0.275 0  0.625 0.275 0  0.65 0.275 0  0.675 0.275 0  0.7 0.275 0  0.725 0.275 0  0.75 0.275 0  0.775 0.275 0  0.8 0.275 0  0.825 0.275 0  0.85 0.275 0  0.875 0.275 0  0.9 0.275 0  0.925 0.275 0  0.95 0.275 0  0.975 0.275 0  1 0.275 0  0 0.3 0  0.025 0.3 0  0.05 0.3 0  0.075 0.3 0  0.1 0.3 0  0.125 0.3 0  0.15 0.3 0  0.175 0.3 0  0.2 0.3 0  0.225 0.3 0  0.25 0.3 0  0.275 0.3 0  0.3 0.3 0  0.325 0.3 0  0.35 0.3 0  0.375 0.3 0  0.4 0.3 0  0.425 0.3 0  0.45 0.3 0  0.475 0.3 0  0.5 0.3 0  0.525 0.3 0  0.55 0.3 0  0.575 0.3 0  0.6 0.3 0  0.625 0.3 0  0.65 0.3 0  0.675 0.3 0  0.7 0.3 0  0.725 0.3 0  0.75 0.3 0  0.775 0.3 0  0.8 0.3 0  0.825 0.3 0  0.85 0.3 0  0.875 0.3 0  0.9 0.3 0  0.925 0.3 0  0.95 0.3 0  0.975 0.3 0  1 0.3 0  0 0.325 0  0.025 0.325 0  0.05 0.325 0  0.075 0.325 0  0.1 0.325 0  0.125 0.325 0  0.15 0.325 0  0.175 0.325 0  0.2 0.325 0  0.225 0.325 0  0.25 0.325 0  0.275 0.325 0  0.3 0.325 0  0.325 0.325 0  0.35 0.325 0  0.375 0.325 0  0.4 0.325 0  0.425 0.325 0  0.45 0.325 0  0.475 0.325 0  0.5 0.325 0  0.525 0.325 0  0.55 0.325 0  0.575 0.325 0  0.6 0.325 0  0.625 0.325 0  0.65 0.325 0  0.675 0.325 0  0.7 0.325 0  0.725 0.325 0  0.75 0.325 0  0.775 0.325 0  0.8 0.325 0  0.825 0.325 0  0.85 0.325 0  0.875 0.325 0  0.9 0.325 0  0.925 0.325 0  0.95 0.325 0  0.975 0.325 0  1 0.325 0  0 0.35 0  0.025 0.35 0  0.05 0.35 0  0.075 0.35 0  0.1 0.35 0  0.125 0.35 0  0.15 0.35 0  0.175 0.35 0  0.2 0.35 0  0.225 0.35 0  0.25 0.35 0  0.275 0.35 0  0.3 0.35 0  0.325 0.35 0  0.35 0.35 0  0.375 0.35 0  0.4 0.35 0  0.425 0.35 0  0.45 0.35 0  0.475 0.35 0  0.5 0.35 0  0.525 0.35 0  0.55 0.35 0  0.575 0.35 0  0.6 0.35 0  0.625 0.35 0  0.65 0.35 0  0.675 0.35 0  0.7 0.35 0  0.725 0.35 0  0.75 0.35 0  0.775 0.35 0  0.8 0.35 0  0.825 0.35 0  0.85 0.35 0  0.875 0.35 0  0.9 0.35 0  0.925 0.35 0  0.95 0.35 0  0.975 0.35 0  1 0.35 0  0 0.375 0  0.025 0.375 0  0.05 0.375 0  0.075 0.375 0  0.1 0.375 0  0.125 0.375 0  0.15 0.375 0  0.175 0.375 0  0.2 0.375 0  0.225 0.375 0  0.25 0.375 0  0.275 0.375 0  0.3 0.375 0  0.325 0.375 0  0.35 0.375 0  0.375 0.375 0  0.4 0.375 0  0.425 0.375 0  0.45 0.375 0  0.475 0.375 0  0.5 0.375 0  0.525 0.375 0  0.55 0.375 0  0.575 0.375 0  0.6 0.375 0  0.625 0.375 0  0.65 0.375 0  0.675 0.375 0  0.7 0.375 0  0.725 0.375 0  0.75 0.375 0  0.775 0.375 0  0.8 0.375 0  0.825 0.375 0  0.85 0.375 0  0.875 0.375 0  0.9 0.375 0  0.925 0.375 0  0.95 0.375 0  0.975 0.375 0  1 0.375 0  0 0.4 0  0.025 0.4 0  0.05 0.4 0  0.075 0.4 0  0.1 0.4 0  0.125 0.4 0  0.15 0.4 0  0.175 0.4 0  0.2 0.4 0  0.225 0.4 0  0.25 0.4 0  0.275 0.4 0  0.3 0.4 0  0.325 0.4 0  0.35 0.4 0  0.375 0.4 0  0.4 0.4 0  0.425 0.4 0  0.45 0.4 0  0.475 0.4 0  0.5 0.4 0  0.525 0.4 0  0.55 0.4 0  0.575 0.4 0  0.6 0.4 0  0.625 0.4 0  0.65 0.4 0  0.675 0.4 0  0.7 0.4 0  0.725 0.4 0  0.75 0.4 0  0.775 0.4 0  0.8 0.4 0  0.825 0.4 0  0.85 0.4 0  0.875 0.4 0  0.9 0.4 0  0.925 0.4 0  0.95 0.4 0  0.975 0.4 0  1 0.4 0  0 0.425 0  0.025 0.425 0  0.05 0.425 0  0.075 0.425 0  0.1 0.425 0  0.125 0.425 0  0.15 0.425 0  0.175 0.425 0  0.2 0.425 0  0.225 0.425 0  0.25 0.425 0  0.275 0.425 0  0.3 0.425 0  0.325 0.425 0  0.35 0.425 0  0.375 0.425 0  0.4 0.425 0  0.425 0.425 0  0.45 0.425 0  0.475 0.425 0  0.5 0.425 0  0.525 0.425 0  0.55 0.425 0  0.575 0.425 0  0.6 0.425 0  0.625 0.425 0  0.65 0.425 0  0.675 0.425 0  0.7 0.425 0  0.725 0.425 0  0.75 0.425 0  0.775 0.425 0  0.8 0.425 0  0.825 0.425 0  0.85 0.425 0  0.875 0.425 0  0.9 0.425 0  0.925 0.425 0  0.95 0.425 0  0.975 0.425 0  1 0.425 0  0 0.45 0  0.02
[...]
<PointData  Scalars="ControlVisualisation"> 
<DataArray  type="Float64"  Name="ControlVisualisation"  format="ascii">2.6050430297309492e-05  1.7366249963964091e-05  1.7373852770936529e-05  1.7386894145343330e-05  1.7405224373923541e-05  1.7428716071672938e-05  1.7457189241301360e-05  1.7490423476464080e-05  1.7528157270226616e-05  1.7570087036026497e-05  1.7615866725559517e-05  1.7665107050247896e-05  1.7717374463156226e-05  1.7772189843641240e-05  1.7829026795213477e-05  1.7887309447261340e-05  1.7946409611753374e-05  1.8005643097576475e-05  1.8064264927819955e-05  1.8121463141331474e-05  1.8176350795592000e-05  1.8227955734738628e-05  1.8275207671483329e-05  1.8316922209180767e-05  1.8351781708202378e-05  1.8378313598105182e-05  1.8394868190437094e-05  1.8399601203534155e-05  1.8390471755118099e-05  1.8365276401997764e-05  1.8321753733866153e-05  1.8257816876640872e-05  1.8171995965721102e-05  1.8064179990785082e-05  1.7936731901422754e-05  1.7795819661328995e-05  1.7652457575601642e-05  1.7522419993284623e-05  1.7424626076316578e-05  1.7373158540420725e-05  5.2109328938463909e-05  1.7366255554915106e-05  8.6811325583003794e-06  8.6892379664814752e-06  8.7037689107684144e-06  8.7248458911777325e-06  8.7523704633490169e-06  8.7862001461951684e-06  8.8261586683301631e-06  8.8720271806378038e-06  8.9235404572299854e-06  8.9803820060926372e-06  9.0421782732339698e-06  9.1084921248814156e-06  9.1788155574692492e-06  9.2525616354797874e-06  9.3290556587966328e-06  9.4075255573608720e-06  9.4870915058554840e-06  9.5667547453492089e-06  9.6453855987769093e-06  9.7217106842415355e-06  9.7942993846367188e-06  9.8615497586311130e-06  9.9216743434415574e-06  9.9726868331739554e-06  1.0012391696306800e-05  1.0038380809485639e-05  1.0048045094237542e-05  1.0038614762839115e-05  1.0007252550655877e-05  9.9512377478045351e-06  9.8683009034890112e-06  9.7571794666480905e-06  9.6184560098837809e-06  9.4557243287284069e-06  9.2768090504679225e-06  9.0948596765977848e-06  8.9281558265521062e-06  8.7974718506804362e-06  8.7162947835622902e-06  1.7373350934616278e-05  1.7373920419077436e-05  8.6892916954089560e-06  8.6999297379740372e-06  8.7170230024992615e-06  8.7418717439075185e-06  8.7744255235848836e-06  8.8145482457878529e-06  8.8620637725818495e-06  8.9167496538024868e-06  8.9783319836627378e-06  9.0464777259237437e-06  9.1207861865886062e-06  9.2007793481681726e-06  9.2858910321856332e-06  9.3754549287348903e-06  9.4686915507910921e-06  9.5646942086525621e-06  9.6624141435715907e-06  9.7606450152986254e-06  9.8580070174203984e-06  9.9529310102687912e-06  1.0043643234164182e-05  1.0128151416697704e-05  1.0204233500290371e-05  1.0269430870846763e-05  1.0321049129426881e-05  1.0356171179395256e-05  1.0371690521089879e-05  1.0364377486618852e-05  1.0331004110443378e-05  1.0268563882172845e-05  1.0174631809751663e-05  1.0047928860122375e-05  9.8891290798971240e-06  9.7020844973789945e-06  9.4951021016832818e-06  9.2829663169486304e-06  9.0859258097521988e-06  8.9271325655619783e-06  8.8086477662814162e-06  1.7429747358443234e-05  1.7387223738968441e-05  8.7040755684440703e-06  8.7173105648195376e-06  8.7347235333679453e-06  8.7598795448084033e-06  8.7928353491213876e-06  8.8334652997679961e-06  8.8815942071623191e-06  8.9370015646500981e-06  8.9994155120161226e-06  9.0685053553004584e-06  9.1438731670112261e-06  9.2250442105488967e-06  9.3114562857805750e-06  9.4024480597941662e-06  9.4972464968178124e-06  9.5949535578675545e-06  9.6945324045164770e-06  9.7947934220211122e-06  9.8943804896511934e-06  9.9917580809860922e-06  1.0085200015440423e-05  1.0172781000771859e-05  1.0252372593228046e-05  1.0321645593734935e-05  1.0378081472971444e-05  1.0418996595095808e-05  1.0441584243975965e-05  1.0442990290257797e-05  1.0420423318010786e-05  1.0371333212739198e-05  1.0293618274990968e-05  1.0186110667468396e-05  1.0049093273603806e-05  9.8853715220923834e-06  9.7012259685966133e-06  9.5075420981486382e-06  9.3198822652348601e-06  9.1602018200504775e-06  8.9991989292862243e-06  1.7561808002040767e-05  1.7406263293641056e-05  8.7258810957349369e-06  8.7429997913914459e-06  8.7607260987060573e-06  8.7860551178579031e-06  8.8192264458749887e-06  8.8601258157581362e-06  8.9085797912893810e-06  8.9643704680915076e-06  9.0272290842882214e-06  9.0968291292988256e-06  9.1727782406094151e-06  9.2546090597780601e-06  9.3417691524051994e-06  9.4336101105716128e-06  9.5293760369371400e-06  9.6281916821444493e-06  9.7290505921942112e-06  9.8308037224532038e-06  9.9321491285837587e-06  1.0031623571136585e-05  1.0127597237147730e-05  1.0218273133543880e-05  1.0301693069918806e-05  1.0375752727650899e-05  1.0438229049720962e-05  1.0486828236387906e-05  1.0519247891303666e-05  1.0533282414814251e-05  1.0526860252971331e-05  1.0498305435417826e-05  1.0446431041189351e-05  1.0371406426105320e-05  1.0274437138868997e-05  1.0157613107771175e-05  1.0026019131973041e-05  9.8801277683300112e-06  9.7478721195581351e-06  9.6316522723773355e-06  9.3767146484835568e-06  1.7811715227152216e-05  1.7431265638716620e-05  8.7550210788883669e-06  8.7774330495129792e-06  8.7955781070667068e-06  8.8211273176499436e-06  8.8545737424038523e-06  8.8958162042845662e-06  8.9446839928214945e-06  9.0009624197830439e-06  9.0643868817099671e-06  9.1346364478770318e-06  9.2113261446399158e-06  9.2939983684390192e-06  9.3821135194909326e-06  9.4750400654681584e-06  9.5720443385958755e-06  9.6722804630308986e-06  9.7747809168262940e-06  9.8784483586589269e-06  9.9820495516820243e-06  1.0084212489390906e-05  1.0183428105906567e-05  1.0278058756295426e-05  1.0366356218353180e-05  1.0446496667293643e-05  1.0516630701951749e-05  1.0574965801691916e-05  1.0619820840338145e-05  1.0649824746625868e-05  1.0663964868423234e-05  1.0662422603363954e-05  1.0646007453179061e-05  1.0616428227426372e-05  1.0577615750173362e-05  1.0531029348903436e-05  1.0507904539342556e-05  1.0488472165453314e-05  1.0563321528638917e-05  1.0564728208972817e-05  1.0008939622190172e-05  1.8118399211381077e-05  1.7462514683955265e-05  8.7919087408551513e-06  8.8211358671601560e-06  8.8398234980646845e-06  8.8656549932454127e-06  8.8994532238705706e-06  8.9411345929371487e-06  8.9905319206396627e-06  9.0474343986250574e-06  9.1115826389782062e-06  9.1826626715549938e-06  9.2602987008722161e-06  9.3440451386067863e-06  9.4333780353625888e-06  9.5276862192558221e-06  9.6262625727234507e-06  9.7282960111106027e-06  9.8328648479973927e-06  9.9389323602296072e-06  1.0045345350049984e-05  1.0150837158108167e-05  1.0254036667499190e-05  1.0353489163416054e-05  1.0447688126994385e-05  1.0535132224404043e-05  1.0614369269739238e-05  1.0684143486973220e-05  1.0743513973057088e-05  1.0792378957863510e-05  1.0831556931257664e-05  1.0862296101734674e-05  1.0887867231076024e-05  1.0908466104652929e-05  1.0962245743300684e-05  1.1043046758220489e-05  1.1311672526734522e-05  1.1670533852429738e-05  1.2575431194037267e-05  1.3770394333782414e-05  1.3879249369437733e-05  1.9773493555674143e-05  1.7500368878098242e-05  8.8370816167304811e-06  8.8747881809967147e-06  8.8941536797956635e-06  8.9203358338187800e-06  8.9545707792930816e-06  8.9967971475539205e-06  9.0468520096119809e-06  9.1045292466121552e-06  9.1695757824974759e-06  9.2416860384216398e-06  9.3204952188779532e-06  9.4055719880696090e-06  9.4964107186310552e-06  9.5924237380419173e-06  9.6929341656188526e-06  9.7971701363259019e-06  9.9042611355237835e-06  1.0013237609322924e-05  1.0123034310404125e-05  1.0232501182881815e-05  1.0340419996797597e-05  1.0445536300944435e-05  1.0546583232951242e-05  1.0642369258453915e-05  1.0731868177112206e-05  1.0814563470263863e-05  1.0890610877900691e-05  1.0960133687310047e-05  1.1026234814277576e-05  1.1086048604705376e-05  1.1175174094976119e-05  1.1265332230509488e-05  1.1507716993330005e-05  1.1775555117529530e-05  1.2957583072849632e-05  1.5183202860941521e-05  2.1713150225090800e-05  8.0294791884385038e-05  7.2434395830436121e-02  4.9954890286470668e-02  1.7545267002347761e-05  8.8912107067792510e-06  8.9392434909670456e-06  8.9594376430033564e-06  8.9860468061066522e-06  9.0208130069506243e-06  9.0637022270167864e-06  9.1145566556457889e-06  9.1731757536024388e-06  9.2393139246080671e-06  9.3126755123763790e-06  9.3929086393415203e-06  9.4795985128709815e-06  9.5722604237011984e-06  9.6703330197475532e-06  9.7731725173815138e-06  9.8800492236682512e-06  9.9901469269778416e-06  1.0102568234777356e-05  1.0216343312918931e-05  1.0330446996713018e-05  1.0443810643369973e-05  1.0555363045639224e-05  1.0664097248743709e-05  1.0769242192954449e-05  1.0870421669755405e-05  1.0966967027790258e-05  1.1060201619515743e-05  1.1146647340904374e-05  1.1252848411373860e-05  1.1348587343645715e-05  1.1579861620540041e-05  1.1765384246426715e-05  1.2883101549443430e-05  1.4940761976765416e-05  2.3149420913527700e-05  1.8608907323242926e-02  1.9693716484176882e-01  4.1272059953991203e-01  6.2815217801518353e-01  7.7692077431502315e-01  1.7597735473819031e-05  8.9551198825445159e-06  9.0155567802258546e-06  9.0367495905946645e-06  9.0638714781982292e-06  9.0992749815467564e-06  9.1429590725464084e-06  9.1947719453502429e-06  9.2545195794408443e-06  9.3219651490001605e-06  9.3968246427263119e-06  9.4787612608534317e-06  9.5673792704576744e-06  9.6622174696254815e-06  9.7627432056453930e-06  9.8683475853371837e-06  9.9783450823457568e-06  1.0091976103005725e-05  1.0208416747810289e-05  1.0326789530403040e-05  1.0446179863693304e-05  1.0565698916181773e-05  1.0684522687579721e-05  1.0802081963832908e-05  1.0917361886598915e-05  1.1030698613592539e-05  1.1138882151199020e-05  1.1259343586493541e-05  1.1369176994885254e-05  1.1570274015392874e-05  1.1724319995070219e-05  1.2781089778748778e-05  1.4575585362071669e-05  2.1669418389026687e-05  1.2339253199767988e-02  2.0817596699331661e-01  4.8656742651436402e-01  7.6721219910194938e-01  9.6167042994845020e-01  9.9989309429745565e-01  9.9984149115522913e-01  1.7658398404091394e-05  9.0298105697863820e-06  9.1050193516212356e-06  9.1274048583392796e-06  9.1551366539804302e-06  9.1912974063916525e-06  9.2359253326321669e-06  9.2888755080937096e-06  9.3499614354196890e-06  9.4189565467381397e-06  9.4955905225527723e-06  9.5795442006048838e-06  9.6704438559311003e-06  9.7678548356640144e-06  9.8712760830220707e-06  9.9801355417945978e-06  1.0093789559195090e-05  1.0211529077717438e-05  1.0332585940571697e-05  1.0456209222861527e-05  1.0581621798410679e-05  1.0708267266951556e-05  1.0835074239401007e-05  1.0961997155288095e-05  1.1086590770828973e-05  1.1219873670420966e-05  1.1347429518666350e-05  1.1537045866723676e-05  1.1706957684706390e-05  1.2588769397794288e-05  1.4220482828381415e-05  2.0207291521365887e-05  3.6160480440360071e-04  1.7841277424357846e-01  4.4806460832083800e-01  7.3510228920965681e-01  9.5073682207767740e-01  9.9989510249933777e-01  9.9994849681695097e-01  9.9996276804247586e-01  9.9993388367568803e-01  1.7727989787371396e-05  9.1164934011691855e-06  9.2092047554509276e-06  9.2330072599082130e-06  9.2614603073480699e-06  9.2985151119421669e-06  9.3442560927105472e-06  9.3985459993779990e-06  9.4612068933214461e-06  9.5320241550493981e-06  9.6107437023025454e-06  9.6970676359785106e-06  9.7906489154694642e-06  9.8910843883989404e-06  9.9979053260479587e-06  1.0110574497044647e-05  1.0228473401507413e-05  1.0350975041860210e-05  1.0477351024875221e-05  1.0607095245435369e-05  1.0739165400502442e-05  1.0873458612551014e-05  1.1008377497512137e-05  1.1150415523901471e-05  1.1293116940676150e-05  1.1476268520131731e-05  1.1668485022240487e-05  1.2420759548557579e-05  1.3983036649395329e-05  1.9016920181987640e-05  9.6043505607970830e-05  1.4325287677251633e-01  3.9692202150258710e-01  6.7199545428191687e-01  8.6852500863026760e-01  9.9812120102433943e-01  9.9986410050855057e-01  9.9992351706988947e-01  9.9994331517376134e-01  9.9994463838164027e-01  9.9990018649683743e-01  1.7807368382047446e-05  9.2166290062493584e-06  9.3300288855527687e-06  9.3555112269981744e-06  9.3848148230799485e-06  9.4229213315483823e-06  9.4699689580709841e-06  9.5258285999703682e-06  9.5903319294787993e-06  9.6632786426846200e-06  9.7444349017513323e-06  9.8335292193250372e-06  9.9302451717227316e-06  1.0034216570222894e-05  1.0145006208869273e-05  1.0262149513441852e-05  1.0385027218724382e-05  1.0513173494648084e-05  1.0645483323516403e-05  1.0781835878695281e-05  1.0921261973384969e-05  1.1067235575021935e-05  1.1219896022728896e-05  1.1395921650428475e-05  1.1606541044892518e-05  1.2241701837752081e-05  1.3747204586281775e-05  1.8057953682411430e-05  5.8701812461786439e-05  1.1474774032032306e-01  3.4750686079290405e-01  6.1156708520289071e-01  8.0965978272780825e-01  9.3016423134787740e-01  9.9583799017183550e-01  9.9968349573708604e-01  9.9978514204325386e-01  9.9967915365160942e-01  9.6336908347639527e-01  8.4221520338837719e-01  7.5286179218652582e-01  1.7897535538647589e-05  9.3319804368406001e-06  9.4698288429969897e-06  9.4973039986421899e-06  9.5276111152473622e-06  9.5669533635515281e-06  9.6155307965369325e-06  9.6732227432154437e-06  9.7398719868643229e-06  9.8152949777987840e-06  9.8992803593097657e-06  9.9915883208750301e-06  1.0091944733030320e-05  1.0200065848750105e-05  1.0315548434870006e-05  1.0438036267657542e-05  1.0566575231943613e-05  1.0701004239985492e-05  1.0840408681877017e-05  1.0986262384683479e-05  1.1143199679631845e-05  1.1309837239336543e-05  1.1531431692865715e-05  1.2053366624477865e-05  1.3499517846162367e-05  1.7190879478107965e-05  4.3083152119093608e-05  8.9989215090622188e-02  3.0567696459468652e-01  5.5862752548408812e-01  7.5965938533779087e-01  8.8377130783494484e-01  9.5030563562200965e-01  9.8282687645622402e-01  9.8588079760392910e-01  9.6326078914889479e-01  8.8179210221870152e-01  7.1281692317890344e-01  4.5685956274708006e-01  2.0326111794804572e-01  8.3898382509965938e-02  1.7999655976954103e-05  9.4646804559004402e-06  9.6314668753791669e-06  9.6613149687247055e-06  9.6928115342516657e-06  9.7336089424901431e-06  9.7839772630675526e-06  9.8438026300663380e-06  9.9129374971552471e-06  9.9912176153973510e-06  1.0078466392174612e-05  1.0174512488497223e-05  1.0279130457161571e-05  1.0392116906836842e-05  1.0512918583101872e-05  1.0641465844285112e-05  1.0777292466089340e-05  1.0920861072980321e-05  1.1078017179688244e-05  1.1234072571475868e-05  1.1458204491144073e-05  1.1870792539951298e-05  1.3253472040856967e-05  1.6388249072601868e-05  3.4216972605616527e-05  6.7448596631651370e-02  2.6884980064320230e-01  5.1268895071601128e-01  7.1662659526657024e-01  8.4389923138145140e-01  9.1414258861504050e-01  9.4810427660900864e-01  9.5341557498363627e-01  9.2967241538611611e-01  8.5368067882715826e-01  6.9865445362269918e-01  4.4625655692239097e-01  1.9511330492226969e-01  1.7002285032811822e-02  2.0066955858146507e-05  2.2678928613208080e-05  1.8115080347961640e-05  9.6173170331141179e-06  9.8184678964393904e-06  9.8511639137790286e-06  9.8840863379302156e-06  9.9266073380239102e-06  9.9790709358092765e-06  1.0041368292082093e-05  1.0113372758414757e-05  1.0194966505291864e-05  1.0285998703170253e-05  1.0386322652249994e-05  1.0495609410177830e-05  1.0614022758547964e-05  1.0741895265967870e-05  1.0879713337952394e-05  1.1032119448540096e-05  1.1181779781265902e-05  1.1403717882193760e-05  1.1716832029402013e-05  1.3035332887730840e-05  1.5664874249395097e-05  2.8479242109415486e-05  4.6379322290045377e-02  2.3537264788906337e-01  4.7183804117046185e-01  6.7951887583883841e-01  8.1010316469916877e-01  8.8393956262018947e-01  9.1941227923750202e-01  9.2601129480904631e-01  9.0396004576209321e-01  8.3607015177588928e-01  6.9736107560076832e-01  4.6339826135190548e-01  2.1225117586744027e-01  2.7857151669318986e-02  2.8095927864383449e-05  1.7819253696342888e-05  1.4101654068966112e-05  1.9948633762176378e-05  1.8245366246986500e-05  9.7930417295474799e-06  1.0035204838119214e-05  1.0071364084802316e-05  1.0106023745686274e-05  1.0150602805018344e-05  1.0205534836520391e-05  1.0270730220101915e-05  1.0346061199803116e-05  1.0431387836305352e-05  1.0526479632396609e-05  1.0631577612251530e-05  1.0747080915919800e-05  1.0873877933715124e-05  1.1014918134644433e-05  1.1159284490077642e-05  1.1366146820856055e-05  1.1618871451620988e-05  1.2883641883390581e-05  1.5062441654225445e-05  2.4578688052426575e-05  2.6700628938005497e-02  2.0441469399454396e-01  4.3477447767915839e-01  6.4724179470172816e-01  7.8176262584206435e-01  8.5941479076014138e-01  8.9648197655353112e-01  9.0446579915619341e-01  8.8346065953091424e-01  8.2143582998535536e-01  6.9538163131307318e-01  4.7990282604803391e-01  2.3402390348756513e-01  4.2471775205929922e-02  2.9830077815590184e-05  1.7615307841077509e-05  1.5822670404846348e-05  1.4440128299218538e-05  1.2576453861896851e-05  1.9872129496550841e-05  1.8392293720584580e-05  9.9956998662269345e-06  1.0287135643056576e-05  1.0327594303965791e-05  1.0364453831948902e-05  1.0411577995742093e-05  1.0469447868791088e-05  1.0537899579763947e-05  1.0616771760629792e-05  1.0706344978796578e-05  1.0807053684528914e-05  1.0919755170813691e-05  1.1044876511160175e-05  1.1177170690864012e-05  1.1357768278012602e-05  1.1594901907072093e-05  1.2738778087319384e-05  1.4573611101732783e-05  2.2070784163207296e-05  9.1606000051723882e-03  1.7595462997310046e-01  4.0082520076236378e-01  6.1887332342067514e-01  7.5823489098084218e-01  8.4021665330647299e-01  8.7911831474376378e-01  8.8867074650708600e-01  8.6855254251480618e-01  8.1090949082113584e-01  6.9439465731720595e-01  4.9490332398333725e-01  2.5492752302565114e-01  5.8918220579483878e-02  3.3337033743452825e-05  1.7369127545004075e-05  1.4981922044159475e-05  1.3825060844929663e-05  1.3379234691910296e-05  1.3108744327601846e-05  1.2070456086767369e-05  1.9690295342848318e-05  1.8557822747702387e-05  1.0229960724466932e-05  1.0581150275505026e-05  1.0627189410311961e-05  1.0666971312195164e-05  1.0717139193045315e-05  1.0778240939974754e-05  1.0850546049518821e-05  1.0934604349161487e-05  1.1031022853678863e-05  1.1138750265917551e-05  1.1256590549592106e-05  1.1411670942647413e-05  1.1636325299616764e-05  1.2595347677230304e-05  1.4237105195211640e-05  2.0439271291119010e-05  2.9145611247067930e-04  1.4998999199676033e-01  3.7036395228777430e-01  5.9358742984910118e-01  7.3878126834402225e-01  8.2582139873858917e-01  8.6700645460169856e-01  8.7840948367166882e-01  8.5921967474225991e-01  8.0511184134701386e-01  6.9601188858863516e-01  5.0992547135965882e-01  2.7494086909344984e-01  7.5253066526522805e-02  3.8922207850321743e-05  1.7476850765452597e-05  1.4445895782492709e-05  1.3224426835841576e-05  1.2756679268305598e-05  1.2599875015709457e-05  1.2510337022321475e-05  1.2399908159336808e-05  1.1608145321122953e-05  1.9435400486695015e-05  1.8744029058757393e-05  1.0501532676618147e-05  1.0926057226743143e-05  1.0979517531923523e-05  1.1023162454491548e-05  1.1077469229985217e-05  1.1143819766514705e-05  1.1222265188723552e-05  1.1311176530199640e-05  1.1411813045227470e-05  1.1542614691439797e-05  1.1753798053287272e-05  1.2565522841567515e-05  1.4082121211852699e-05  1.9244578850000072e-05  9.9057186956871016e-05  1.2747164542269487e-01  3.4268788028284813e-01  5.6934752101949149e-01  7.2293661989690550e-01  8.1520453778218682e-01  8.5949687169730582e-01  8.7318624235924036e-01  8.5518090092335597e-01  8.0421793410448450e-01  7.0121709921150333e-01  5.2661692848676722e-01  2.9534913322128586e-01  9.1605841693737214e-02  4.7682649278446310e-05  1.7834983164018319e-05  1.4162968501405509e-05  1.2852539434947489e-05  1.2285153010060817e-05  1.2112080363825631e-05  1.2026198076898231e-05  1.1962781212466764e-05  1.1902613747233771e-05  1.1817819062207784e-05  1.1182386184350632e-05  1.9183490861134710e-05  1.8952802340001825e-05  1.0816778950885844e-05  1.1332574605065102e-05  1.1397373998270849e-05  1.1448755387693832e-05  1.1509980341129957e-05  1.1580126330883996e-05  1.1661007253795262e-05  1.176790101