<?xml version="1.0"?>
<VTKFile type="UnstructuredGrid"  version="0.1"  >
<UnstructuredGrid>
<Piece  NumberOfPoints="1681" NumberOfCells="3200">
<Points>
<DataArray  type="Float64"  NumberOfComponents="3"  format="ascii">0 0 0  0.025 0 0  0.05 0 0  0.075 0 0  0.1 0 0  0.125 0 0  0.15 0 0  0.175 0 0  0.2 0 0  0.225 0 0  0.25 0 0  0.275 0 0  0.3 0 0  0.325 0 0  0.35 0 0  0.375 0 0  0.4 0 0  0.425 0 0  0.45 0 0  0.475 0 0  0.5 0 0  0.525 0 0  0.55 0 0  0.575 0 0  0.6 0 0  0.625 0 0  0.65 0 0  0.675 0 0  0.7 0 0  0.725 0 0  0.75 0 0  0.775 0 0  0.8 0 0  0.825 0 0  0.85 0 0  0.875 0 0  0.9 0 0  0.925 0 0  0.95 0 0  0.975 0 0  1 0 0  0 0.025 0  0.025 0.025 0  0.05 0.025 0  0.075 0.025 0  0.1 0.025 0  0.125 0.025 0  0.15 0.025 0  0.175 0.025 0  0.2 0.025 0  0.225 0.025 0  0.25 0.025 0  0.275 0.025 0  0.3 0.025 0  0.325 0.025 0  0.35 0.025 0  0.375 0.025 0  0.4 0.025 0  0.425 0.025 0  0.45 0.025 0  0.475 0.025 0  0.5 0.025 0  0.525 0.025 0  0.55 0.025 0  0.575 0.025 0  0.6 0.025 0  0.625 0.025 0  0.65 0.025 0  0.675 0.025 0  0.7 0.025 0  0.725 0.025 0  0.75 0.025 0  0.775 0.025 0  0.8 0.025 0  0.825 0.025 0  0.85 0.025 0  0.875 0.025 0  0.9 0.025 0  0.925 0.025 0  0.95 0.025 0  0.975 0.025 0  1 0.025 0  0 0.05 0  0.025 0.05 0  0.05 0.05 0  0.075 0.05 0  0.1 0.05 0  0.125 0.05 0  0.15 0.05 0  0.175 0.05 0  0.2 0.05 0  0.225 0.05 0  0.25 0.05 0  0.275 0.05 0  0.3 0.05 0  0.325 0.05 0  0.35 0.05 0  0.375 0.05 0  0.4 0.05 0  0.425 0.05 0  0.45 0.05 0  0.475 0.05 0  0.5 0.05 0  0.525 0.05 0  0.55 0.05 0  0.575 0.05 0  0.6 0.05 0  0.625 0.05 0  0.65 0.05 0  0.675 0.05 0  0.7 0.05 0  0.725 0.05 0  0.75 0.05 0  0.775 0.05 0  0.8 0.05 0  0.825 0.05 0  0.85 0.05 0  0.875 0.05 0  0.9 0.05 0  0.925 0.05 0  0.95 0.05 0  0.975 0.05 0  1 0.05 0  0 0.075 0  0.025 0.075 0  0.05 0.075 0  0.075 0.075 0  0.1 0.075 0  0.125 0.075 0  0.15 0.075 0  0.175 0.075 0  0.2 0.075 0  0.225 0.075 0  0.25 0.075 0  0.275 0.075 0  0.3 0.075 0  0.325 0.075 0  0.35 0.075 0  0.375 0.075 0  0.4 0.075 0  0.425 0.075 0  0.45 0.075 0  0.475 0.075 0  0.5 0.075 0  0.525 0.075 0  0.55 0.075 0  0.575 0.075 0  0.6 0.075 0  0.625 0.075 0  0.65 0.075 0  0.675 0.075 0  0.7 0.075 0  0.725 0.075 0  0.75 0.075 0  0.775 0.075 0  0.8 0.075 0  0.825 0.075 0  0.85 0.075 0  0.875 0.075 0  0.9 0.075 0  0.925 0.075 0  0.95 0.075 0  0.975 0.075 0  1 0.075 0  0 0.1 0  0.025 0.1 0  0.05 0.1 0  0.075 0.1 0  0.1 0.1 0  0.125 0.1 0  0.15 0.1 0  0.175 0.1 0  0.2 0.1 0  0.225 0.1 0  0.25 0.1 0  0.275 0.1 0  0.3 0.1 0  0.325 0.1 0  0.35 0.1 0  0.375 0.1 0  0.4 0.1 0  0.425 0.1 0  0.45 0.1 0  0.475 0.1 0  0.5 0.1 0  0.525 0.1 0  0.55 0.1 0  0.575 0.1 0  0.6 0.1 0  0.625 0.1 0  0.65 0.1 0  0.675 0.1 0  0.7 0.1 0  0.725 0.1 0  0.75 0.1 0  0.775 0.1 0  0.8 0.1 0  0.825 0.1 0  0.85 0.1 0  0.875 0.1 0  0.9 0.1 0  0.925 0.1 0  0.95 0.1 0  0.975 0.1 0  1 0.1 0  0 0.125 0  0.025 0.125 0  0.05 0.125 0  0.075 0.125 0  0.1 0.125 0  0.125 0.125 0  0.15 0.125 0  0.175 0.125 0  0.2 0.125 0  0.225 0.125 0  0.25 0.125 0  0.275 0.125 0  0.3 0.125 0  0.325 0.125 0  0.35 0.125 0  0.375 0.125 0  0.4 0.125 0  0.425 0.125 0  0.45 0.125 0  0.475 0.125 0  0.5 0.125 0  0.525 0.125 0  0.55 0.125 0  0.575 0.125 0  0.6 0.125 0  0.625 0.125 0  0.65 0.125 0  0.675 0.125 0  0.7 0.125 0  0.725 0.125 0  0.75 0.125 0  0.775 0.125 0  0.8 0.125 0  0.825 0.125 0  0.85 0.125 0  0.875 0.125 0  0.9 0.125 0  0.925 0.125 0  0.95 0.125 0  0.975 0.125 0  1 0.125 0  0 0.15 0  0.025 0.15 0  0.05 0.15 0  0.075 0.15 0  0.1 0.15 0  0.125 0.15 0  0.15 0.15 0  0.175 0.15 0  0.2 0.15 0  0.225 0.15 0  0.25 0.15 0  0.275 0.15 0  0.3 0.15 0  0.325 0.15 0  0.35 0.15 0  0.375 0.15 0  0.4 0.15 0  0.425 0.15 0  0.45 0.15 0  0.475 0.15 0  0.5 0.15 0  0.525 0.15 0  0.55 0.15 0  0.575 0.15 0  0.6 0.15 0  0.625 0.15 0  0.65 0.15 0  0.675 0.15 0  0.7 0.15 0  0.725 0.15 0  0.75 0.15 0  0.775 0.15 0  0.8 0.15 0  0.825 0.15 0  0.85 0.15 0  0.875 0.15 0  0.9 0.15 0  0.925 0.15 0  0.95 0.15 0  0.975 0.15 0  1 0.15 0  0 0.175 0  0.025 0.175 0  0.05 0.175 0  0.075 0.175 0  0.1 0.175 0  0.125 0.175 0  0.15 0.175 0  0.175 0.175 0  0.2 0.175 0  0.225 0.175 0  0.25 0.175 0  0.275 0.175 0  0.3 0.175 0  0.325 0.175 0  0.35 0.175 0  0.375 0.175 0  0.4 0.175 0  0.425 0.175 0  0.45 0.175 0  0.475 0.175 0  0.5 0.175 0  0.525 0.175 0  0.55 0.175 0  0.575 0.175 0  0.6 0.175 0  0.625 0.175 0  0.65 0.175 0  0.675 0.175 0  0.7 0.175 0  0.725 0.175 0  0.75 0.175 0  0.775 0.175 0  0.8 0.175 0  0.825 0.175 0  0.85 0.175 0  0.875 0.175 0  0.9 0.175 0  0.925 0.175 0  0.95 0.175 0  0.975 0.175 0  1 0.175 0  0 0.2 0  0.025 0.2 0  0.05 0.2 0  0.075 0.2 0  0.1 0.2 0  0.125 0.2 0  0.15 0.2 0  0.175 0.2 0  0.2 0.2 0  0.225 0.2 0  0.25 0.2 0  0.275 0.2 0  0.3 0.2 0  0.325 0.2 0  0.35 0.2 0  0.375 0.2 0  0.4 0.2 0  0.425 0.2 0  0.45 0.2 0  0.475 0.2 0  0.5 0.2 0  0.525 0.2 0  0.55 0.2 0  0.575 0.2 0  0.6 0.2 0  0.625 0.2 0  0.65 0.2 0  0.675 0.2 0  0.7 0.2 0  0.725 0.2 0  0.75 0.2 0  0.775 0.2 0  0.8 0.2 0  0.825 0.2 0  0.85 0.2 0  0.875 0.2 0  0.9 0.2 0  0.925 0.2 0  0.95 0.2 0  0.975 0.2 0  1 0.2 0  0 0.225 0  0.025 0.225 0  0.05 0.225 0  0.075 0.225 0  0.1 0.225 0  0.125 0.225 0  0.15 0.225 0  0.175 0.225 0  0.2 0.225 0  0.225 0.225 0  0.25 0.225 0  0.275 0.225 0  0.3 0.225 0  0.325 0.225 0  0.35 0.225 0  0.375 0.225 0  0.4 0.225 0  0.425 0.225 0  0.45 0.225 0  0.475 0.225 0  0.5 0.225 0  0.525 0.225 0  0.55 0.225 0  0.575 0.225 0  0.6 0.225 0  0.625 0.225 0  0.65 0.225 0  0.675 0.225 0  0.7 0.225 0  0.725 0.225 0  0.75 0.225 0  0.775 0.225 0  0.8 0.225 0  0.825 0.225 0  0.85 0.225 0  0.875 0.225 0  0.9 0.225 0  0.925 0.225 0  0.95 0.225 0  0.975 0.225 0  1 0.225 0  0 0.25 0  0.025 0.25 0  0.05 0.25 0  0.075 0.25 0  0.1 0.25 0  0.125 0.25 0  0.15 0.25 0  0.175 0.25 0  0.2 0.25 0  0.225 0.25 0  0.25 0.25 0  0.275 0.25 0  0.3 0.25 0  0.325 0.25 0  0.35 0.25 0  0.375 0.25 0  0.4 0.25 0  0.425 0.25 0  0.45 0.25 0  0.475 0.25 0  0.5 0.25 0  0.525 0.25 0  0.55 0.25 0  0.575 0.25 0  0.6 0.25 0  0.625 0.25 0  0.65 0.25 0  0.675 0.25 0  0.7 0.25 0  0.725 0.25 0  0.75 0.25 0  0.775 0.25 0  0.8 0.25 0  0.825 0.25 0  0.85 0.25 0  0.875 0.25 0  0.9 0.25 0  0.925 0.25 0  0.95 0.25 0  0.975 0.25 0  1 0.25 0  0 0.275 0  0.025 0.275 0  0.05 0.275 0  0.075 0.275 0  0.1 0.275 0  0.125 0.275 0  0.15 0.275 0  0.175 0.275 0  0.2 0.275 0  0.225 0.275 0  0.25 0.275 0  0.275 0.275 0  0.3 0.275 0  0.325 0.275 0  0.35 0.275 0  0.375 0.275 0  0.4 0.275 0  0.425 0.275 0  0.45 0.275 0  0.475 0.275 0  0.5 0.275 0  0.525 0.275 0  0.55 0.275 0  0.575 0.275 0  0.6 0.275 0  0.625 0.275 0  0.65 0.275 0  0.675 0.275 0  0.7 0.275 0  0.725 0.275 0  0.75 0.275 0  0.775 0.275 0  0.8 0.275 0  0.825 0.275 0  0.85 0.275 0  0.875 0.275 0  0.9 0.275 0  0.925 0.275 0  0.95 0.275 0  0.975 0.275 0  1 0.275 0  0 0.3 0  0.025 0.3 0  0.05 0.3 0  0.075 0.3 0  0.1 0.3 0  0.125 0.3 0  0.15 0.3 0  0.175 0.3 0  0.2 0.3 0  0.225 0.3 0  0.25 0.3 0  0.275 0.3 0  0.3 0.3 0  0.325 0.3 0  0.35 0.3 0  0.375 0.3 0  0.4 0.3 0  0.425 0.3 0  0.45 0.3 0  0.475 0.3 0  0.5 0.3 0  0.525 0.3 0  0.55 0.3 0  0.575 0.3 0  0.6 0.3 0  0.625 0.3 0  0.65 0.3 0  0.675 0.3 0  0.7 0.3 0  0.725 0.3 0  0.75 0.3 0  0.775 0.3 0  0.8 0.3 0  0.825 0.3 0  0.85 0.3 0  0.875 0.3 0  0.9 0.3 0  0.925 0.3 0  0.95 0.3 0  0.975 0.3 0  1 0.3 0  0 0.325 0  0.025 0.325 0  0.05 0.325 0  0.075 0.325 0  0.1 0.325 0  0.125 0.325 0  0.15 0.325 0  0.175 0.325 0  0.2 0.325 0  0.225 0.325 0  0.25 0.325 0  0.275 0.325 0  0.3 0.325 0  0.325 0.325 0  0.35 0.325 0  0.375 0.325 0  0.4 0.325 0  0.425 0.325 0  0.45 0.325 0  0.475 0.325 0  0.5 0.325 0  0.525 0.325 0  0.55 0.325 0  0.575 0.325 0  0.6 0.325 0  0.625 0.325 0  0.65 0.325 0  0.675 0.325 0  0.7 0.325 0  0.725 0.325 0  0.75 0.325 0  0.775 0.325 0  0.8 0.325 0  0.825 0.325 0  0.85 0.325 0  0.875 0.325 0  0.9 0.325 0  0.925 0.325 0  0.95 0.325 0  0.975 0.325 0  1 0.325 0  0 0.35 0  0.025 0.35 0  0.05 0.35 0  0.075 0.35 0  0.1 0.35 0  0.125 0.35 0  0.15 0.35 0  0.175 0.35 0  0.2 0.35 0  0.225 0.35 0  0.25 0.35 0  0.275 0.35 0  0.3 0.35 0  0.325 0.35 0  0.35 0.35 0  0.375 0.35 0  0.4 0.35 0  0.425 0.35 0  0.45 0.35 0  0.475 0.35 0  0.5 0.35 0  0.525 0.35 0  0.55 0.35 0  0.575 0.35 0  0.6 0.35 0  0.625 0.35 0  0.65 0.35 0  0.675 0.35 0  0.7 0.35 0  0.725 0.35 0  0.75 0.35 0  0.775 0.35 0  0.8 0.35 0  0.825 0.35 0  0.85 0.35 0  0.875 0.35 0  0.9 0.35 0  0.925 0.35 0  0.95 0.35 0  0.975 0.35 0  1 0.35 0  0 0.375 0  0.025 0.375 0  0.05 0.375 0  0.075 0.375 0  0.1 0.375 0  0.125 0.375 0  0.15 0.375 0  0.175 0.375 0  0.2 0.375 0  0.225 0.375 0  0.25 0.375 0  0.275 0.375 0  0.3 0.375 0  0.325 0.375 0  0.35 0.375 0  0.375 0.375 0  0.4 0.375 0  0.425 0.375 0  0.45 0.375 0  0.475 0.375 0  0.5 0.375 0  0.525 0.375 0  0.55 0.375 0  0.575 0.375 0  0.6 0.375 0  0.625 0.375 0  0.65 0.375 0  0.675 0.375 0  0.7 0.375 0  0.725 0.375 0  0.75 0.375 0  0.775 0.375 0  0.8 0.375 0  0.825 0.375 0  0.85 0.375 0  0.875 0.375 0  0.9 0.375 0  0.925 0.375 0  0.95 0.375 0  0.975 0.375 0  1 0.375 0  0 0.4 0  0.025 0.4 0  0.05 0.4 0  0.075 0.4 0  0.1 0.4 0  0.125 0.4 0  0.15 0.4 0  0.175 0.4 0  0.2 0.4 0  0.225 0.4 0  0.25 0.4 0  0.275 0.4 0  0.3 0.4 0  0.325 0.4 0  0.35 0.4 0  0.375 0.4 0  0.4 0.4 0  0.425 0.4 0  0.45 0.4 0  0.475 0.4 0  0.5 0.4 0  0.525 0.4 0  0.55 0.4 0  0.575 0.4 0  0.6 0.4 0  0.625 0.4 0  0.65 0.4 0  0.675 0.4 0  0.7 0.4 0  0.725 0.4 0  0.75 0.4 0  0.775 0.4 0  0.8 0.4 0  0.825 0.4 0  0.85 0.4 0  0.875 0.4 0  0.9 0.4 0  0.925 0.4 0  0.95 0.4 0  0.975 0.4 0  1 0.4 0  0 0.425 0  0.025 0.425 0  0.05 0.425 0  0.075 0.425 0  0.1 0.425 0  0.125 0.425 0  0.15 0.425 0  0.175 0.425 0  0.2 0.425 0  0.225 0.425 0  0.25 0.425 0  0.275 0.425 0  0.3 0.425 0  0.325 0.425 0  0.35 0.425 0  0.375 0.425 0  0.4 0.425 0  0.425 0.425 0  0.45 0.425 0  0.475 0.425 0  0.5 0.425 0  0.525 0.425 0  0.55 0.425 0  0.575 0.425 0  0.6 0.425 0  0.625 0.425 0  0.65 0.425 0  0.675 0.425 0  0.7 0.425 0  0.725 0.425 0  0.75 0.425 0  0.775 0.425 0  0.8 0.425 0  0.825 0.425 0  0.85 0.425 0  0.875 0.425 0  0.9 0.425 0  0.925 0.425 0  0.95 0.425 0  0.975 0.425 0  1 0.425 0  0 0.45 0  0.02
[...]
<PointData  Scalars="ControlVisualisation"> 
<DataArray  type="Float64"  Name="ControlVisualisation"  format="ascii">6.9846894673035190e-07  4.6234569949887691e-07  4.6244407011133295e-07  4.6261099536459495e-07  4.6284452152279310e-07  4.6314284654598527e-07  4.6350349403973856e-07  4.6392348193823708e-07  4.6439934269786536e-07  4.6492714133503676e-07  4.6550250126048322e-07  4.6612062109091382e-07  4.6677628898272290e-07  4.6746389358730699e-07  4.6817740845878128e-07  4.6891038634590926e-07  4.6965589995688294e-07  4.7040649631290772e-07  4.7115407125577036e-07  4.7188974585657239e-07  4.7260366973161847e-07  4.7328476779806835e-07  4.7392043749806585e-07  4.7449617775705478e-07  4.7499514754902757e-07  4.7539766876658196e-07  4.7568067714312893e-07  4.7581722569164854e-07  4.7577618998319252e-07  4.7552255373357146e-07  4.7501890829179622e-07  4.7422939875823194e-07  4.7312696654826580e-07  4.7170571995115226e-07  4.6999838756437654e-07  4.6809555121766722e-07  4.6615925775820385e-07  4.6441619705270493e-07  4.6312081665751518e-07  4.6244131425918870e-07  1.4069335774849608e-06  4.6234577462013636e-07  2.2620815074627742e-07  2.2630603307015545e-07  2.2648049588650624e-07  2.2673222469854785e-07  2.2705944367490218e-07  2.2745974606039187e-07  2.2793023435227619e-07  2.2846747623735627e-07  2.2906751867731261e-07  2.2972589820567199e-07  2.3043764174118989e-07  2.3119726362048692e-07  2.3199875717819260e-07  2.3283556508716135e-07  2.3370054656003047e-07  2.3458590949275127e-07  2.3548312599142239e-07  2.3638279983661224e-07  2.3727449093804334e-07  2.3814649624041428e-07  2.3898554801242454e-07  2.3977645593737785e-07  2.4050168584054154e-07  2.4114086633357938e-07  2.4167024018830934e-07  2.4206210063321756e-07  2.4228426882193811e-07  2.4229983559048364e-07  2.4206753202541209e-07  2.4154352730245134e-07  2.4068561758315312e-07  2.3946105694715740e-07  2.3786012329346138e-07  2.3591420205903830e-07  2.3371639535275553e-07  2.3143809997438064e-07  2.2933111551965725e-07  2.2767945340930052e-07  2.2666182583401270e-07  4.6244326890701834e-07  4.6244495716737534e-07  2.2630669410944700e-07  2.2643028214275154e-07  2.2663040174086707e-07  2.2691971174577456e-07  2.2729667691668758e-07  2.2775868059352305e-07  2.2830250463440955e-07  2.2892432693849290e-07  2.2961973900968658e-07  2.3038374739671962e-07  2.3121077107133392e-07  2.3209463780730130e-07  2.3302856359984045e-07  2.3400512441301208e-07  2.3501620874558678e-07  2.3605295451071809e-07  2.3710563828098115e-07  2.3816354555907587e-07  2.3921476765470010e-07  2.4024595988714764e-07  2.4124201117061377e-07  2.4218565518640843e-07  2.4305701935311887e-07  2.4383312131793670e-07  2.4448731046107865e-07  2.4498871913152557e-07  2.4530173310129920e-07  2.4538575694149000e-07  2.4519542093996819e-07  2.4468231594503744e-07  2.4379789811974642e-07  2.4250308085874610e-07  2.4078052121152308e-07  2.3865437872501979e-07  2.3621726314945989e-07  2.3364324412310640e-07  2.3120255385685575e-07  2.2921511503259854e-07  2.2777839277055552e-07  4.6316571567170412e-07  4.6261525572077389e-07  2.2648421744955911e-07  2.2663381295200222e-07  2.2683673959751969e-07  2.2712855637413871e-07  2.2750875633893265e-07  2.2797479393417677e-07  2.2852342336723795e-07  2.2915080092127655e-07  2.2985249775365981e-07  2.3062350580313742e-07  2.3145823662067093e-07  2.3235052413447803e-07  2.3329361174217531e-07  2.3428012897358207e-07  2.3530206165276748e-07  2.3635069980747592e-07  2.3741655219038784e-07  2.3848924186879382e-07  2.3955733530334842e-07  2.4060812690402626e-07  2.4162735704786559e-07  2.4259887430534527e-07  2.4350426550486127e-07  2.4432246270331172e-07  2.4502934652855261e-07  2.4559746539629881e-07  2.4599570649503903e-07  2.4618918076887108e-07  2.4613842096547461e-07  2.4580123177999850e-07  2.4513233324041274e-07  2.4409855138908163e-07  2.4266918951276369e-07  2.4085512086863793e-07  2.3873268462142584e-07  2.3640074952462750e-07  2.3400443103803507e-07  2.3185733929933043e-07  2.2992322037081921e-07  4.6477263385787637e-07  4.6285783019555854e-07  2.2674467155033171e-07  2.2693297057986823e-07  2.2713845346613293e-07  2.2743116809039839e-07  2.2781239483042486e-07  2.2827967400696164e-07  2.2882974828420428e-07  2.2945877117368448e-07  2.3016231526104216e-07  2.3093538873591803e-07  2.3177244043424457e-07  2.3266736246620756e-07  2.3361349348274989e-07  2.3460360474146945e-07  2.3562988968664829e-07  2.3668393950624321e-07  2.3775668991303260e-07  2.3883835202845050e-07  2.3991830205894690e-07  2.4098489986080884e-07  2.4202527025729017e-07  2.4302503166390347e-07  2.4396800531208209e-07  2.4483604346205664e-07  2.4560891679255663e-07  2.4626445987176134e-07  2.4677828543402753e-07  2.4712417861904764e-07  2.4727375837650942e-07  2.4720134166790982e-07  2.4687720013989046e-07  2.4627349220679437e-07  2.4534620932028923e-07  2.4409217815058628e-07  2.4258421945600781e-07  2.4101751082218936e-07  2.3930292687217342e-07  2.3731202582331829e-07  2.3382645657502786e-07  4.6751481543896083e-07  4.6317529695524975e-07  2.2709107182224130e-07  2.2733173266549414e-07  2.2754057902518133e-07  2.2783433651335200e-07  2.2821674516242753e-07  2.2868543908888583e-07  2.2923715114094411e-07  2.2986802965595444e-07  2.3057365208335865e-07  2.3134904801471064e-07  2.3218871296534148e-07  2.3308661733723390e-07  2.3403621734926139e-07  2.3503046291274951e-07  2.3606180231793306e-07  2.3712219658165903e-07  2.3820311993447670e-07  2.3929553211552028e-07  2.4038984138258377e-07  2.4147577855857619e-07  2.4254222462267448e-07  2.4357701459479562e-07  2.4456679443470254e-07  2.4549699773531992e-07  2.4635190506636986e-07  2.4711495314291268e-07  2.4777100265593875e-07  2.4830807148852686e-07  2.4872054778917021e-07  2.4899235711691594e-07  2.4912240035015846e-07  2.4902972568308608e-07  2.4898444928513473e-07  2.4871432838809343e-07  2.4854220995026190e-07  2.5012240328667057e-07  2.5171808228121246e-07  2.4838723721757920e-07  2.3788436950927774e-07  4.6824155304938349e-07  4.6357092689678421e-07  2.2752738087457920e-07  2.2783483951294161e-07  2.2804798128120905e-07  2.2834301202737006e-07  2.2872684716105027e-07  2.2919724775223279e-07  2.2975093420246176e-07  2.3038404534705159e-07  2.3109216654846578e-07  2.3187035504102727e-07  2.3271316140914902e-07  2.3361464547843412e-07  2.3456839881340280e-07  2.3556756758104403e-07  2.3660488535031152e-07  2.3767272634206721e-07  2.3876317677317684e-07  2.3986807657134659e-07  2.4097905938525965e-07  2.4208749743383836e-07  2.4318444562749298e-07  2.4426039661430101e-07  2.4530527865253712e-07  2.4630756622911468e-07  2.4725691821167978e-07  2.4814327431255110e-07  2.4896856269641049e-07  2.4972390291847976e-07  2.5043074911366284e-07  2.5103738389842973e-07  2.5189260483827922e-07  2.5262970819106348e-07  2.5499089875975066e-07  2.5695388843780439e-07  2.6164550257030168e-07  2.8200275946123396e-07  3.0726160254613063e-07  3.1388332790574144e-07  2.9462133397842405e-07  4.9158866190683732e-07  4.6404885385303052e-07  2.2805872814839489e-07  2.2844837285234563e-07  2.2866677478105717e-07  2.2896329221567826e-07  2.2934877273831555e-07  2.2982113880040013e-07  2.3037709669542064e-07  2.3101277365758103e-07  2.3172376328192987e-07  2.3250515832803343e-07  2.3335157473255978e-07  2.3425717301248629e-07  2.3521568875507464e-07  2.3622046722659366e-07  2.3726452514015417e-07  2.3834065665428382e-07  2.3944158382706325e-07  2.4056010671268600e-07  2.4168928824790373e-07  2.4282245717815042e-07  2.4395328809824950e-07  2.4507483106188731e-07  2.4618096339722160e-07  2.4726315432187110e-07  2.4832291661543612e-07  2.4934435035001549e-07  2.5034084581914259e-07  2.5128092792429001e-07  2.5240745987342820e-07  2.5355282849957059e-07  2.5608433708172868e-07  2.5811905065479149e-07  2.7219941802312000e-07  3.0446092377031487e-07  3.7031430168971688e-07  6.9359530689864704e-07  1.8850000368681896e-02  1.2329819040338058e-01  2.1384822781921345e-01  1.2416731929883085e-01  4.6461415204800761e-07  2.2869147502854654e-07  2.2917989406095636e-07  2.2940456639189599e-07  2.2970275463040756e-07  2.3009005394973460e-07  2.3056458335297665e-07  2.3112303193670957e-07  2.3176151776852353e-07  2.3247564793648692e-07  2.3326055901053402e-07  2.3411094688146824e-07  2.3502108796665303e-07  2.3598486146961701e-07  2.3699579382139951e-07  2.3804714278695060e-07  2.3913205419593882e-07  2.4024385936274192e-07  2.4137636096595207e-07  2.4252419570362376e-07  2.4368270228187364e-07  2.4484863394457005e-07  2.4601858089328943e-07  2.4719459746550546e-07  2.4836750393664854e-07  2.4954052145709019e-07  2.5068011630179463e-07  2.5187770413129576e-07  2.5320978495320655e-07  2.5524518672204330e-07  2.5746024150339296e-07  2.7057895887915970e-07  3.0389371760817907e-07  4.0802988334219970e-07  1.4633232320865632e-06  1.5748595858219197e-01  4.3865749797789477e-01  7.3733199335310839e-01  9.9996089503336294e-01  9.9999895645091041e-01  9.9999847942033260e-01  4.6527293210482396e-07  2.2943337610586424e-07  2.3003864950001076e-07  2.3027065235810511e-07  2.3057064665873161e-07  2.3095986461142243e-07  2.3143665802953539e-07  2.3199769891202047e-07  2.3263909545713939e-07  2.3335648075377786e-07  2.3414505702336702e-07  2.3499962402112848e-07  2.3591459287144916e-07  2.3688399100951780e-07  2.3790147956987831e-07  2.3896046859031994e-07  2.4005430671425496e-07  2.4117673913609635e-07  2.4232234048241161e-07  2.4348725444480592e-07  2.4466984367495460e-07  2.4587178377942243e-07  2.4709526564525976e-07  2.4833905260956569e-07  2.4960329871711457e-07  2.5087790032088942e-07  2.5241077121039500e-07  2.5397878345375008e-07  2.5643836406032752e-07  2.6506967948148765e-07  2.9505239635534096e-07  3.8888414411228308e-07  1.2407651620826379e-06  1.6987207476873897e-01  5.0992716559908013e-01  9.0325570197038929e-01  9.9999889180665147e-01  9.9999952271071946e-01  9.9999969447265336e-01  9.9999978558248570e-01  9.9999957946087059e-01  4.6603247047792072e-07  2.3029377921372516e-07  2.3103581700802125e-07  2.3127626830192702e-07  2.3157813580628579e-07  2.3196926633708276e-07  2.3244828033090872e-07  2.3301182931231130e-07  2.3365602249323860e-07  2.3437653807330326e-07  2.3516868161804803e-07  2.3602740204229974e-07  2.3694729506392912e-07  2.3792256055549011e-07  2.3894696997173115e-07  2.4001386989320714e-07  2.4111639091655054e-07  2.4224804547077709e-07  2.4340464542799679e-07  2.4458404890426215e-07  2.4578961543479716e-07  2.4701796798459971e-07  2.4829183598790447e-07  2.4958232075814593e-07  2.5117177750963450e-07  2.5257145171476008e-07  2.5550170431140125e-07  2.6004025604673655e-07  2.8619312912102774e-07  3.5698895065778739e-07  7.9838872351472722e-07  1.2592488286265091e-01  4.6316338282278635e-01  8.7259522964634040e-01  9.9999877291606265e-01  9.9999946712485843e-01  9.9999966436210730e-01  9.9999976797906631e-01  9.9999982621639194e-01  9.9999986032957999e-01  9.9999973545646947e-01  4.6690136721379997e-07  2.3128387896193943e-07  2.3218483023674569e-07  2.3243491909741459e-07  2.3273863867395038e-07  2.3313152686774346e-07  2.3361250715045981e-07  2.3417820536400634e-07  2.3482474540940113e-07  2.3554789018665796e-07  2.3634311672902764e-07  2.3720562720552017e-07  2.3813031290396438e-07  2.3911158661748195e-07  2.4014330031672101e-07  2.4121824459174656e-07  2.4232954551356319e-07  2.4346902061737133e-07  2.4463522772900605e-07  2.4581861393198242e-07  2.4703711085826341e-07  2.4827374394175866e-07  2.4973047487308787e-07  2.5109997723114337e-07  2.5377972478258522e-07  2.5628387536873583e-07  2.7969827718881804e-07  3.3090365507164973e-07  5.7917303966672010e-07  6.9937221857194309e-02  3.8195985724890452e-01  7.8774639461064921e-01  9.9999815351906596e-01  9.9999934212200858e-01  9.9999959273345684e-01  9.9999970721259446e-01  9.9999976312189431e-01  9.9999979231266123e-01  9.9999981037599950e-01  9.9999982178174607e-01  9.9999968043085974e-01  4.6788973604343028e-07  2.3241703565338346e-07  2.3350179277572861e-07  2.3376281165900228e-07  2.3406825688564802e-07  2.3446255362822093e-07  2.3494494651965393e-07  2.3551202098933633e-07  2.3615994037201609e-07  2.3688463706266532e-07  2.3768188561041345e-07  2.3854726938045392e-07  2.3947612992096094e-07  2.4046322988056262e-07  2.4150326006893398e-07  2.4258800477508212e-07  2.4371159265509338e-07  2.4485302728407446e-07  2.4601973084410105e-07  2.4719667817831474e-07  2.4849433283014694e-07  2.4981610568272327e-07  2.5183263970873093e-07  2.5398965498097509e-07  2.7159980030470029e-07  3.1003207899906567e-07  4.7498681028969068e-07  1.8886018195017742e-02  2.9753814505519044e-01  6.9105714264585250e-01  9.9999599805914852e-01  9.9999918097776908e-01  9.9999952031782446e-01  9.9999965284294234e-01  9.9999971145626454e-01  9.9999972534482218e-01  9.9999970748254496e-01  9.9999966532802531e-01  9.9999962738002823e-01  9.9999955055504697e-01  9.9999910336686970e-01  4.6900941107502215e-07  2.3370915739768587e-07  2.3500599723962882e-07  2.3527941323090548e-07  2.3558637066781697e-07  2.3598148582232260e-07  2.3646431554907095e-07  2.3703138669205149e-07  2.3767895459301019e-07  2.3840320329734770e-07  2.3920035560136416e-07  2.4006663601387454e-07  2.4099862435803642e-07  2.4199206402411787e-07  2.4304300212288687e-07  2.4413843705969804e-07  2.4527515342191339e-07  2.4642282686023400e-07  2.4762072079443131e-07  2.4891700713835196e-07  2.5042440808023672e-07  2.5258341938428717e-07  2.6378073655137358e-07  2.9581810688045599e-07  4.1146127958386732e-07  2.6188377942595287e-06  2.2272362073231924e-01  5.9463619297174430e-01  9.8737353218875723e-01  9.9999895926489990e-01  9.9999944471529234e-01  9.9999960621688411e-01  9.9999967934707756e-01  9.9999969242728426e-01  9.9999965822969039e-01  9.9999956839673676e-01  9.9999937786993642e-01  9.9999861770821330e-01  8.5240534640757104e-01  4.1966223090208499e-01  2.4074361425514257e-01  4.7027415705804487e-07  2.3517915017927958e-07  2.3672057516469477e-07  2.3700818570793742e-07  2.3731643347020876e-07  2.3771154017420098e-07  2.3819329704310880e-07  2.3875807671767514e-07  2.3940224388517730e-07  2.4012246146496941e-07  2.4091608210940128e-07  2.4178070330808779e-07  2.4271391478204127e-07  2.4371043838607519e-07  2.4476875200816954e-07  2.4589163227850933e-07  2.4708150926455272e-07  2.4841795758090742e-07  2.4957845823668743e-07  2.5175383110372801e-07  2.5833292068285770e-07  2.8632661298848569e-07  3.6884477813200032e-07  1.0250520288405726e-06  1.5629116572743074e-01  5.0552758024329281e-01  9.0315944482392418e-01  9.9999865608820104e-01  9.9999935533942041e-01  9.9999956004059565e-01  9.9999965464892471e-01  9.9999967564797609e-01  9.9999964351429138e-01  9.9999954411313430e-01  9.9999931897609318e-01  9.9999830836985404e-01  8.2290689710155285e-01  4.2899376997195804e-01  9.0283708574663959e-02  4.6302131217286939e-07  5.5781312127290082e-07  4.7169981429238337e-07  2.3684938896608460e-07  2.3867327052854248e-07  2.3897757355580928e-07  2.3928716733367589e-07  2.3968128024413075e-07  2.4015963687483554e-07  2.4071833603417815e-07  2.4135430985829064e-07  2.4206550872716980e-07  2.4284992444365714e-07  2.4370526290270262e-07  2.4463015183861937e-07  2.4563622477508537e-07  2.4673070897576402e-07  2.4800952079693282e-07  2.4919847033562822e-07  2.5150559734758672e-07  2.5482306665069225e-07  2.7956627658528372e-07  3.3958629893435532e-07  6.7656261367049987e-07  9.8611917115311309e-02  4.1981381620838076e-01  8.1492837812239982e-01  9.9999805159041577e-01  9.9999925651312382e-01  9.9999951732593895e-01  9.9999962933044417e-01  9.9999966279613151e-01  9.9999963889307186e-01  9.9999954340736008e-01  9.9999933103736549e-01  9.9999849111817374e-01  8.6461497455650838e-01  4.7013458931584795e-01  1.3815811337955000e-01  9.3637209091065827e-07  3.7677845815120277e-07  2.8547719543410743e-07  4.8895689788124442e-07  4.7330421292534296e-07  2.3874613293049872e-07  2.4089738449006354e-07  2.4122235535179396e-07  2.4153413147952671e-07  2.4192621389926129e-07  2.4239806532594693e-07  2.4294577836585886e-07  2.4356598069392240e-07  2.4425738758199770e-07  2.4501766077432866e-07  2.4586222844367923e-07  2.4679927120426773e-07  2.4788562216424840e-07  2.4897331000594472e-07  2.5082031766068216e-07  2.5328714583462130e-07  2.7551360121993808e-07  3.1927245177219152e-07  5.2475414547264622e-07  4.6653363433130243e-02  3.3932000448457289e-01  7.2847737898847642e-01  9.9999640936604395e-01  9.9999912460206863e-01  9.9999946629632874e-01  9.9999959960499973e-01  9.9999964858049673e-01  9.9999963500598699e-01  9.9999954704747251e-01  9.9999935620938918e-01  9.9999870194086804e-01  9.1863785478433713e-01  5.2623679631782394e-01  1.7814025740000766e-01  1.5256799580623475e-06  4.1327715087887216e-07  3.1727089718259098e-07  2.8625848423332584e-07  2.6321508581838127e-07  4.8868753526705972e-07  4.7510661173620982e-07  2.4089957285661805e-07  2.4343253700175584e-07  2.4378513727358050e-07  2.4410237508173461e-07  2.4449326535379976e-07  2.4495500622381409e-07  2.4548185384436564e-07  2.4606685243334390e-07  2.4672932723199934e-07  2.4747557699272339e-07  2.4835014970183735e-07  2.4928861910619061e-07  2.5065267376204748e-07  2.5283331474225606e-07  2.6844541563811538e-07  3.0325515657752086e-07  4.5034282691565858e-07  5.1700759794139420e-03  2.6869110575045146e-01  6.4153336036650499e-01  9.9997645457895623e-01  9.9999894635558140e-01  9.9999940840445878e-01  9.9999956708622606e-01  9.9999963372759759e-01  9.9999963071791942e-01  9.9999955386698569e-01  9.9999938441019443e-01  9.9999885884083606e-01  9.7253930055166327e-01  5.8870572934696663e-01  2.2578584458171472e-01  4.1466581045157610e-06  4.4074583669363222e-07  3.1729640201456011e-07  2.8815448066388997e-07  2.7358690600805529e-07  2.6848932655196297e-07  2.5982522805280898e-07  4.8899426888263275e-07  4.7712526992578375e-07  2.4334256497766802e-07  2.4632557477635535e-07  2.4672069922408153e-07  2.4705259763379365e-07  2.4744304134743694e-07  2.4788164939930167e-07  2.4837923078568083e-07  2.4892982365969053e-07  2.4958955647164815e-07  2.5032259122222440e-07  2.5125901494903801e-07  2.5317459178472162e-07  2.6368150126907720e-07  2.9407513597166456e-07  3.9943335474360198e-07  1.8881926381104852e-06  2.0180507470885631e-01  5.6315590122471004e-01  9.4806763142083850e-01  9.9999873466338918e-01  9.9999934444750338e-01  9.9999953436587885e-01  9.9999962103592088e-01  9.9999962867435144e-01  9.9999956624232411e-01  9.9999941606499987e-01  9.9999898793742781e-01  9.9998807599635919e-01  6.5643702883896582e-01  2.8142215594325831e-01  1.5400688642147295e-02  4.8111313038300535e-07  3.1983388757956730e-07  2.8641090390738863e-07  2.6820431910852025e-07  2.6531737782819071e-07  2.6414927569702866e-07  2.6264379701210451e-07  2.5636180838090018e-07  4.8706442631451306e-07  4.7937300395946357e-07  2.4610870814437957e-07  2.4963171316540808e-07  2.5009609809466888e-07  2.5045538893186216e-07  2.5085793415906668e-07  2.5128959945570224e-07  2.5180050479605998e-07  2.5230066353252609e-07  2.5284424943851239e-07  2.5436609150149838e-07  2.6099578913521308e-07  2.8816403070091920e-07  3.6644519693282679e-07  9.7123292044058683e-07  1.4620159566817620e-01  4.8450995546731485e-01  8.7465835009743553e-01  9.9999840504181692e-01  9.9999928134788729e-01  9.9999950928474224e-01  9.9999961043495789e-01  9.9999962989464986e-01  9.9999958173799619e-01  9.9999944880905056e-01  9.9999910537944137e-01  9.9999625331770914e-01  7.2868743684933335e-01  3.4336952161216838e-01  5.2200235560153380e-02  5.5094396337210847e-07  3.2851609122892589e-07  2.8526232649747862e-07  2.6308363566341886e-07  2.6048448423433572e-07  2.5976954215310045e-07  2.5923586177696819e-07  2.5866321979106333e-07  2.5773703169838100e-07  2.5265136093004312e-07  4.8446008850615135e-07  4.8184402055971397e-07  2.4921634051338107e-07  2.5340132215046922e-07  2.5400487122775632e-07  2.5446283613855594e-07  2.5495762245582221e-07  2.5534206525579911e-07  2.5572964879966022e-07  2.567629432