<?xml version="1.0"?>
<VTKFile type="UnstructuredGrid"  version="0.1"  >
<UnstructuredGrid>
<Piece  NumberOfPoints="1681" NumberOfCells="3200">
<Points>
<DataArray  type="Float64"  NumberOfComponents="3"  format="ascii">0 0 0  0.025 0 0  0.05 0 0  0.075 0 0  0.1 0 0  0.125 0 0  0.15 0 0  0.175 0 0  0.2 0 0  0.225 0 0  0.25 0 0  0.275 0 0  0.3 0 0  0.325 0 0  0.35 0 0  0.375 0 0  0.4 0 0  0.425 0 0  0.45 0 0  0.475 0 0  0.5 0 0  0.525 0 0  0.55 0 0  0.575 0 0  0.6 0 0  0.625 0 0  0.65 0 0  0.675 0 0  0.7 0 0  0.725 0 0  0.75 0 0  0.775 0 0  0.8 0 0  0.825 0 0  0.85 0 0  0.875 0 0  0.9 0 0  0.925 0 0  0.95 0 0  0.975 0 0  1 0 0  0 0.025 0  0.025 0.025 0  0.05 0.025 0  0.075 0.025 0  0.1 0.025 0  0.125 0.025 0  0.15 0.025 0  0.175 0.025 0  0.2 0.025 0  0.225 0.025 0  0.25 0.025 0  0.275 0.025 0  0.3 0.025 0  0.325 0.025 0  0.35 0.025 0  0.375 0.025 0  0.4 0.025 0  0.425 0.025 0  0.45 0.025 0  0.475 0.025 0  0.5 0.025 0  0.525 0.025 0  0.55 0.025 0  0.575 0.025 0  0.6 0.025 0  0.625 0.025 0  0.65 0.025 0  0.675 0.025 0  0.7 0.025 0  0.725 0.025 0  0.75 0.025 0  0.775 0.025 0  0.8 0.025 0  0.825 0.025 0  0.85 0.025 0  0.875 0.025 0  0.9 0.025 0  0.925 0.025 0  0.95 0.025 0  0.975 0.025 0  1 0.025 0  0 0.05 0  0.025 0.05 0  0.05 0.05 0  0.075 0.05 0  0.1 0.05 0  0.125 0.05 0  0.15 0.05 0  0.175 0.05 0  0.2 0.05 0  0.225 0.05 0  0.25 0.05 0  0.275 0.05 0  0.3 0.05 0  0.325 0.05 0  0.35 0.05 0  0.375 0.05 0  0.4 0.05 0  0.425 0.05 0  0.45 0.05 0  0.475 0.05 0  0.5 0.05 0  0.525 0.05 0  0.55 0.05 0  0.575 0.05 0  0.6 0.05 0  0.625 0.05 0  0.65 0.05 0  0.675 0.05 0  0.7 0.05 0  0.725 0.05 0  0.75 0.05 0  0.775 0.05 0  0.8 0.05 0  0.825 0.05 0  0.85 0.05 0  0.875 0.05 0  0.9 0.05 0  0.925 0.05 0  0.95 0.05 0  0.975 0.05 0  1 0.05 0  0 0.075 0  0.025 0.075 0  0.05 0.075 0  0.075 0.075 0  0.1 0.075 0  0.125 0.075 0  0.15 0.075 0  0.175 0.075 0  0.2 0.075 0  0.225 0.075 0  0.25 0.075 0  0.275 0.075 0  0.3 0.075 0  0.325 0.075 0  0.35 0.075 0  0.375 0.075 0  0.4 0.075 0  0.425 0.075 0  0.45 0.075 0  0.475 0.075 0  0.5 0.075 0  0.525 0.075 0  0.55 0.075 0  0.575 0.075 0  0.6 0.075 0  0.625 0.075 0  0.65 0.075 0  0.675 0.075 0  0.7 0.075 0  0.725 0.075 0  0.75 0.075 0  0.775 0.075 0  0.8 0.075 0  0.825 0.075 0  0.85 0.075 0  0.875 0.075 0  0.9 0.075 0  0.925 0.075 0  0.95 0.075 0  0.975 0.075 0  1 0.075 0  0 0.1 0  0.025 0.1 0  0.05 0.1 0  0.075 0.1 0  0.1 0.1 0  0.125 0.1 0  0.15 0.1 0  0.175 0.1 0  0.2 0.1 0  0.225 0.1 0  0.25 0.1 0  0.275 0.1 0  0.3 0.1 0  0.325 0.1 0  0.35 0.1 0  0.375 0.1 0  0.4 0.1 0  0.425 0.1 0  0.45 0.1 0  0.475 0.1 0  0.5 0.1 0  0.525 0.1 0  0.55 0.1 0  0.575 0.1 0  0.6 0.1 0  0.625 0.1 0  0.65 0.1 0  0.675 0.1 0  0.7 0.1 0  0.725 0.1 0  0.75 0.1 0  0.775 0.1 0  0.8 0.1 0  0.825 0.1 0  0.85 0.1 0  0.875 0.1 0  0.9 0.1 0  0.925 0.1 0  0.95 0.1 0  0.975 0.1 0  1 0.1 0  0 0.125 0  0.025 0.125 0  0.05 0.125 0  0.075 0.125 0  0.1 0.125 0  0.125 0.125 0  0.15 0.125 0  0.175 0.125 0  0.2 0.125 0  0.225 0.125 0  0.25 0.125 0  0.275 0.125 0  0.3 0.125 0  0.325 0.125 0  0.35 0.125 0  0.375 0.125 0  0.4 0.125 0  0.425 0.125 0  0.45 0.125 0  0.475 0.125 0  0.5 0.125 0  0.525 0.125 0  0.55 0.125 0  0.575 0.125 0  0.6 0.125 0  0.625 0.125 0  0.65 0.125 0  0.675 0.125 0  0.7 0.125 0  0.725 0.125 0  0.75 0.125 0  0.775 0.125 0  0.8 0.125 0  0.825 0.125 0  0.85 0.125 0  0.875 0.125 0  0.9 0.125 0  0.925 0.125 0  0.95 0.125 0  0.975 0.125 0  1 0.125 0  0 0.15 0  0.025 0.15 0  0.05 0.15 0  0.075 0.15 0  0.1 0.15 0  0.125 0.15 0  0.15 0.15 0  0.175 0.15 0  0.2 0.15 0  0.225 0.15 0  0.25 0.15 0  0.275 0.15 0  0.3 0.15 0  0.325 0.15 0  0.35 0.15 0  0.375 0.15 0  0.4 0.15 0  0.425 0.15 0  0.45 0.15 0  0.475 0.15 0  0.5 0.15 0  0.525 0.15 0  0.55 0.15 0  0.575 0.15 0  0.6 0.15 0  0.625 0.15 0  0.65 0.15 0  0.675 0.15 0  0.7 0.15 0  0.725 0.15 0  0.75 0.15 0  0.775 0.15 0  0.8 0.15 0  0.825 0.15 0  0.85 0.15 0  0.875 0.15 0  0.9 0.15 0  0.925 0.15 0  0.95 0.15 0  0.975 0.15 0  1 0.15 0  0 0.175 0  0.025 0.175 0  0.05 0.175 0  0.075 0.175 0  0.1 0.175 0  0.125 0.175 0  0.15 0.175 0  0.175 0.175 0  0.2 0.175 0  0.225 0.175 0  0.25 0.175 0  0.275 0.175 0  0.3 0.175 0  0.325 0.175 0  0.35 0.175 0  0.375 0.175 0  0.4 0.175 0  0.425 0.175 0  0.45 0.175 0  0.475 0.175 0  0.5 0.175 0  0.525 0.175 0  0.55 0.175 0  0.575 0.175 0  0.6 0.175 0  0.625 0.175 0  0.65 0.175 0  0.675 0.175 0  0.7 0.175 0  0.725 0.175 0  0.75 0.175 0  0.775 0.175 0  0.8 0.175 0  0.825 0.175 0  0.85 0.175 0  0.875 0.175 0  0.9 0.175 0  0.925 0.175 0  0.95 0.175 0  0.975 0.175 0  1 0.175 0  0 0.2 0  0.025 0.2 0  0.05 0.2 0  0.075 0.2 0  0.1 0.2 0  0.125 0.2 0  0.15 0.2 0  0.175 0.2 0  0.2 0.2 0  0.225 0.2 0  0.25 0.2 0  0.275 0.2 0  0.3 0.2 0  0.325 0.2 0  0.35 0.2 0  0.375 0.2 0  0.4 0.2 0  0.425 0.2 0  0.45 0.2 0  0.475 0.2 0  0.5 0.2 0  0.525 0.2 0  0.55 0.2 0  0.575 0.2 0  0.6 0.2 0  0.625 0.2 0  0.65 0.2 0  0.675 0.2 0  0.7 0.2 0  0.725 0.2 0  0.75 0.2 0  0.775 0.2 0  0.8 0.2 0  0.825 0.2 0  0.85 0.2 0  0.875 0.2 0  0.9 0.2 0  0.925 0.2 0  0.95 0.2 0  0.975 0.2 0  1 0.2 0  0 0.225 0  0.025 0.225 0  0.05 0.225 0  0.075 0.225 0  0.1 0.225 0  0.125 0.225 0  0.15 0.225 0  0.175 0.225 0  0.2 0.225 0  0.225 0.225 0  0.25 0.225 0  0.275 0.225 0  0.3 0.225 0  0.325 0.225 0  0.35 0.225 0  0.375 0.225 0  0.4 0.225 0  0.425 0.225 0  0.45 0.225 0  0.475 0.225 0  0.5 0.225 0  0.525 0.225 0  0.55 0.225 0  0.575 0.225 0  0.6 0.225 0  0.625 0.225 0  0.65 0.225 0  0.675 0.225 0  0.7 0.225 0  0.725 0.225 0  0.75 0.225 0  0.775 0.225 0  0.8 0.225 0  0.825 0.225 0  0.85 0.225 0  0.875 0.225 0  0.9 0.225 0  0.925 0.225 0  0.95 0.225 0  0.975 0.225 0  1 0.225 0  0 0.25 0  0.025 0.25 0  0.05 0.25 0  0.075 0.25 0  0.1 0.25 0  0.125 0.25 0  0.15 0.25 0  0.175 0.25 0  0.2 0.25 0  0.225 0.25 0  0.25 0.25 0  0.275 0.25 0  0.3 0.25 0  0.325 0.25 0  0.35 0.25 0  0.375 0.25 0  0.4 0.25 0  0.425 0.25 0  0.45 0.25 0  0.475 0.25 0  0.5 0.25 0  0.525 0.25 0  0.55 0.25 0  0.575 0.25 0  0.6 0.25 0  0.625 0.25 0  0.65 0.25 0  0.675 0.25 0  0.7 0.25 0  0.725 0.25 0  0.75 0.25 0  0.775 0.25 0  0.8 0.25 0  0.825 0.25 0  0.85 0.25 0  0.875 0.25 0  0.9 0.25 0  0.925 0.25 0  0.95 0.25 0  0.975 0.25 0  1 0.25 0  0 0.275 0  0.025 0.275 0  0.05 0.275 0  0.075 0.275 0  0.1 0.275 0  0.125 0.275 0  0.15 0.275 0  0.175 0.275 0  0.2 0.275 0  0.225 0.275 0  0.25 0.275 0  0.275 0.275 0  0.3 0.275 0  0.325 0.275 0  0.35 0.275 0  0.375 0.275 0  0.4 0.275 0  0.425 0.275 0  0.45 0.275 0  0.475 0.275 0  0.5 0.275 0  0.525 0.275 0  0.55 0.275 0  0.575 0.275 0  0.6 0.275 0  0.625 0.275 0  0.65 0.275 0  0.675 0.275 0  0.7 0.275 0  0.725 0.275 0  0.75 0.275 0  0.775 0.275 0  0.8 0.275 0  0.825 0.275 0  0.85 0.275 0  0.875 0.275 0  0.9 0.275 0  0.925 0.275 0  0.95 0.275 0  0.975 0.275 0  1 0.275 0  0 0.3 0  0.025 0.3 0  0.05 0.3 0  0.075 0.3 0  0.1 0.3 0  0.125 0.3 0  0.15 0.3 0  0.175 0.3 0  0.2 0.3 0  0.225 0.3 0  0.25 0.3 0  0.275 0.3 0  0.3 0.3 0  0.325 0.3 0  0.35 0.3 0  0.375 0.3 0  0.4 0.3 0  0.425 0.3 0  0.45 0.3 0  0.475 0.3 0  0.5 0.3 0  0.525 0.3 0  0.55 0.3 0  0.575 0.3 0  0.6 0.3 0  0.625 0.3 0  0.65 0.3 0  0.675 0.3 0  0.7 0.3 0  0.725 0.3 0  0.75 0.3 0  0.775 0.3 0  0.8 0.3 0  0.825 0.3 0  0.85 0.3 0  0.875 0.3 0  0.9 0.3 0  0.925 0.3 0  0.95 0.3 0  0.975 0.3 0  1 0.3 0  0 0.325 0  0.025 0.325 0  0.05 0.325 0  0.075 0.325 0  0.1 0.325 0  0.125 0.325 0  0.15 0.325 0  0.175 0.325 0  0.2 0.325 0  0.225 0.325 0  0.25 0.325 0  0.275 0.325 0  0.3 0.325 0  0.325 0.325 0  0.35 0.325 0  0.375 0.325 0  0.4 0.325 0  0.425 0.325 0  0.45 0.325 0  0.475 0.325 0  0.5 0.325 0  0.525 0.325 0  0.55 0.325 0  0.575 0.325 0  0.6 0.325 0  0.625 0.325 0  0.65 0.325 0  0.675 0.325 0  0.7 0.325 0  0.725 0.325 0  0.75 0.325 0  0.775 0.325 0  0.8 0.325 0  0.825 0.325 0  0.85 0.325 0  0.875 0.325 0  0.9 0.325 0  0.925 0.325 0  0.95 0.325 0  0.975 0.325 0  1 0.325 0  0 0.35 0  0.025 0.35 0  0.05 0.35 0  0.075 0.35 0  0.1 0.35 0  0.125 0.35 0  0.15 0.35 0  0.175 0.35 0  0.2 0.35 0  0.225 0.35 0  0.25 0.35 0  0.275 0.35 0  0.3 0.35 0  0.325 0.35 0  0.35 0.35 0  0.375 0.35 0  0.4 0.35 0  0.425 0.35 0  0.45 0.35 0  0.475 0.35 0  0.5 0.35 0  0.525 0.35 0  0.55 0.35 0  0.575 0.35 0  0.6 0.35 0  0.625 0.35 0  0.65 0.35 0  0.675 0.35 0  0.7 0.35 0  0.725 0.35 0  0.75 0.35 0  0.775 0.35 0  0.8 0.35 0  0.825 0.35 0  0.85 0.35 0  0.875 0.35 0  0.9 0.35 0  0.925 0.35 0  0.95 0.35 0  0.975 0.35 0  1 0.35 0  0 0.375 0  0.025 0.375 0  0.05 0.375 0  0.075 0.375 0  0.1 0.375 0  0.125 0.375 0  0.15 0.375 0  0.175 0.375 0  0.2 0.375 0  0.225 0.375 0  0.25 0.375 0  0.275 0.375 0  0.3 0.375 0  0.325 0.375 0  0.35 0.375 0  0.375 0.375 0  0.4 0.375 0  0.425 0.375 0  0.45 0.375 0  0.475 0.375 0  0.5 0.375 0  0.525 0.375 0  0.55 0.375 0  0.575 0.375 0  0.6 0.375 0  0.625 0.375 0  0.65 0.375 0  0.675 0.375 0  0.7 0.375 0  0.725 0.375 0  0.75 0.375 0  0.775 0.375 0  0.8 0.375 0  0.825 0.375 0  0.85 0.375 0  0.875 0.375 0  0.9 0.375 0  0.925 0.375 0  0.95 0.375 0  0.975 0.375 0  1 0.375 0  0 0.4 0  0.025 0.4 0  0.05 0.4 0  0.075 0.4 0  0.1 0.4 0  0.125 0.4 0  0.15 0.4 0  0.175 0.4 0  0.2 0.4 0  0.225 0.4 0  0.25 0.4 0  0.275 0.4 0  0.3 0.4 0  0.325 0.4 0  0.35 0.4 0  0.375 0.4 0  0.4 0.4 0  0.425 0.4 0  0.45 0.4 0  0.475 0.4 0  0.5 0.4 0  0.525 0.4 0  0.55 0.4 0  0.575 0.4 0  0.6 0.4 0  0.625 0.4 0  0.65 0.4 0  0.675 0.4 0  0.7 0.4 0  0.725 0.4 0  0.75 0.4 0  0.775 0.4 0  0.8 0.4 0  0.825 0.4 0  0.85 0.4 0  0.875 0.4 0  0.9 0.4 0  0.925 0.4 0  0.95 0.4 0  0.975 0.4 0  1 0.4 0  0 0.425 0  0.025 0.425 0  0.05 0.425 0  0.075 0.425 0  0.1 0.425 0  0.125 0.425 0  0.15 0.425 0  0.175 0.425 0  0.2 0.425 0  0.225 0.425 0  0.25 0.425 0  0.275 0.425 0  0.3 0.425 0  0.325 0.425 0  0.35 0.425 0  0.375 0.425 0  0.4 0.425 0  0.425 0.425 0  0.45 0.425 0  0.475 0.425 0  0.5 0.425 0  0.525 0.425 0  0.55 0.425 0  0.575 0.425 0  0.6 0.425 0  0.625 0.425 0  0.65 0.425 0  0.675 0.425 0  0.7 0.425 0  0.725 0.425 0  0.75 0.425 0  0.775 0.425 0  0.8 0.425 0  0.825 0.425 0  0.85 0.425 0  0.875 0.425 0  0.9 0.425 0  0.925 0.425 0  0.95 0.425 0  0.975 0.425 0  1 0.425 0  0 0.45 0  0.02
[...]
<PointData  Scalars="ControlVisualisation"> 
<DataArray  type="Float64"  Name="ControlVisualisation"  format="ascii">6.9846466045359238e-07  4.6234306870297727e-07  4.6244143769721016e-07  4.6260836018303235e-07  4.6284188241242726e-07  4.6314020268977005e-07  4.6350084437121556e-07  4.6392082524722432e-07  4.6439667804202726e-07  4.6492446809856808e-07  4.6549981792476474e-07  4.6611792657990468e-07  4.6677358362267098e-07  4.6746117503914606e-07  4.6817467818318900e-07  4.6890764112795402e-07  4.6965314210508586e-07  4.7040372166035845e-07  4.7115128161133906e-07  4.7188694196824208e-07  4.7260084942664578e-07  4.7328193061030982e-07  4.7391758459009251e-07  4.7449331124711742e-07  4.7499227180058179e-07  4.7539478674307958e-07  4.7567779477627481e-07  4.7581434959966838e-07  4.7577332659613700e-07  4.7551971002971102e-07  4.7501608870343733e-07  4.7422660492765529e-07  4.7312420075188450e-07  4.7170298023998389e-07  4.6999567121317296e-07  4.6809285648014474e-07  4.6615658396368466e-07  4.6441354205782969e-07  4.6311817657746607e-07  4.6243868246104823e-07  1.4069215376032940e-06  4.6234314381347405e-07  2.2620690397806241e-07  2.2630478471022775e-07  2.2647924467759932e-07  2.2673096929012179e-07  2.2705818296962142e-07  2.2745847900316262e-07  2.2792895962092495e-07  2.2846619250690619e-07  2.2906622513179249e-07  2.2972459335483831e-07  2.3043632424546710e-07  2.3119593311222726e-07  2.3199741171706558e-07  2.3283420470509667e-07  2.3369916977690951e-07  2.3458451623192228e-07  2.3548171451537644e-07  2.3638136854583186e-07  2.3727304164716867e-07  2.3814502728091169e-07  2.3898405776495645e-07  2.3977494595499267e-07  2.4050015864898268e-07  2.4113932477874540e-07  2.4166868979744364e-07  2.4206054691541588e-07  2.4228272096036838e-07  2.4229830169942906e-07  2.4206602090366214e-07  2.4154204490382707e-07  2.4068416771089303e-07  2.3945964120950595e-07  2.3785874085672575e-07  2.3591284876006459e-07  2.3371506714904479e-07  2.3143679560322185e-07  2.2932983322476719e-07  2.2767818942143498e-07  2.2666057394657415e-07  4.6244063710597683e-07  4.6244232475097090e-07  2.2630544576704348e-07  2.2642903175906228e-07  2.2662914802717215e-07  2.2691845316685839e-07  2.2729541210850631e-07  2.2775740826446041e-07  2.2830122339360844e-07  2.2892303528890537e-07  2.2961843542506167e-07  2.3038243013577523e-07  2.3120943967234637e-07  2.3209329065186825e-07  2.3302719918974313e-07  2.3400374146770210e-07  2.3501480758015121e-07  2.3605153229684391e-07  2.3710419507025730e-07  2.3816207899779020e-07  2.3921327865036811e-07  2.4024444659398277e-07  2.4124047219387618e-07  2.4218409158425461e-07  2.4305543386755350e-07  2.4383151557645036e-07  2.4448569162346307e-07  2.4498709550543221e-07  2.4530011430269479e-07  2.4538415485568769e-07  2.4519384656237923e-07  2.4468077653275630e-07  2.4379639883183607e-07  2.4250162495718278e-07  2.4077910657008595e-07  2.3865299939121965e-07  2.3621591011338081e-07  2.3364191418751772e-07  2.3120124791428657e-07  2.2921383137470728e-07  2.2777712694470164e-07  4.6316307475683522e-07  4.6261262054252075e-07  2.2648296625086248e-07  2.2663255927409439e-07  2.2683548254721143e-07  2.2712729444225597e-07  2.2750748794671141e-07  2.2797351802087581e-07  2.2852213836512553e-07  2.2914950566685894e-07  2.2985119082664432e-07  2.3062218455058070e-07  2.3145690059056515e-07  2.3234917239005708e-07  2.3329224242642516e-07  2.3427874165836299e-07  2.3530065569796774e-07  2.3634927252548738e-07  2.3741510399839370e-07  2.3848777090178137e-07  2.3955584040298403e-07  2.4060660649666328e-07  2.4162580903072021e-07  2.4259730029967572e-07  2.4350266644675039e-07  2.4432083945413945e-07  2.4502770425303103e-07  2.4559581519615683e-07  2.4599406042207298e-07  2.4618755147811978e-07  2.4613682084243537e-07  2.4579967111877172e-07  2.4513081690640961e-07  2.4409708251737363e-07  2.4266776903727860e-07  2.4085373876470335e-07  2.3873131969610707e-07  2.3639939030143217e-07  2.3400308678105361e-07  2.3185601905522091e-07  2.2992192630263861e-07  4.6476997162731059e-07  4.6285519104166479e-07  2.2674341616756001e-07  2.2693171213203597e-07  2.2713719154823676e-07  2.2742990132412849e-07  2.2781112169268336e-07  2.2827839310037827e-07  2.2882845830283848e-07  2.2945747046461030e-07  2.3016100310397470e-07  2.3093406321982203e-07  2.3177109950015478e-07  2.3266600568330091e-07  2.3361211883012960e-07  2.3460221187086228e-07  2.3562847854710958e-07  2.3668250706659361e-07  2.3775523529679842e-07  2.3883687647940353e-07  2.3991680213224618e-07  2.4098337370373984e-07  2.4202371530547017e-07  2.4302344653210522e-07  2.4396638965075483e-07  2.4483439669054484e-07  2.4560724451610008e-07  2.4626277176524607e-07  2.4677659926884825e-07  2.4712251124810681e-07  2.4727212449765816e-07  2.4719975134108152e-07  2.4687566037474260e-07  2.4627200585489057e-07  2.4534479028804807e-07  2.4409080964547874e-07  2.4258287793103368e-07  2.4101610058504482e-07  2.3930148255967184e-07  2.3731061415448396e-07  2.3382511082551529e-07  4.6751211797788068e-07  4.6317265258720260e-07  2.2708981071281865e-07  2.2733046754053877e-07  2.2753931074973930e-07  2.2783306307753207e-07  2.2821546522601494e-07  2.2868415150594784e-07  2.2923585484110229e-07  2.2986672242755791e-07  2.3057233273901623e-07  2.3134771547910975e-07  2.3218736551646237e-07  2.3308525396692127e-07  2.3403483679071333e-07  2.3502906292788570e-07  2.3606038304553614e-07  2.3712075760072515e-07  2.3820165819684401e-07  2.3929404993010548e-07  2.4038833602005906e-07  2.4147424631948161e-07  2.4254066249263015e-07  2.4357541796798318e-07  2.4456515858730277e-07  2.4549531871458408e-07  2.4635018783706286e-07  2.4711320825629288e-07  2.4776925486680364e-07  2.4830634711094751e-07  2.4871886703001333e-07  2.4899072962184506e-07  2.4912082484296028e-07  2.4902821658351109e-07  2.4898300103279529e-07  2.4871303490525508e-07  2.4854109502925925e-07  2.5012083175288705e-07  2.5171624287593165e-07  2.4838561331229828e-07  2.3788299187950237e-07  4.6823885243460258e-07  4.6356827588489792e-07  2.2752611247913952e-07  2.2783356563444606e-07  2.2804670419326059e-07  2.2834173047382758e-07  2.2872555894487954e-07  2.2919595139403072e-07  2.2974962906850443e-07  2.3038273017572279e-07  2.3109083941647521e-07  2.3186901430256202e-07  2.3271180518360316e-07  2.3361327344933536e-07  2.3456700996267454e-07  2.3556615937859564e-07  2.3660345652283591e-07  2.3767127833767002e-07  2.3876170733980495e-07  2.3986658705032021e-07  2.4097754771953975e-07  2.4208596009659122e-07  2.4318287692848320e-07  2.4425878984745074e-07  2.4530362147054545e-07  2.4630584623105392e-07  2.4725513428104864e-07  2.4814144448177386e-07  2.4896672034345529e-07  2.4972209513482501e-07  2.5042900631337857e-07  2.5103571944420084e-07  2.5189096218737640e-07  2.5262817813178050e-07  2.5498923191996344e-07  2.5695284544696656e-07  2.6164512035256566e-07  2.8199958112284378e-07  3.0725842301020903e-07  3.1388166689365429e-07  2.9461884958470291e-07  4.9158544493414088e-07  4.6404619494001232e-07  2.2805745100400573e-07  2.2844708866757060e-07  2.2866548707121931e-07  2.2896199999622669e-07  2.2934747429817253e-07  2.2981983249173307e-07  2.3037578113835529e-07  2.3101144793906118e-07  2.3172242624335691e-07  2.3250380788087508e-07  2.3335020863953518e-07  2.3425579104926496e-07  2.3521428945849898e-07  2.3621904777339899e-07  2.3726308476958784e-07  2.3833919659602373e-07  2.3944010372010599e-07  2.4055860844932182e-07  2.4168777195333500e-07  2.4282091822411586e-07  2.4395172030911277e-07  2.4507322125883399e-07  2.4617928890951413e-07  2.4726138917373960e-07  2.4832103971905304e-07  2.4934238397741143e-07  2.5033885001051402e-07  2.5127899388414237e-07  2.5240562356968749e-07  2.5355119823746272e-07  2.5608258958061665e-07  2.5811761845034463e-07  2.7219654525011102e-07  3.0446200220364612e-07  3.7032059432734555e-07  6.9355587758504888e-07  1.8888670184629634e-02  1.2330025982118666e-01  2.1384626287590597e-01  1.2417152898889830e-01  4.6461148385978445e-07  2.2869018767861395e-07  2.2917859799891782e-07  2.2940326666535462e-07  2.2970145009090381e-07  2.3008874323344518e-07  2.3056326470852612e-07  2.3112170454902016e-07  2.3176018007690363e-07  2.3247429845313972e-07  2.3325919653293146e-07  2.3410956959458798e-07  2.3501969370400950e-07  2.3598344973612731e-07  2.3699436207079827e-07  2.3804568854931439e-07  2.3913057888086400e-07  2.4024236491064548e-07  2.4137485098774673e-07  2.4252267412786141e-07  2.4368116739151797e-07  2.4484707864356024e-07  2.4601698719513803e-07  2.4719292820864768e-07  2.4836569880818913e-07  2.4953851525443960e-07  2.5067792265332170e-07  2.5187545916437298e-07  2.5320765183839266e-07  2.5524319962061232e-07  2.5745893450786780e-07  2.7057675119951707e-07  3.0389534167533477e-07  4.0802507376649219e-07  1.4632933805564148e-06  1.5754675703818771e-01  4.3868336071298497e-01  7.3736958057445745e-01  9.9996055561122221e-01  9.9999895645272430e-01  9.9999847938757891e-01  4.6527025272333871e-07  2.2943207628035358e-07  2.3003733884470810e-07  2.3026933808628679e-07  2.3056932761911933e-07  2.3095853963443156e-07  2.3143532565137180e-07  2.3199635718323594e-07  2.3263774387076902e-07  2.3335511790962065e-07  2.3414368116354882e-07  2.3499823356994740e-07  2.3591318538346930e-07  2.3688256427838794e-07  2.3790003228737863e-07  2.3895899817933533e-07  2.4005281232610924e-07  2.4117522480541762e-07  2.4232081375781253e-07  2.4348572503517947e-07  2.4466832079502187e-07  2.4587026243778301e-07  2.4709372337361530e-07  2.4833744409155955e-07  2.4960149608271079e-07  2.5087578881282558e-07  2.5240812104389228e-07  2.5397609939315912e-07  2.5643591949665576e-07  2.6506767751865873e-07  2.9505597660715810e-07  3.8888496920338224e-07  1.2408057688389194e-06  1.6992326473054603e-01  5.0998760836378576e-01  9.0330686609794131e-01  9.9999889186181967e-01  9.9999952270479309e-01  9.9999969446989634e-01  9.9999978558245894e-01  9.9999957945885487e-01  4.6602977801592807e-07  2.3029246456700189e-07  2.3103448902631136e-07  2.3127493645408959e-07  2.3157679950287369e-07  2.3196792404066332e-07  2.3244693125983559e-07  2.3301047181224034e-07  2.3365465494246338e-07  2.3437516012096899e-07  2.3516729073957512e-07  2.3602599759282008e-07  2.3694587307506903e-07  2.3792111783872668e-07  2.3894550377196915e-07  2.4001237792842576e-07  2.4111487009783511e-07  2.4224650011252483e-07  2.4340308827890715e-07  2.4458250462708069e-07  2.4578811056244741e-07  2.4701650962706139e-07  2.4829040369915422e-07  2.4958087219583262e-07  2.5117012248794133e-07  2.5256950380778127e-07  2.5549795312740362e-07  2.6003772972521178e-07  2.8619354630905474e-07  3.5699101516893807e-07  7.9846743124775097e-07  1.2597824577953445e-01  4.6326041060785311e-01  8.7268261151197046e-01  9.9999877297196738e-01  9.9999946712626087e-01  9.9999966436388610e-01  9.9999976797952916e-01  9.9999982621613348e-01  9.9999986032917987e-01  9.9999973545566834e-01  4.6689866022818320e-07  2.3128254761433149e-07  2.3218348229430476e-07  2.3243356726884380e-07  2.3273728182960677e-07  2.3313016417907874e-07  2.3361113847492773e-07  2.3417682977843252e-07  2.3482336031241325e-07  2.3554649560937385e-07  2.3634171073534553e-07  2.3720420728229781e-07  2.3812887656943241e-07  2.3911012781281336e-07  2.4014181559576533e-07  2.4121672813631383e-07  2.4232798923137095e-07  2.4346742526328227e-07  2.4463360653153170e-07  2.4581702730067809e-07  2.4703562740554438e-07  2.4827238457410618e-07  2.4972920520993577e-07  2.5109886051757425e-07  2.5377861396234080e-07  2.5628368843954763e-07  2.7969167497539287e-07  3.3089830687278987e-07  5.7922209143223677e-07  7.0073149412159585e-02  3.8210047504497957e-01  7.8787443272144408e-01  9.9999815373078216e-01  9.9999934213121200e-01  9.9999959273985251e-01  9.9999970721630971e-01  9.9999976312338423e-01  9.9999979231285374e-01  9.9999981037547447e-01  9.9999982178097480e-01  9.9999968042967968e-01  4.6788701146111230e-07  2.3241568424126921e-07  2.3350042091063594e-07  2.3376143561510592e-07  2.3406687683450493e-07  2.3446116767770621e-07  2.3494355437960257e-07  2.3551062303007396e-07  2.3615853587589882e-07  2.3688322413074386e-07  2.3768046426919836e-07  2.3854583587531565e-07  2.3947468101737985e-07  2.4046175705671843e-07  2.4150175810915090e-07  2.4258646327722736e-07  2.4370999757515458e-07  2.4485135466107079e-07  2.4601797902107069e-07  2.4719497854486182e-07  2.4849283959016269e-07  2.4981497257463331e-07  2.5183151952545435e-07  2.5398897764421314e-07  2.7159969506199162e-07  3.1004211156545942e-07  4.7499501304973637e-07  1.8757626532737291e-02  2.9764614217027541e-01  6.9123506058500361e-01  9.9999599898755887e-01  9.9999918100054985e-01  9.9999952032751493e-01  9.9999965284945180e-01  9.9999971145973643e-01  9.9999972534654791e-01  9.9999970748249534e-01  9.9999966532583107e-01  9.9999962737900716e-01  9.9999955055570156e-01  9.9999910336129472e-01  4.6900666549852231e-07  2.3370778190724690e-07  2.3500459713377795e-07  2.3527800839024933e-07  2.3558496177854119e-07  2.3598007257428333e-07  2.3646289745178830e-07  2.3702996431728314e-07  2.3767752772336026e-07  2.3840177147983729e-07  2.3919891759430168e-07  2.4006519018118847e-07  2.4099716602936683e-07  2.4199058346626470e-07  2.4304148969634122e-07  2.4413688103923767e-07  2.4527353179990268e-07  2.4642105082862751e-07  2.4761873224717395e-07  2.4891490310921073e-07  2.5042278382312907e-07  2.5258288498263549e-07  2.6377907598719602e-07  2.9582180998453621e-07  4.1146680492192762e-07  2.6198880064490621e-06  2.2289537828241665e-01  5.9477505063623781e-01  9.8744121941758467e-01  9.9999895925198778e-01  9.9999944471951130e-01  9.9999960622172113e-01  9.9999967934954082e-01  9.9999969242859033e-01  9.9999965822937398e-01  9.9999956839338888e-01  9.9999937785220749e-01  9.9999861763527531e-01  8.5237611080505304e-01  4.1966419545829176e-01  2.4074819900522759e-01  4.7027138793628305e-07  2.3517774644394550e-07  2.3671914175490498e-07  2.3700674802030675e-07  2.3731499136792877e-07  2.3771009357959441e-07  2.3819184616301926e-07  2.3875662459781525e-07  2.3940079310562348e-07  2.4012101211147046e-07  2.4091463165901564e-07  2.4177924948817570e-07  2.4271245028530497e-07  2.4370895802329291e-07  2.4476723628587782e-07  2.4589008633375277e-07  2.4707991343488716e-07  2.4841618060652706e-07  2.4957615483554794e-07  2.5175042567162626e-07  2.5833114344807553e-07  2.8633211191932957e-07  3.6884657455284224e-07  1.0250761317063080e-06  1.5635464582038475e-01  5.0565703198470824e-01  9.0330240873232392e-01  9.9999865612823380e-01  9.9999935532123885e-01  9.9999956003595858e-01  9.9999965464607610e-01  9.9999967564452941e-01  9.9999964350938175e-01  9.9999954410715997e-01  9.9999931895533600e-01  9.9999830830972114e-01  8.2283232524462402e-01  4.2894311380545247e-01  9.0257201777758367e-02  4.6302082462511349e-07  5.5781325396459676e-07  4.7169701937889616e-07  2.3684795461808626e-07  2.3867179940364113e-07  2.3897609612124304e-07  2.3928568447501399e-07  2.3967979293898459e-07  2.4015814726042394e-07  2.4071684721600314e-07  2.4135282803514241e-07  2.4206403983863660e-07  2.4284846657993919e-07  2.4370381384315852e-07  2.4462869599841993e-07  2.4563475190386487e-07  2.4672918517872516e-07  2.4800797724978592e-07  2.4919699088859365e-07  2.5150430155622905e-07  2.5482081327169396e-07  2.7955579940415775e-07  3.3957620255423448e-07  6.7662919059271577e-07  9.8646308777082720e-02  4.1989702371483378e-01  8.1503982096869743e-01  9.9999805181764834e-01  9.9999925651740207e-01  9.9999951732698233e-01  9.9999962932732844e-01  9.9999966278912922e-01  9.9999963888204590e-01  9.9999954339219010e-01  9.9999933099832983e-01  9.9999849101860960e-01  8.6450517947766747e-01  4.7003854984139615e-01  1.3808663873081692e-01  9.3628082232508101e-07  3.7676652182802059e-07  2.8547728542454507e-07  4.8895466425954685e-07  4.7330138831869576e-07  2.3874466204181844e-07  2.4089586842026391e-07  2.4122082921920707e-07  2.4153259656122282e-07  2.4192467188301950e-07  2.4239652189037015e-07  2.4294424224498899e-07  2.4356446241061402e-07  2.4425589792247657e-07  2.4501620344687092e-07  2.4586079507345828e-07  2.4679784082269956e-07  2.4788417168471714e-07  2.4897183285044597e-07  2.5081852245513431e-07  2.5328522298998463e-07  2.7551441166453115e-07  3.1927653313773466e-07  5.2471247342727769e-07  4.6622802999922254e-02  3.3936816673815579e-01  7.2855115939774184e-01  9.9999641034386555e-01  9.9999912461987517e-01  9.9999946630783909e-01  9.9999959961060914e-01  9.9999964857935753e-01  9.9999963499793743e-01  9.9999954703066651e-01  9.9999935616268665e-01  9.9999870177790640e-01  9.1848946561447975e-01  5.2609994801982951e-01  1.7808208604831949e-01  1.5252566388178025e-06  4.1325876610154015e-07  3.1727406424230098e-07  2.8625615286851009e-07  2.6321346362586428e-07  4.8868498019756611e-07  4.7510375672575930e-07  2.4089806289324172e-07  2.4343097021419761e-07  2.4378355321602300e-07  2.4410077308820797e-07  2.4449164953147118e-07  2.4495338584321699e-07  2.4548024468744107e-07  2.4606528118062788e-07  2.4672781099053609e-07  2.4747412917730096e-07  2.4834876579242906e-07  2.4928730172144012e-07  2.5065117779769250e-07  2.5283188329315744e-07  2.6844029477969906e-07  3.0324984652633504e-07  4.5032769288813663e-07  5.2084268948138571e-03  2.6870617445200851e-01  6.4156028385984087e-01  9.9997636813291413e-01  9.9999894638416287e-01  9.9999940841856749e-01  9.9999956709589566e-01  9.9999963373251899e-01  9.9999963071804066e-01  9.9999955385822759e-01  9.9999938438071434e-01  9.9999885873448224e-01  9.7241211995848953e-01  5.8857387248133586e-01  2.2568360744729804e-01  4.1422271941612379e-06  4.4071878574040667e-07  3.1729660611021814e-07  2.8814898680999593e-07  2.7358455593583143e-07  2.6848784722043769e-07  2.5982379964081189e-07  4.8899162617155923e-07  4.7712238605234574e-07  2.4334101433806417e-07  2.4632395182147128e-07  2.4671904935452767e-07  2.4705091386700350e-07  2.4744132362645035e-07  2.4787991353738816e-07  2.4837750572684867e-07  2.4892816735086621e-07  2.4958800627306370e-07  2.5032117514947893e-07  2.5125764973087554e-07  2.5317326836021948e-07  2.6367705807073690e-07  2.9407543772539210e-07  3.9941647946543666e-07  1.8874062760718202e-06  2.0176374316003826e-01  5.6312368005443025e-01  9.4804851423131631e-01  9.9999873460012167e-01  9.9999934443189731e-01  9.9999953436851408e-01  9.9999962103900886e-01  9.9999962867698822e-01  9.9999956624128383e-01  9.9999941605420073e-01  9.9999898787587249e-01  9.9998805850706696e-01  6.5627931989724897e-01  2.8131395053740638e-01  1.5338246073702291e-02  4.8107177409253362e-07  3.1982865524133484e-07  2.8640373812058634e-07  2.6820137179381554e-07  2.6531527306267255e-07  2.6414742493158125e-07  2.6264218459537338e-07  2.5636027470038062e-07  4.8706159625732881e-07  4.7937009765325136e-07  2.4610712285043692e-07  2.4963003541418536e-07  2.5009437279092444e-07  2.5045360429891318e-07  2.5085607304012253e-07  2.5128767578198458e-07  2.5179855231511495e-07  2.5229881594130056e-07  2.5284263560869101e-07  2.5436454796703585e-07  2.6099280898665789e-07  2.8816354704191861e-07  3.6642735327960707e-07  9.7104213365683503e-07  1.4615989119627265e-01  4.8443769268323744e-01  8.7459862451286019e-01  9.9999840492367187e-01  9.9999928131818883e-01  9.9999950927886949e-01  9.9999961043193586e-01  9.9999962989294577e-01  9.9999958173609549e-01  9.9999944880445035e-01  9.9999910534110392e-01  9.9999625274820536e-01  7.2857173225185834e-01  3.4324992674536658e-01  5.2070951744874833e-02  5.5091076999924634e-07  3.2850656507322695e-07  2.8525374176845477e-07  2.6308031303748705e-07  2.6048175439796797e-07  2.5976726008942520e-07  2.5923386981019795e-07  2.5866135079711480e-07  2.5773529269440190e-07  2.5264975592805608e-07  4.8445719327603832e-07  4.8184110920928970e-07  2.4921473695029057e-07  2.5339960692786046e-07  2.5400307277768371e-07  2.5446092733143710e-07  2.5495555489310219e-07  2.5533986402087994e-07  2.5572732358864566e-07  2.567606094