<?xml version="1.0"?>
<VTKFile type="UnstructuredGrid"  version="0.1"  >
<UnstructuredGrid>
<Piece  NumberOfPoints="1681" NumberOfCells="3200">
<Points>
<DataArray  type="Float64"  NumberOfComponents="3"  format="ascii">0 0 0  0.025 0 0  0.05 0 0  0.075 0 0  0.1 0 0  0.125 0 0  0.15 0 0  0.175 0 0  0.2 0 0  0.225 0 0  0.25 0 0  0.275 0 0  0.3 0 0  0.325 0 0  0.35 0 0  0.375 0 0  0.4 0 0  0.425 0 0  0.45 0 0  0.475 0 0  0.5 0 0  0.525 0 0  0.55 0 0  0.575 0 0  0.6 0 0  0.625 0 0  0.65 0 0  0.675 0 0  0.7 0 0  0.725 0 0  0.75 0 0  0.775 0 0  0.8 0 0  0.825 0 0  0.85 0 0  0.875 0 0  0.9 0 0  0.925 0 0  0.95 0 0  0.975 0 0  1 0 0  0 0.025 0  0.025 0.025 0  0.05 0.025 0  0.075 0.025 0  0.1 0.025 0  0.125 0.025 0  0.15 0.025 0  0.175 0.025 0  0.2 0.025 0  0.225 0.025 0  0.25 0.025 0  0.275 0.025 0  0.3 0.025 0  0.325 0.025 0  0.35 0.025 0  0.375 0.025 0  0.4 0.025 0  0.425 0.025 0  0.45 0.025 0  0.475 0.025 0  0.5 0.025 0  0.525 0.025 0  0.55 0.025 0  0.575 0.025 0  0.6 0.025 0  0.625 0.025 0  0.65 0.025 0  0.675 0.025 0  0.7 0.025 0  0.725 0.025 0  0.75 0.025 0  0.775 0.025 0  0.8 0.025 0  0.825 0.025 0  0.85 0.025 0  0.875 0.025 0  0.9 0.025 0  0.925 0.025 0  0.95 0.025 0  0.975 0.025 0  1 0.025 0  0 0.05 0  0.025 0.05 0  0.05 0.05 0  0.075 0.05 0  0.1 0.05 0  0.125 0.05 0  0.15 0.05 0  0.175 0.05 0  0.2 0.05 0  0.225 0.05 0  0.25 0.05 0  0.275 0.05 0  0.3 0.05 0  0.325 0.05 0  0.35 0.05 0  0.375 0.05 0  0.4 0.05 0  0.425 0.05 0  0.45 0.05 0  0.475 0.05 0  0.5 0.05 0  0.525 0.05 0  0.55 0.05 0  0.575 0.05 0  0.6 0.05 0  0.625 0.05 0  0.65 0.05 0  0.675 0.05 0  0.7 0.05 0  0.725 0.05 0  0.75 0.05 0  0.775 0.05 0  0.8 0.05 0  0.825 0.05 0  0.85 0.05 0  0.875 0.05 0  0.9 0.05 0  0.925 0.05 0  0.95 0.05 0  0.975 0.05 0  1 0.05 0  0 0.075 0  0.025 0.075 0  0.05 0.075 0  0.075 0.075 0  0.1 0.075 0  0.125 0.075 0  0.15 0.075 0  0.175 0.075 0  0.2 0.075 0  0.225 0.075 0  0.25 0.075 0  0.275 0.075 0  0.3 0.075 0  0.325 0.075 0  0.35 0.075 0  0.375 0.075 0  0.4 0.075 0  0.425 0.075 0  0.45 0.075 0  0.475 0.075 0  0.5 0.075 0  0.525 0.075 0  0.55 0.075 0  0.575 0.075 0  0.6 0.075 0  0.625 0.075 0  0.65 0.075 0  0.675 0.075 0  0.7 0.075 0  0.725 0.075 0  0.75 0.075 0  0.775 0.075 0  0.8 0.075 0  0.825 0.075 0  0.85 0.075 0  0.875 0.075 0  0.9 0.075 0  0.925 0.075 0  0.95 0.075 0  0.975 0.075 0  1 0.075 0  0 0.1 0  0.025 0.1 0  0.05 0.1 0  0.075 0.1 0  0.1 0.1 0  0.125 0.1 0  0.15 0.1 0  0.175 0.1 0  0.2 0.1 0  0.225 0.1 0  0.25 0.1 0  0.275 0.1 0  0.3 0.1 0  0.325 0.1 0  0.35 0.1 0  0.375 0.1 0  0.4 0.1 0  0.425 0.1 0  0.45 0.1 0  0.475 0.1 0  0.5 0.1 0  0.525 0.1 0  0.55 0.1 0  0.575 0.1 0  0.6 0.1 0  0.625 0.1 0  0.65 0.1 0  0.675 0.1 0  0.7 0.1 0  0.725 0.1 0  0.75 0.1 0  0.775 0.1 0  0.8 0.1 0  0.825 0.1 0  0.85 0.1 0  0.875 0.1 0  0.9 0.1 0  0.925 0.1 0  0.95 0.1 0  0.975 0.1 0  1 0.1 0  0 0.125 0  0.025 0.125 0  0.05 0.125 0  0.075 0.125 0  0.1 0.125 0  0.125 0.125 0  0.15 0.125 0  0.175 0.125 0  0.2 0.125 0  0.225 0.125 0  0.25 0.125 0  0.275 0.125 0  0.3 0.125 0  0.325 0.125 0  0.35 0.125 0  0.375 0.125 0  0.4 0.125 0  0.425 0.125 0  0.45 0.125 0  0.475 0.125 0  0.5 0.125 0  0.525 0.125 0  0.55 0.125 0  0.575 0.125 0  0.6 0.125 0  0.625 0.125 0  0.65 0.125 0  0.675 0.125 0  0.7 0.125 0  0.725 0.125 0  0.75 0.125 0  0.775 0.125 0  0.8 0.125 0  0.825 0.125 0  0.85 0.125 0  0.875 0.125 0  0.9 0.125 0  0.925 0.125 0  0.95 0.125 0  0.975 0.125 0  1 0.125 0  0 0.15 0  0.025 0.15 0  0.05 0.15 0  0.075 0.15 0  0.1 0.15 0  0.125 0.15 0  0.15 0.15 0  0.175 0.15 0  0.2 0.15 0  0.225 0.15 0  0.25 0.15 0  0.275 0.15 0  0.3 0.15 0  0.325 0.15 0  0.35 0.15 0  0.375 0.15 0  0.4 0.15 0  0.425 0.15 0  0.45 0.15 0  0.475 0.15 0  0.5 0.15 0  0.525 0.15 0  0.55 0.15 0  0.575 0.15 0  0.6 0.15 0  0.625 0.15 0  0.65 0.15 0  0.675 0.15 0  0.7 0.15 0  0.725 0.15 0  0.75 0.15 0  0.775 0.15 0  0.8 0.15 0  0.825 0.15 0  0.85 0.15 0  0.875 0.15 0  0.9 0.15 0  0.925 0.15 0  0.95 0.15 0  0.975 0.15 0  1 0.15 0  0 0.175 0  0.025 0.175 0  0.05 0.175 0  0.075 0.175 0  0.1 0.175 0  0.125 0.175 0  0.15 0.175 0  0.175 0.175 0  0.2 0.175 0  0.225 0.175 0  0.25 0.175 0  0.275 0.175 0  0.3 0.175 0  0.325 0.175 0  0.35 0.175 0  0.375 0.175 0  0.4 0.175 0  0.425 0.175 0  0.45 0.175 0  0.475 0.175 0  0.5 0.175 0  0.525 0.175 0  0.55 0.175 0  0.575 0.175 0  0.6 0.175 0  0.625 0.175 0  0.65 0.175 0  0.675 0.175 0  0.7 0.175 0  0.725 0.175 0  0.75 0.175 0  0.775 0.175 0  0.8 0.175 0  0.825 0.175 0  0.85 0.175 0  0.875 0.175 0  0.9 0.175 0  0.925 0.175 0  0.95 0.175 0  0.975 0.175 0  1 0.175 0  0 0.2 0  0.025 0.2 0  0.05 0.2 0  0.075 0.2 0  0.1 0.2 0  0.125 0.2 0  0.15 0.2 0  0.175 0.2 0  0.2 0.2 0  0.225 0.2 0  0.25 0.2 0  0.275 0.2 0  0.3 0.2 0  0.325 0.2 0  0.35 0.2 0  0.375 0.2 0  0.4 0.2 0  0.425 0.2 0  0.45 0.2 0  0.475 0.2 0  0.5 0.2 0  0.525 0.2 0  0.55 0.2 0  0.575 0.2 0  0.6 0.2 0  0.625 0.2 0  0.65 0.2 0  0.675 0.2 0  0.7 0.2 0  0.725 0.2 0  0.75 0.2 0  0.775 0.2 0  0.8 0.2 0  0.825 0.2 0  0.85 0.2 0  0.875 0.2 0  0.9 0.2 0  0.925 0.2 0  0.95 0.2 0  0.975 0.2 0  1 0.2 0  0 0.225 0  0.025 0.225 0  0.05 0.225 0  0.075 0.225 0  0.1 0.225 0  0.125 0.225 0  0.15 0.225 0  0.175 0.225 0  0.2 0.225 0  0.225 0.225 0  0.25 0.225 0  0.275 0.225 0  0.3 0.225 0  0.325 0.225 0  0.35 0.225 0  0.375 0.225 0  0.4 0.225 0  0.425 0.225 0  0.45 0.225 0  0.475 0.225 0  0.5 0.225 0  0.525 0.225 0  0.55 0.225 0  0.575 0.225 0  0.6 0.225 0  0.625 0.225 0  0.65 0.225 0  0.675 0.225 0  0.7 0.225 0  0.725 0.225 0  0.75 0.225 0  0.775 0.225 0  0.8 0.225 0  0.825 0.225 0  0.85 0.225 0  0.875 0.225 0  0.9 0.225 0  0.925 0.225 0  0.95 0.225 0  0.975 0.225 0  1 0.225 0  0 0.25 0  0.025 0.25 0  0.05 0.25 0  0.075 0.25 0  0.1 0.25 0  0.125 0.25 0  0.15 0.25 0  0.175 0.25 0  0.2 0.25 0  0.225 0.25 0  0.25 0.25 0  0.275 0.25 0  0.3 0.25 0  0.325 0.25 0  0.35 0.25 0  0.375 0.25 0  0.4 0.25 0  0.425 0.25 0  0.45 0.25 0  0.475 0.25 0  0.5 0.25 0  0.525 0.25 0  0.55 0.25 0  0.575 0.25 0  0.6 0.25 0  0.625 0.25 0  0.65 0.25 0  0.675 0.25 0  0.7 0.25 0  0.725 0.25 0  0.75 0.25 0  0.775 0.25 0  0.8 0.25 0  0.825 0.25 0  0.85 0.25 0  0.875 0.25 0  0.9 0.25 0  0.925 0.25 0  0.95 0.25 0  0.975 0.25 0  1 0.25 0  0 0.275 0  0.025 0.275 0  0.05 0.275 0  0.075 0.275 0  0.1 0.275 0  0.125 0.275 0  0.15 0.275 0  0.175 0.275 0  0.2 0.275 0  0.225 0.275 0  0.25 0.275 0  0.275 0.275 0  0.3 0.275 0  0.325 0.275 0  0.35 0.275 0  0.375 0.275 0  0.4 0.275 0  0.425 0.275 0  0.45 0.275 0  0.475 0.275 0  0.5 0.275 0  0.525 0.275 0  0.55 0.275 0  0.575 0.275 0  0.6 0.275 0  0.625 0.275 0  0.65 0.275 0  0.675 0.275 0  0.7 0.275 0  0.725 0.275 0  0.75 0.275 0  0.775 0.275 0  0.8 0.275 0  0.825 0.275 0  0.85 0.275 0  0.875 0.275 0  0.9 0.275 0  0.925 0.275 0  0.95 0.275 0  0.975 0.275 0  1 0.275 0  0 0.3 0  0.025 0.3 0  0.05 0.3 0  0.075 0.3 0  0.1 0.3 0  0.125 0.3 0  0.15 0.3 0  0.175 0.3 0  0.2 0.3 0  0.225 0.3 0  0.25 0.3 0  0.275 0.3 0  0.3 0.3 0  0.325 0.3 0  0.35 0.3 0  0.375 0.3 0  0.4 0.3 0  0.425 0.3 0  0.45 0.3 0  0.475 0.3 0  0.5 0.3 0  0.525 0.3 0  0.55 0.3 0  0.575 0.3 0  0.6 0.3 0  0.625 0.3 0  0.65 0.3 0  0.675 0.3 0  0.7 0.3 0  0.725 0.3 0  0.75 0.3 0  0.775 0.3 0  0.8 0.3 0  0.825 0.3 0  0.85 0.3 0  0.875 0.3 0  0.9 0.3 0  0.925 0.3 0  0.95 0.3 0  0.975 0.3 0  1 0.3 0  0 0.325 0  0.025 0.325 0  0.05 0.325 0  0.075 0.325 0  0.1 0.325 0  0.125 0.325 0  0.15 0.325 0  0.175 0.325 0  0.2 0.325 0  0.225 0.325 0  0.25 0.325 0  0.275 0.325 0  0.3 0.325 0  0.325 0.325 0  0.35 0.325 0  0.375 0.325 0  0.4 0.325 0  0.425 0.325 0  0.45 0.325 0  0.475 0.325 0  0.5 0.325 0  0.525 0.325 0  0.55 0.325 0  0.575 0.325 0  0.6 0.325 0  0.625 0.325 0  0.65 0.325 0  0.675 0.325 0  0.7 0.325 0  0.725 0.325 0  0.75 0.325 0  0.775 0.325 0  0.8 0.325 0  0.825 0.325 0  0.85 0.325 0  0.875 0.325 0  0.9 0.325 0  0.925 0.325 0  0.95 0.325 0  0.975 0.325 0  1 0.325 0  0 0.35 0  0.025 0.35 0  0.05 0.35 0  0.075 0.35 0  0.1 0.35 0  0.125 0.35 0  0.15 0.35 0  0.175 0.35 0  0.2 0.35 0  0.225 0.35 0  0.25 0.35 0  0.275 0.35 0  0.3 0.35 0  0.325 0.35 0  0.35 0.35 0  0.375 0.35 0  0.4 0.35 0  0.425 0.35 0  0.45 0.35 0  0.475 0.35 0  0.5 0.35 0  0.525 0.35 0  0.55 0.35 0  0.575 0.35 0  0.6 0.35 0  0.625 0.35 0  0.65 0.35 0  0.675 0.35 0  0.7 0.35 0  0.725 0.35 0  0.75 0.35 0  0.775 0.35 0  0.8 0.35 0  0.825 0.35 0  0.85 0.35 0  0.875 0.35 0  0.9 0.35 0  0.925 0.35 0  0.95 0.35 0  0.975 0.35 0  1 0.35 0  0 0.375 0  0.025 0.375 0  0.05 0.375 0  0.075 0.375 0  0.1 0.375 0  0.125 0.375 0  0.15 0.375 0  0.175 0.375 0  0.2 0.375 0  0.225 0.375 0  0.25 0.375 0  0.275 0.375 0  0.3 0.375 0  0.325 0.375 0  0.35 0.375 0  0.375 0.375 0  0.4 0.375 0  0.425 0.375 0  0.45 0.375 0  0.475 0.375 0  0.5 0.375 0  0.525 0.375 0  0.55 0.375 0  0.575 0.375 0  0.6 0.375 0  0.625 0.375 0  0.65 0.375 0  0.675 0.375 0  0.7 0.375 0  0.725 0.375 0  0.75 0.375 0  0.775 0.375 0  0.8 0.375 0  0.825 0.375 0  0.85 0.375 0  0.875 0.375 0  0.9 0.375 0  0.925 0.375 0  0.95 0.375 0  0.975 0.375 0  1 0.375 0  0 0.4 0  0.025 0.4 0  0.05 0.4 0  0.075 0.4 0  0.1 0.4 0  0.125 0.4 0  0.15 0.4 0  0.175 0.4 0  0.2 0.4 0  0.225 0.4 0  0.25 0.4 0  0.275 0.4 0  0.3 0.4 0  0.325 0.4 0  0.35 0.4 0  0.375 0.4 0  0.4 0.4 0  0.425 0.4 0  0.45 0.4 0  0.475 0.4 0  0.5 0.4 0  0.525 0.4 0  0.55 0.4 0  0.575 0.4 0  0.6 0.4 0  0.625 0.4 0  0.65 0.4 0  0.675 0.4 0  0.7 0.4 0  0.725 0.4 0  0.75 0.4 0  0.775 0.4 0  0.8 0.4 0  0.825 0.4 0  0.85 0.4 0  0.875 0.4 0  0.9 0.4 0  0.925 0.4 0  0.95 0.4 0  0.975 0.4 0  1 0.4 0  0 0.425 0  0.025 0.425 0  0.05 0.425 0  0.075 0.425 0  0.1 0.425 0  0.125 0.425 0  0.15 0.425 0  0.175 0.425 0  0.2 0.425 0  0.225 0.425 0  0.25 0.425 0  0.275 0.425 0  0.3 0.425 0  0.325 0.425 0  0.35 0.425 0  0.375 0.425 0  0.4 0.425 0  0.425 0.425 0  0.45 0.425 0  0.475 0.425 0  0.5 0.425 0  0.525 0.425 0  0.55 0.425 0  0.575 0.425 0  0.6 0.425 0  0.625 0.425 0  0.65 0.425 0  0.675 0.425 0  0.7 0.425 0  0.725 0.425 0  0.75 0.425 0  0.775 0.425 0  0.8 0.425 0  0.825 0.425 0  0.85 0.425 0  0.875 0.425 0  0.9 0.425 0  0.925 0.425 0  0.95 0.425 0  0.975 0.425 0  1 0.425 0  0 0.45 0  0.02
[...]
<PointData  Scalars="ControlVisualisation"> 
<DataArray  type="Float64"  Name="ControlVisualisation"  format="ascii">-9.6388082854047368e-09  -9.7579983508671242e-09  -9.7578478648193815e-09  -9.7575608296801298e-09  -9.7571325478782381e-09  -9.7565954111873260e-09  -9.7560095245350004e-09  -9.7554370040155671e-09  -9.7549225553223692e-09  -9.7544881609221260e-09  -9.7541375461363841e-09  -9.7538635469090655e-09  -9.7536543048408113e-09  -9.7534972008014878e-09  -9.7533808766809153e-09  -9.7532960079146856e-09  -9.7532353909438847e-09  -9.7531936967395041e-09  -9.7531671599229042e-09  -9.7531533347227564e-09  -9.7531509406177542e-09  -9.7531597905475898e-09  -9.7531807838796075e-09  -9.7532159633269450e-09  -9.7532686345126595e-09  -9.7533435528758035e-09  -9.7534471779542669e-09  -9.7535879356392340e-09  -9.7537763068066780e-09  -9.7540243834724983e-09  -9.7543443949974910e-09  -9.7547455278070364e-09  -9.7552286261580487e-09  -9.7557794689894478e-09  -9.7563621291760146e-09  -9.7569213582704511e-09  -9.7573953728046006e-09  -9.7577401258686148e-09  -9.7579450413733486e-09  -9.7580340135126270e-09  -9.2985122901188936e-09  -9.7580027556186364e-09  -9.8786136237379441e-09  -9.8784613053666773e-09  -9.8781570452827747e-09  -9.8776870245583955e-09  -9.8770829119424098e-09  -9.8764106225785785e-09  -9.8757421749934358e-09  -9.8751325278566438e-09  -9.8746112953352862e-09  -9.8741862809279872e-09  -9.8738514030876851e-09  -9.8735939746798816e-09  -9.8733996173914775e-09  -9.8732549639809516e-09  -9.8731488258167168e-09  -9.8730724427216238e-09  -9.8730192600818134e-09  -9.8729845656912863e-09  -9.8729651992795313e-09  -9.8729593739697763e-09  -9.8729665822895232e-09  -9.8729875717327779e-09  -9.8730243927197382e-09  -9.8730805130004843e-09  -9.8731609961023119e-09  -9.8732727618924553e-09  -9.8734249011987401e-09  -9.8736288691721056e-09  -9.8738981817002041e-09  -9.8742470846665520e-09  -9.8746874587982366e-09  -9.8752235537221556e-09  -9.8758441984326799e-09  -9.8765152513316316e-09  -9.8771793718213916e-09  -9.8777636062820297e-09  -9.8782068269198012e-09  -9.8784865915365151e-09  -9.8786262434657557e-09  -9.7580345950997919e-09  -9.7579050752275222e-09  -9.8784957632738277e-09  -9.8782807949830679e-09  -9.8778850999771258e-09  -9.8772888753027650e-09  -9.8765518091354066e-09  -9.8757635956817625e-09  -9.8750065873384435e-09  -9.8743347344634020e-09  -9.8737716226220857e-09  -9.8733187102999281e-09  -9.8729650531526365e-09  -9.8726946922861144e-09  -9.8724911371959646e-09  -9.8723396910533201e-09  -9.8722284038137318e-09  -9.8721481430203897e-09  -9.8720921549300323e-09  -9.8720555296002729e-09  -9.8720348887842153e-09  -9.8720282772761754e-09  -9.8720351040207879e-09  -9.8720561072109804e-09  -9.8720934012207819e-09  -9.8721505847541025e-09  -9.8722328694318122e-09  -9.8723473098267606e-09  -9.8725032333994411e-09  -9.8727127182513129e-09  -9.8729906602109041e-09  -9.8733538707032649e-09  -9.8738184875267347e-09  -9.8743953740760156e-09  -9.8750807102551238e-09  -9.8758497736231512e-09  -9.8766412647397897e-09  -9.8773660381924051e-09  -9.8779333340098612e-09  -9.8783108396408680e-09  -9.8785180150145628e-09  -9.7579630723092624e-09  -9.7578000863406305e-09  -9.8783260637921049e-09  -9.8779799716677730e-09  -9.8773912722194025e-09  -9.8766144224168866e-09  -9.8757647920927536e-09  -9.8749455892213171e-09  -9.8742225527974887e-09  -9.8736206138210609e-09  -9.8731388267665171e-09  -9.8727634313814532e-09  -9.8724765189051041e-09  -9.8722602236982093e-09  -9.8720986124820370e-09  -9.8719785174224077e-09  -9.8718898881938053e-09  -9.8718256865891074e-09  -9.8717809535025701e-09  -9.8717518091394848e-09  -9.8717353150231226e-09  -9.8717297451796196e-09  -9.8717346067836209e-09  -9.8717505114135213e-09  -9.8717791886693724e-09  -9.8718236657827069e-09  -9.8718882881932241e-09  -9.8719785726253299e-09  -9.8721016809150970e-09  -9.8722675420186971e-09  -9.8724896315921216e-09  -9.8727849964045282e-09  -9.8731733333178416e-09  -9.8736750343212012e-09  -9.8743029075792262e-09  -9.8750624528004960e-09  -9.8758892612670375e-09  -9.8767594711826049e-09  -9.8775083047292939e-09  -9.8780678516419603e-09  -9.8783978740519946e-09  -9.7578543866503376e-09  -9.7579123692713030e-09  -9.8782445471421557e-09  -9.8770292289786340e-09  -9.8749232634560170e-09  -9.8724044950560181e-09  -9.8699591977365760e-09  -9.8679718893748787e-09  -9.8665080391657450e-09  -9.8654896476215868e-09  -9.8647978031357865e-09  -9.8643310705476151e-09  -9.8640161967649413e-09  -9.8638029366842970e-09  -9.8636570622536093e-09  -9.8635550566992194e-09  -9.8634816980787755e-09  -9.8634291653464609e-09  -9.8633930751547220e-09  -9.8633688290529195e-09  -9.8633524142754055e-09  -9.8633418761739841e-09  -9.8633368970965632e-09  -9.8633379207179599e-09  -9.8633463095680394e-09  -9.8633658105834628e-09  -9.8634028832921458e-09  -9.8634650465119106e-09  -9.8635624129035785e-09  -9.8637128951135870e-09  -9.8639468909259853e-09  -9.8643122429662890e-09  -9.8648803670256535e-09  -9.8657529186903042e-09  -9.8670571652639067e-09  -9.8689317137624047e-09  -9.8712994760247943e-09  -9.8741317222699771e-09  -9.8761322381450511e-09  -9.8772717783384529e-09  -9.8781344850608525e-09  -9.7577981554963155e-09  -9.7461765161106362e-09  -9.8713050096802722e-09  -9.8582274417831189e-09  -9.8397178569827652e-09  -9.8050049406141552e-09  -9.7584200009875034e-09  -9.7048037770508287e-09  -9.6536844905425896e-09  -9.6118879848634627e-09  -9.5818855014042641e-09  -9.5624417842813615e-09  -9.5508654783850831e-09  -9.5444601567548392e-09  -9.5411208396968853e-09  -9.5393944532645653e-09  -9.5384214504489542e-09  -9.5379138022790891e-09  -9.5377607518135469e-09  -9.5376722561355523e-09  -9.5373927876624894e-09  -9.5368822788766048e-09  -9.5361741250526218e-09  -9.5352609279523018e-09  -9.5341318379016078e-09  -9.5329231276995312e-09  -9.5319337241174973e-09  -9.5314002065151670e-09  -9.5316196160462154e-09  -9.5334498095482181e-09  -9.5385326762981406e-09  -9.5493279020205709e-09  -9.5689969504795838e-09  -9.6006914481154124e-09  -9.6456870907357661e-09  -9.7009563688790381e-09  -9.7565582178781663e-09  -9.8062134918691112e-09  -9.8339179582216145e-09  -9.8625948562110488e-09  -9.8759764898485973e-09  -9.7563152383226270e-09  -9.7316190201128917e-09  -9.7928793954229814e-09  6.5471278751449452e-02  2.6541672553198764e-01  3.8950596045921587e-01  4.8641198983831618e-01  5.4798910299811554e-01  5.8627698541843010e-01  6.0862045659902142e-01  6.2113996506881175e-01  6.2782145564716019e-01  6.3117095078646657e-01  6.3268319466505740e-01  6.3322590855604033e-01  6.3329232273814240e-01  6.3315892544346708e-01  6.3297938113082486e-01  6.3283900363354861e-01  6.3278512638174289e-01  6.3284420399399666e-01  6.3303121696112752e-01  6.3335390584231421e-01  6.3381385978272353e-01  6.3440489316840565e-01  6.3510801827545893e-01  6.3588154622501858e-01  6.3664279693892423e-01  6.3723558019742355e-01  6.3737458613824960e-01  6.3655059075307641e-01  6.3387317829762380e-01  6.2782254001432736e-01  6.1587461607325700e-01  5.9403545236688804e-01  5.5619938057289608e-01  4.9471973107626632e-01  3.9688092831213162e-01  2.6823631963299133e-01  5.0935873728222059e-02  -9.8066878733953944e-09  -9.7439707470009004e-09  9.8790808055589308e-01  8.8792086237667578e-01  1.0000000095285799e+00  1.0000000097219570e+00  1.0000000097565072e+00  1.0000000097717030e+00  1.0000000097774169e+00  1.0000000097800728e+00  1.0000000097809203e+00  1.0000000097808706e+00  1.0000000097803843e+00  1.0000000097797208e+00  1.0000000097790211e+00  1.0000000097783701e+00  1.0000000097778150e+00  1.0000000097773807e+00  1.0000000097770700e+00  1.0000000097768582e+00  1.0000000097767259e+00  1.0000000097766848e+00  1.0000000097767492e+00  1.0000000097769177e+00  1.0000000097771864e+00  1.0000000097775561e+00  1.0000000097780259e+00  1.0000000097785837e+00  1.0000000097792094e+00  1.0000000097798967e+00  1.0000000097806325e+00  1.0000000097813513e+00  1.0000000097819148e+00  1.0000000097820922e+00  1.0000000097815180e+00  1.0000000097796049e+00  1.0000000097753745e+00  1.0000000097669048e+00  1.0000000097498682e+00  1.0000000097056803e+00  1.0000000095487485e+00  1.0000000082667089e+00  3.5061348337456688e-01  1.0000000099218918e+00  1.0000000099481285e+00  1.0000000099422812e+00  1.0000000099353876e+00  1.0000000099303232e+00  1.0000000099264184e+00  1.0000000099236095e+00  1.0000000099217021e+00  1.0000000099204138e+00  1.0000000099195341e+00  1.0000000099189164e+00  1.0000000099184694e+00  1.0000000099181372e+00  1.0000000099178856e+00  1.0000000099176936e+00  1.0000000099175481e+00  1.0000000099174404e+00  1.0000000099173649e+00  1.0000000099173179e+00  1.0000000099172972e+00  1.0000000099173023e+00  1.0000000099173325e+00  1.0000000099173880e+00  1.0000000099174702e+00  1.0000000099175808e+00  1.0000000099177233e+00  1.0000000099179036e+00  1.0000000099181308e+00  1.0000000099184192e+00  1.0000000099187925e+00  1.0000000099192903e+00  1.0000000099199808e+00  1.0000000099209774e+00  1.0000000099224595e+00  1.0000000099246864e+00  1.0000000099279662e+00  1.0000000099325161e+00  1.0000000099382396e+00  1.0000000099446140e+00  1.0000000099506301e+00  1.0000000098844914e+00  1.0000000099612847e+00  1.0000000099769975e+00  1.0000000099719100e+00  1.0000000099658608e+00  1.0000000099601964e+00  1.0000000099555879e+00  1.0000000099522073e+00  1.0000000099498993e+00  1.0000000099483892e+00  1.0000000099474196e+00  1.0000000099467954e+00  1.0000000099463857e+00  1.0000000099461090e+00  1.0000000099459159e+00  1.0000000099457775e+00  1.0000000099456769e+00  1.0000000099456043e+00  1.0000000099455533e+00  1.0000000099455204e+00  1.0000000099455035e+00  1.0000000099455013e+00  1.0000000099455133e+00  1.0000000099455397e+00  1.0000000099455815e+00  1.0000000099456408e+00  1.0000000099457214e+00  1.0000000099458293e+00  1.0000000099459752e+00  1.0000000099461765e+00  1.0000000099464634e+00  1.0000000099468875e+00  1.0000000099475346e+00  1.0000000099485427e+00  1.0000000099501167e+00  1.0000000099525252e+00  1.0000000099560391e+00  1.0000000099607869e+00  1.0000000099665403e+00  1.0000000099725319e+00  1.0000000099773771e+00  1.0000000099551187e+00  1.0000000099663409e+00  1.0000000099814863e+00  1.0000000099771658e+00  1.0000000099716677e+00  1.0000000099662225e+00  1.0000000099616464e+00  1.0000000099582265e+00  1.0000000099558695e+00  1.0000000099543276e+00  1.0000000099533450e+00  1.0000000099527209e+00  1.0000000099523181e+00  1.0000000099520505e+00  1.0000000099518664e+00  1.0000000099517357e+00  1.0000000099516408e+00  1.0000000099515720e+00  1.0000000099515232e+00  1.0000000099514905e+00  1.0000000099514723e+00  1.0000000099514668e+00  1.0000000099514734e+00  1.0000000099514927e+00  1.0000000099515254e+00  1.0000000099515736e+00  1.0000000099516411e+00  1.0000000099517341e+00  1.0000000099518631e+00  1.0000000099520459e+00  1.0000000099523128e+00  1.0000000099527151e+00  1.0000000099533395e+00  1.0000000099543223e+00  1.0000000099558646e+00  1.0000000099582220e+00  1.0000000099616433e+00  1.0000000099662205e+00  1.0000000099716670e+00  1.0000000099771655e+00  1.0000000099814861e+00  1.0000000099663402e+00  1.0000000099551234e+00  1.0000000099773834e+00  1.0000000099725372e+00  1.0000000099665336e+00  1.0000000099607658e+00  1.0000000099560085e+00  1.0000000099524895e+00  1.0000000099500774e+00  1.0000000099485005e+00  1.0000000099474897e+00  1.0000000099468394e+00  1.0000000099464121e+00  1.0000000099461210e+00  1.0000000099459150e+00  1.0000000099457638e+00  1.0000000099456510e+00  1.0000000099455668e+00  1.0000000099455053e+00  1.0000000099454629e+00  1.0000000099454371e+00  1.0000000099454265e+00  1.0000000099454303e+00  1.0000000099454482e+00  1.0000000099454820e+00  1.0000000099455333e+00  1.0000000099456063e+00  1.0000000099457076e+00  1.0000000099458470e+00  1.0000000099460420e+00  1.0000000099463213e+00  1.0000000099467341e+00  1.0000000099473618e+00  1.0000000099483344e+00  1.0000000099498481e+00  1.0000000099521604e+00  1.0000000099555482e+00  1.0000000099601694e+00  1.0000000099658510e+00  1.0000000099719144e+00  1.0000000099770026e+00  1.0000000099612862e+00  1.0000000098844979e+00  1.0000000099507047e+00  1.0000000099446860e+00  1.0000000099382438e+00  1.0000000099324591e+00  1.0000000099278687e+00  1.0000000099245601e+00  1.0000000099223096e+00  1.0000000099208071e+00  1.0000000099197930e+00  1.0000000099190858e+00  1.0000000099185724e+00  1.0000000099181832e+00  1.0000000099178783e+00  1.0000000099176343e+00  1.0000000099174389e+00  1.0000000099172843e+00  1.0000000099171662e+00  1.0000000099170800e+00  1.0000000099170234e+00  1.0000000099169943e+00  1.0000000099169915e+00  1.0000000099170148e+00  1.0000000099170654e+00  1.0000000099171455e+00  1.0000000099172595e+00  1.0000000099174129e+00  1.0000000099176150e+00  1.0000000099178790e+00  1.0000000099182254e+00  1.0000000099186883e+00  1.0000000099193231e+00  1.0000000099202202e+00  1.0000000099215274e+00  1.0000000099234585e+00  1.0000000099262971e+00  1.0000000099302482e+00  1.0000000099353783e+00  1.0000000099422865e+00  1.0000000099481514e+00  1.0000000099219151e+00  3.5478872898643765e-01  1.0000000083721339e+00  1.0000000095524033e+00  1.0000000097064148e+00  1.0000000097498145e+00  1.0000000097665296e+00  1.0000000097746964e+00  1.0000000097787169e+00  1.0000000097804911e+00  1.0000000097809660e+00  1.0000000097806985e+00  1.0000000097800348e+00  1.0000000097791932e+00  1.0000000097782953e+00  1.0000000097774271e+00  1.0000000097766690e+00  1.0000000097760586e+00  1.0000000097755843e+00  1.0000000097752240e+00  1.0000000097749695e+00  1.0000000097748123e+00  1.0000000097747428e+00  1.0000000097747612e+00  1.0000000097748800e+00  1.0000000097751123e+00  1.0000000097754693e+00  1.0000000097759663e+00  1.0000000097766053e+00  1.0000000097773547e+00  1.0000000097781574e+00  1.0000000097789326e+00  1.0000000097795276e+00  1.0000000097796604e+00  1.0000000097788890e+00  1.0000000097763682e+00  1.0000000097707853e+00  1.0000000097559814e+00  1.0000000097207180e+00  1.0000000095339485e+00  8.9576560825861218e-01  9.8826267889073605e-01  -9.7420729123961243e-09  -9.7920273441376756e-09  6.3874388835101686e-02  2.7554523312702828e-01  4.0170637218268890e-01  4.9640328629302005e-01  5.5598963153551839e-01  5.9240698996857000e-01  6.1318154568408678e-01  6.2426956662129962e-01  6.2959679305628913e-01  6.3165106569904761e-01  6.3193532628577243e-01  6.3133178968673986e-01  6.3034507481287816e-01  6.2925644570896799e-01  6.2821837891646659e-01  6.2731084197307374e-01  6.2657347843619904e-01  6.2602354704223617e-01  6.2566602718303610e-01  6.2549881766858906e-01  6.2551467115114101e-01  6.2570009450016439e-01  6.2603078565411541e-01  6.2646220956430465e-01  6.2691233096990195e-01  6.2723071729591195e-01  6.2714447056183253e-01  6.2616512805012881e-01  6.2343291236335552e-01  6.1746914908490913e-01  6.0580252669273116e-01  5.8451448861639710e-01  5.4763071426410936e-01  4.8793482062348925e-01  3.9409553659355923e-01  2.7248986850447598e-01  7.8629615964236843e-02  -9.7838967375207507e-09  -9.7302723010026646e-09  -9.7558146892683642e-09  -9.8722515903677727e-09  -9.8511369298512549e-09  -9.8190147050095876e-09  -9.7888966390211197e-09  -9.7361367202603126e-09  -9.6794621069182477e-09  -9.6265630634963364e-09  -9.5866506148815264e-09  -9.5613147845616696e-09  -9.5479366385085846e-09  -9.5425678332051567e-09  -9.5418099283682643e-09  -9.5433765437914701e-09  -9.5460358138743349e-09  -9.5489944319110745e-09  -9.5516128032028474e-09  -9.5536614978918445e-09  -9.5552584088619712e-09  -9.5564754364921355e-09  -9.5572375522272744e-09  -9.5575056423268963e-09  -9.5573307710259662e-09  -9.5567613167310439e-09  -9.5558386082479282e-09  -9.5546720896772408e-09  -9.5534383011288901e-09  -9.5523928503523777e-09  -9.5521311748301287e-09  -9.5539425810159111e-09  -9.5599261060381427e-09  -9.5730201137054535e-09  -9.5968371112368855e-09  -9.6341172845392315e-09  -9.6835571069083762e-09  -9.7384485682330616e-09  -9.7881665376147428e-09  -9.8266209998216343e-09  -9.8487940788637519e-09  -9.8663866806123320e-09  -9.7463323749369239e-09  -9.7542408799161109e-09  -9.8735839894460185e-09  -9.8700101145282694e-09  -9.8676144210667853e-09  -9.8650952589243432e-09  -9.8629550822589323e-09  -9.8620107307749198e-09  -9.8616956048752650e-09  -9.8618017247483478e-09  -9.8621123562164223e-09  -9.8625032202855201e-09  -9.8629028921069756e-09  -9.8632745635107026e-09  -9.8636019023098459e-09  -9.8638799592532299e-09  -9.8641078977344494e-09  -9.8642869130516729e-09  -9.8644215766747626e-09  -9.8645178110043488e-09  -9.8645791825504356e-09  -9.8646064702349624e-09  -9.8645995530055325e-09  -9.8645580395542457e-09  -9.8644805624528484e-09  -9.8643646338605427e-09  -9.8642069405924572e-09  -9.8640031229623378e-09  -9.8637476834318756e-09  -9.8634355837662730e-09  -9.8630649874755206e-09  -9.8626399203677192e-09  -9.8621758697947959e-09  -9.8617136412212626e-09  -9.8613420811449205e-09  -9.8612267326930622e-09  -9.8616267583603312e-09  -9.8629006130040122e-09  -9.8653315838934394e-09  -9.8691047623905915e-09  -9.8736124641256286e-09  -9.7549664803778279e-09  -9.7540519874018880e-09  -9.8738622846155825e-09  -9.8721431460644276e-09  -9.8709569085949780e-09  -9.8702338229568892e-09  -9.8700387551722644e-09  -9.8702459004719833e-09  -9.8705989024405226e-09  -9.8710142252442692e-09  -9.8714170543603313e-09  -9.8717795401802501e-09  -9.8720923895310553e-09  -9.8723560632290789e-09  -9.8725745852206500e-09  -9.8727527285084265e-09  -9.8728947370031617e-09  -9.8730043367204531e-09  -9.8730851609576252e-09  -9.8731405311831724e-09  -9.8731728978157128e-09  -9.8731836671900737e-09  -9.8731733827353766e-09  -9.8731418080718094e-09  -9.8730878482997642e-09  -9.8730095134045510e-09  -9.8729039221366760e-09  -9.8727672726240924e-09  -9.8725948799677999e-09  -9.8723814798341835e-09  -9.8721217209999714e-09  -9.8718109017565229e-09  -9.8714469675633379e-09  -9.8710355752246512e-09  -9.8706000763745416e-09  -9.8701978269614328e-09  -9.8699421766687519e-09  -9.8700092370048740e-09  -9.8705879021898536e-09  -9.8716935217904260e-09  -9.8734584334683371e-09  -9.7539162877541955e-09  -9.7543481554967212e-09  -9.8741746931334537e-09  -9.8730838396446330e-09  -9.8725881637119352e-09  -9.8722610414340455e-09  -9.8721151294986529e-09  -9.8721505977219023e-09  -9.8723093964865934e-09  -9.8725307856748724e-09  -9.8727671144195782e-09  -9.8729941089735629e-09  -9.8731993867397629e-09  -9.8733784077255989e-09  -9.8735305047311890e-09  -9.8736567781247796e-09  -9.8737589695355424e-09  -9.8738389983795114e-09  -9.8738987998864203e-09  -9.8739401589729620e-09  -9.8739644913164431e-09  -9.8739726989067857e-09  -9.8739651447348540e-09  -9.8739416705751268e-09  -9.8739015923222416e-09  -9.8738437052635713e-09  -9.8737663175015217e-09  -9.8736673275791705e-09  -9.8735443927266885e-09  -9.8733952431056957e-09  -9.8732182276240078e-09  -9.8730132729508129e-09  -9.8727836632614901e-09  -9.8725391949645881e-09  -9.8723009896050552e-09  -9.8721072132763862e-09  -9.8720156967684972e-09  -9.8720936898135660e-09  -9.8723794844492833e-09  -9.8728431098603037e-09  -9.8739472319861869e-09  -9.7540440236965160e-09  -9.7548055547347127e-09  -9.8747497295725047e-09  -9.8739758538489965e-09  -9.8737432764900617e-09  -9.8735719347302869e-09  -9.8734782825151923e-09  -9.8734725548428772e-09  -9.8735357533078420e-09  -9.8736409858499566e-09  -9.8737661062870106e-09  -9.8738951271667927e-09  -9.8740179842184696e-09  -9.8741292935528545e-09  -9.8742265790573907e-09  -9.8743090813700618e-09  -9.8743769596096465e-09  -9.8744308372999640e-09  -9.8744715407327368e-09  -9.8744999208165445e-09  -9.8745166999731767e-09  -9.8745223657819012e-09  -9.8745171223383456e-09  -9.8745008756597295e-09  -9.8744732379977292e-09  -9.8744335506862866e-09  -9.8743809426019095e-09  -9.8743144343418711e-09  -9.8742331190738265e-09  -9.8741364529674286e-09  -9.8740247165916359e-09  -9.8738997359523721