<?xml version="1.0"?>
<VTKFile type="UnstructuredGrid"  version="0.1"  >
<UnstructuredGrid>
<Piece  NumberOfPoints="1681" NumberOfCells="3200">
<Points>
<DataArray  type="Float64"  NumberOfComponents="3"  format="ascii">0 0 0  0.025 0 0  0.05 0 0  0.075 0 0  0.1 0 0  0.125 0 0  0.15 0 0  0.175 0 0  0.2 0 0  0.225 0 0  0.25 0 0  0.275 0 0  0.3 0 0  0.325 0 0  0.35 0 0  0.375 0 0  0.4 0 0  0.425 0 0  0.45 0 0  0.475 0 0  0.5 0 0  0.525 0 0  0.55 0 0  0.575 0 0  0.6 0 0  0.625 0 0  0.65 0 0  0.675 0 0  0.7 0 0  0.725 0 0  0.75 0 0  0.775 0 0  0.8 0 0  0.825 0 0  0.85 0 0  0.875 0 0  0.9 0 0  0.925 0 0  0.95 0 0  0.975 0 0  1 0 0  0 0.025 0  0.025 0.025 0  0.05 0.025 0  0.075 0.025 0  0.1 0.025 0  0.125 0.025 0  0.15 0.025 0  0.175 0.025 0  0.2 0.025 0  0.225 0.025 0  0.25 0.025 0  0.275 0.025 0  0.3 0.025 0  0.325 0.025 0  0.35 0.025 0  0.375 0.025 0  0.4 0.025 0  0.425 0.025 0  0.45 0.025 0  0.475 0.025 0  0.5 0.025 0  0.525 0.025 0  0.55 0.025 0  0.575 0.025 0  0.6 0.025 0  0.625 0.025 0  0.65 0.025 0  0.675 0.025 0  0.7 0.025 0  0.725 0.025 0  0.75 0.025 0  0.775 0.025 0  0.8 0.025 0  0.825 0.025 0  0.85 0.025 0  0.875 0.025 0  0.9 0.025 0  0.925 0.025 0  0.95 0.025 0  0.975 0.025 0  1 0.025 0  0 0.05 0  0.025 0.05 0  0.05 0.05 0  0.075 0.05 0  0.1 0.05 0  0.125 0.05 0  0.15 0.05 0  0.175 0.05 0  0.2 0.05 0  0.225 0.05 0  0.25 0.05 0  0.275 0.05 0  0.3 0.05 0  0.325 0.05 0  0.35 0.05 0  0.375 0.05 0  0.4 0.05 0  0.425 0.05 0  0.45 0.05 0  0.475 0.05 0  0.5 0.05 0  0.525 0.05 0  0.55 0.05 0  0.575 0.05 0  0.6 0.05 0  0.625 0.05 0  0.65 0.05 0  0.675 0.05 0  0.7 0.05 0  0.725 0.05 0  0.75 0.05 0  0.775 0.05 0  0.8 0.05 0  0.825 0.05 0  0.85 0.05 0  0.875 0.05 0  0.9 0.05 0  0.925 0.05 0  0.95 0.05 0  0.975 0.05 0  1 0.05 0  0 0.075 0  0.025 0.075 0  0.05 0.075 0  0.075 0.075 0  0.1 0.075 0  0.125 0.075 0  0.15 0.075 0  0.175 0.075 0  0.2 0.075 0  0.225 0.075 0  0.25 0.075 0  0.275 0.075 0  0.3 0.075 0  0.325 0.075 0  0.35 0.075 0  0.375 0.075 0  0.4 0.075 0  0.425 0.075 0  0.45 0.075 0  0.475 0.075 0  0.5 0.075 0  0.525 0.075 0  0.55 0.075 0  0.575 0.075 0  0.6 0.075 0  0.625 0.075 0  0.65 0.075 0  0.675 0.075 0  0.7 0.075 0  0.725 0.075 0  0.75 0.075 0  0.775 0.075 0  0.8 0.075 0  0.825 0.075 0  0.85 0.075 0  0.875 0.075 0  0.9 0.075 0  0.925 0.075 0  0.95 0.075 0  0.975 0.075 0  1 0.075 0  0 0.1 0  0.025 0.1 0  0.05 0.1 0  0.075 0.1 0  0.1 0.1 0  0.125 0.1 0  0.15 0.1 0  0.175 0.1 0  0.2 0.1 0  0.225 0.1 0  0.25 0.1 0  0.275 0.1 0  0.3 0.1 0  0.325 0.1 0  0.35 0.1 0  0.375 0.1 0  0.4 0.1 0  0.425 0.1 0  0.45 0.1 0  0.475 0.1 0  0.5 0.1 0  0.525 0.1 0  0.55 0.1 0  0.575 0.1 0  0.6 0.1 0  0.625 0.1 0  0.65 0.1 0  0.675 0.1 0  0.7 0.1 0  0.725 0.1 0  0.75 0.1 0  0.775 0.1 0  0.8 0.1 0  0.825 0.1 0  0.85 0.1 0  0.875 0.1 0  0.9 0.1 0  0.925 0.1 0  0.95 0.1 0  0.975 0.1 0  1 0.1 0  0 0.125 0  0.025 0.125 0  0.05 0.125 0  0.075 0.125 0  0.1 0.125 0  0.125 0.125 0  0.15 0.125 0  0.175 0.125 0  0.2 0.125 0  0.225 0.125 0  0.25 0.125 0  0.275 0.125 0  0.3 0.125 0  0.325 0.125 0  0.35 0.125 0  0.375 0.125 0  0.4 0.125 0  0.425 0.125 0  0.45 0.125 0  0.475 0.125 0  0.5 0.125 0  0.525 0.125 0  0.55 0.125 0  0.575 0.125 0  0.6 0.125 0  0.625 0.125 0  0.65 0.125 0  0.675 0.125 0  0.7 0.125 0  0.725 0.125 0  0.75 0.125 0  0.775 0.125 0  0.8 0.125 0  0.825 0.125 0  0.85 0.125 0  0.875 0.125 0  0.9 0.125 0  0.925 0.125 0  0.95 0.125 0  0.975 0.125 0  1 0.125 0  0 0.15 0  0.025 0.15 0  0.05 0.15 0  0.075 0.15 0  0.1 0.15 0  0.125 0.15 0  0.15 0.15 0  0.175 0.15 0  0.2 0.15 0  0.225 0.15 0  0.25 0.15 0  0.275 0.15 0  0.3 0.15 0  0.325 0.15 0  0.35 0.15 0  0.375 0.15 0  0.4 0.15 0  0.425 0.15 0  0.45 0.15 0  0.475 0.15 0  0.5 0.15 0  0.525 0.15 0  0.55 0.15 0  0.575 0.15 0  0.6 0.15 0  0.625 0.15 0  0.65 0.15 0  0.675 0.15 0  0.7 0.15 0  0.725 0.15 0  0.75 0.15 0  0.775 0.15 0  0.8 0.15 0  0.825 0.15 0  0.85 0.15 0  0.875 0.15 0  0.9 0.15 0  0.925 0.15 0  0.95 0.15 0  0.975 0.15 0  1 0.15 0  0 0.175 0  0.025 0.175 0  0.05 0.175 0  0.075 0.175 0  0.1 0.175 0  0.125 0.175 0  0.15 0.175 0  0.175 0.175 0  0.2 0.175 0  0.225 0.175 0  0.25 0.175 0  0.275 0.175 0  0.3 0.175 0  0.325 0.175 0  0.35 0.175 0  0.375 0.175 0  0.4 0.175 0  0.425 0.175 0  0.45 0.175 0  0.475 0.175 0  0.5 0.175 0  0.525 0.175 0  0.55 0.175 0  0.575 0.175 0  0.6 0.175 0  0.625 0.175 0  0.65 0.175 0  0.675 0.175 0  0.7 0.175 0  0.725 0.175 0  0.75 0.175 0  0.775 0.175 0  0.8 0.175 0  0.825 0.175 0  0.85 0.175 0  0.875 0.175 0  0.9 0.175 0  0.925 0.175 0  0.95 0.175 0  0.975 0.175 0  1 0.175 0  0 0.2 0  0.025 0.2 0  0.05 0.2 0  0.075 0.2 0  0.1 0.2 0  0.125 0.2 0  0.15 0.2 0  0.175 0.2 0  0.2 0.2 0  0.225 0.2 0  0.25 0.2 0  0.275 0.2 0  0.3 0.2 0  0.325 0.2 0  0.35 0.2 0  0.375 0.2 0  0.4 0.2 0  0.425 0.2 0  0.45 0.2 0  0.475 0.2 0  0.5 0.2 0  0.525 0.2 0  0.55 0.2 0  0.575 0.2 0  0.6 0.2 0  0.625 0.2 0  0.65 0.2 0  0.675 0.2 0  0.7 0.2 0  0.725 0.2 0  0.75 0.2 0  0.775 0.2 0  0.8 0.2 0  0.825 0.2 0  0.85 0.2 0  0.875 0.2 0  0.9 0.2 0  0.925 0.2 0  0.95 0.2 0  0.975 0.2 0  1 0.2 0  0 0.225 0  0.025 0.225 0  0.05 0.225 0  0.075 0.225 0  0.1 0.225 0  0.125 0.225 0  0.15 0.225 0  0.175 0.225 0  0.2 0.225 0  0.225 0.225 0  0.25 0.225 0  0.275 0.225 0  0.3 0.225 0  0.325 0.225 0  0.35 0.225 0  0.375 0.225 0  0.4 0.225 0  0.425 0.225 0  0.45 0.225 0  0.475 0.225 0  0.5 0.225 0  0.525 0.225 0  0.55 0.225 0  0.575 0.225 0  0.6 0.225 0  0.625 0.225 0  0.65 0.225 0  0.675 0.225 0  0.7 0.225 0  0.725 0.225 0  0.75 0.225 0  0.775 0.225 0  0.8 0.225 0  0.825 0.225 0  0.85 0.225 0  0.875 0.225 0  0.9 0.225 0  0.925 0.225 0  0.95 0.225 0  0.975 0.225 0  1 0.225 0  0 0.25 0  0.025 0.25 0  0.05 0.25 0  0.075 0.25 0  0.1 0.25 0  0.125 0.25 0  0.15 0.25 0  0.175 0.25 0  0.2 0.25 0  0.225 0.25 0  0.25 0.25 0  0.275 0.25 0  0.3 0.25 0  0.325 0.25 0  0.35 0.25 0  0.375 0.25 0  0.4 0.25 0  0.425 0.25 0  0.45 0.25 0  0.475 0.25 0  0.5 0.25 0  0.525 0.25 0  0.55 0.25 0  0.575 0.25 0  0.6 0.25 0  0.625 0.25 0  0.65 0.25 0  0.675 0.25 0  0.7 0.25 0  0.725 0.25 0  0.75 0.25 0  0.775 0.25 0  0.8 0.25 0  0.825 0.25 0  0.85 0.25 0  0.875 0.25 0  0.9 0.25 0  0.925 0.25 0  0.95 0.25 0  0.975 0.25 0  1 0.25 0  0 0.275 0  0.025 0.275 0  0.05 0.275 0  0.075 0.275 0  0.1 0.275 0  0.125 0.275 0  0.15 0.275 0  0.175 0.275 0  0.2 0.275 0  0.225 0.275 0  0.25 0.275 0  0.275 0.275 0  0.3 0.275 0  0.325 0.275 0  0.35 0.275 0  0.375 0.275 0  0.4 0.275 0  0.425 0.275 0  0.45 0.275 0  0.475 0.275 0  0.5 0.275 0  0.525 0.275 0  0.55 0.275 0  0.575 0.275 0  0.6 0.275 0  0.625 0.275 0  0.65 0.275 0  0.675 0.275 0  0.7 0.275 0  0.725 0.275 0  0.75 0.275 0  0.775 0.275 0  0.8 0.275 0  0.825 0.275 0  0.85 0.275 0  0.875 0.275 0  0.9 0.275 0  0.925 0.275 0  0.95 0.275 0  0.975 0.275 0  1 0.275 0  0 0.3 0  0.025 0.3 0  0.05 0.3 0  0.075 0.3 0  0.1 0.3 0  0.125 0.3 0  0.15 0.3 0  0.175 0.3 0  0.2 0.3 0  0.225 0.3 0  0.25 0.3 0  0.275 0.3 0  0.3 0.3 0  0.325 0.3 0  0.35 0.3 0  0.375 0.3 0  0.4 0.3 0  0.425 0.3 0  0.45 0.3 0  0.475 0.3 0  0.5 0.3 0  0.525 0.3 0  0.55 0.3 0  0.575 0.3 0  0.6 0.3 0  0.625 0.3 0  0.65 0.3 0  0.675 0.3 0  0.7 0.3 0  0.725 0.3 0  0.75 0.3 0  0.775 0.3 0  0.8 0.3 0  0.825 0.3 0  0.85 0.3 0  0.875 0.3 0  0.9 0.3 0  0.925 0.3 0  0.95 0.3 0  0.975 0.3 0  1 0.3 0  0 0.325 0  0.025 0.325 0  0.05 0.325 0  0.075 0.325 0  0.1 0.325 0  0.125 0.325 0  0.15 0.325 0  0.175 0.325 0  0.2 0.325 0  0.225 0.325 0  0.25 0.325 0  0.275 0.325 0  0.3 0.325 0  0.325 0.325 0  0.35 0.325 0  0.375 0.325 0  0.4 0.325 0  0.425 0.325 0  0.45 0.325 0  0.475 0.325 0  0.5 0.325 0  0.525 0.325 0  0.55 0.325 0  0.575 0.325 0  0.6 0.325 0  0.625 0.325 0  0.65 0.325 0  0.675 0.325 0  0.7 0.325 0  0.725 0.325 0  0.75 0.325 0  0.775 0.325 0  0.8 0.325 0  0.825 0.325 0  0.85 0.325 0  0.875 0.325 0  0.9 0.325 0  0.925 0.325 0  0.95 0.325 0  0.975 0.325 0  1 0.325 0  0 0.35 0  0.025 0.35 0  0.05 0.35 0  0.075 0.35 0  0.1 0.35 0  0.125 0.35 0  0.15 0.35 0  0.175 0.35 0  0.2 0.35 0  0.225 0.35 0  0.25 0.35 0  0.275 0.35 0  0.3 0.35 0  0.325 0.35 0  0.35 0.35 0  0.375 0.35 0  0.4 0.35 0  0.425 0.35 0  0.45 0.35 0  0.475 0.35 0  0.5 0.35 0  0.525 0.35 0  0.55 0.35 0  0.575 0.35 0  0.6 0.35 0  0.625 0.35 0  0.65 0.35 0  0.675 0.35 0  0.7 0.35 0  0.725 0.35 0  0.75 0.35 0  0.775 0.35 0  0.8 0.35 0  0.825 0.35 0  0.85 0.35 0  0.875 0.35 0  0.9 0.35 0  0.925 0.35 0  0.95 0.35 0  0.975 0.35 0  1 0.35 0  0 0.375 0  0.025 0.375 0  0.05 0.375 0  0.075 0.375 0  0.1 0.375 0  0.125 0.375 0  0.15 0.375 0  0.175 0.375 0  0.2 0.375 0  0.225 0.375 0  0.25 0.375 0  0.275 0.375 0  0.3 0.375 0  0.325 0.375 0  0.35 0.375 0  0.375 0.375 0  0.4 0.375 0  0.425 0.375 0  0.45 0.375 0  0.475 0.375 0  0.5 0.375 0  0.525 0.375 0  0.55 0.375 0  0.575 0.375 0  0.6 0.375 0  0.625 0.375 0  0.65 0.375 0  0.675 0.375 0  0.7 0.375 0  0.725 0.375 0  0.75 0.375 0  0.775 0.375 0  0.8 0.375 0  0.825 0.375 0  0.85 0.375 0  0.875 0.375 0  0.9 0.375 0  0.925 0.375 0  0.95 0.375 0  0.975 0.375 0  1 0.375 0  0 0.4 0  0.025 0.4 0  0.05 0.4 0  0.075 0.4 0  0.1 0.4 0  0.125 0.4 0  0.15 0.4 0  0.175 0.4 0  0.2 0.4 0  0.225 0.4 0  0.25 0.4 0  0.275 0.4 0  0.3 0.4 0  0.325 0.4 0  0.35 0.4 0  0.375 0.4 0  0.4 0.4 0  0.425 0.4 0  0.45 0.4 0  0.475 0.4 0  0.5 0.4 0  0.525 0.4 0  0.55 0.4 0  0.575 0.4 0  0.6 0.4 0  0.625 0.4 0  0.65 0.4 0  0.675 0.4 0  0.7 0.4 0  0.725 0.4 0  0.75 0.4 0  0.775 0.4 0  0.8 0.4 0  0.825 0.4 0  0.85 0.4 0  0.875 0.4 0  0.9 0.4 0  0.925 0.4 0  0.95 0.4 0  0.975 0.4 0  1 0.4 0  0 0.425 0  0.025 0.425 0  0.05 0.425 0  0.075 0.425 0  0.1 0.425 0  0.125 0.425 0  0.15 0.425 0  0.175 0.425 0  0.2 0.425 0  0.225 0.425 0  0.25 0.425 0  0.275 0.425 0  0.3 0.425 0  0.325 0.425 0  0.35 0.425 0  0.375 0.425 0  0.4 0.425 0  0.425 0.425 0  0.45 0.425 0  0.475 0.425 0  0.5 0.425 0  0.525 0.425 0  0.55 0.425 0  0.575 0.425 0  0.6 0.425 0  0.625 0.425 0  0.65 0.425 0  0.675 0.425 0  0.7 0.425 0  0.725 0.425 0  0.75 0.425 0  0.775 0.425 0  0.8 0.425 0  0.825 0.425 0  0.85 0.425 0  0.875 0.425 0  0.9 0.425 0  0.925 0.425 0  0.95 0.425 0  0.975 0.425 0  1 0.425 0  0 0.45 0  0.02
[...]
<PointData  Scalars="ControlVisualisation"> 
<DataArray  type="Float64"  Name="ControlVisualisation"  format="ascii">1.9573332607943367e-01  1.4383332868639401e-01  1.4383439034290729e-01  1.4383291101581949e-01  1.4382893661919527e-01  1.4382277732844445e-01  1.4381470243493868e-01  1.4380502635880105e-01  1.4379410898508097e-01  1.4378234144824026e-01  1.4377012623653884e-01  1.4375785976012576e-01  1.4374591819458071e-01  1.4373464688116933e-01  1.4372435319080271e-01  1.4371530239891739e-01  1.4370771592791348e-01  1.4370177124390518e-01  1.4369760269184484e-01  1.4369530266209224e-01  1.4369492259497718e-01  1.4369647349224388e-01  1.4369992575889093e-01  1.4370520835676889e-01  1.4371220742780083e-01  1.4372076468626632e-01  1.4373067605389553e-01  1.4374169113744831e-01  1.4375351425902325e-01  1.4376580778472575e-01  1.4377819843411160e-01  1.4379028711097491e-01  1.4380166239163988e-01  1.4381191761017148e-01  1.4382067042238778e-01  1.4382758176881016e-01  1.4383236435552835e-01  1.4383474127622584e-01  1.4383455366521430e-01  1.4383239921897104e-01  2.9362314027711339e-01  1.4383334129531111e-01  8.0030124632257227e-02  8.0016323816297183e-02  7.9985998803058220e-02  7.9937588775380916e-02  7.9872477458246549e-02  7.9792860200796456e-02  7.9701278507833803e-02  7.9600578426210308e-02  7.9493811591095184e-02  7.9384114434759276e-02  7.9274595764522005e-02  7.9168239293810366e-02  7.9067825350054258e-02  7.8975872104245254e-02  7.8894594719945296e-02  7.8825879566482654e-02  7.8771270014406911e-02  7.8731960231782694e-02  7.8708793727012505e-02  7.8702263959163798e-02  7.8712515071542186e-02  7.8739341615630273e-02  7.8782186971949580e-02  7.8840141045747242e-02  7.8911938636448728e-02  7.8995960705885812e-02  7.9090241474936318e-02  7.9192484803365520e-02  7.9300093532606739e-02  7.9410215217064026e-02  7.9519806880126803e-02  7.9625719715433696e-02  7.9724802922907317e-02  7.9814021018931341e-02  7.9890574972955763e-02  7.9952011556802718e-02  7.9996341353567368e-02  8.0022719508512280e-02  8.0033196349824337e-02  1.4383240152821347e-01  1.4383448386452299e-01  8.0016222183673005e-02  7.9971463948977417e-02  7.9902376251798038e-02  7.9799977095806551e-02  7.9664267243862302e-02  7.9499153862033170e-02  7.9309730574652848e-02  7.9101783593117814e-02  7.8881502309577953e-02  7.8655243118927548e-02  7.8429306711263524e-02  7.8209744703723008e-02  7.8002203401884254e-02  7.7811805602716194e-02  7.7643067663165852e-02  7.7499846364356167e-02  7.7385308873200651e-02  7.7301918918525628e-02  7.7251432897743139e-02  7.7234900723827535e-02  7.7252667592044258e-02  7.7304374368396198e-02  7.7388955869535425e-02  7.7504637901296872e-02  7.7648935498346269e-02  7.7818656311494386e-02  7.8009914496947816e-02  7.8218161497582997e-02  7.8438240693508868e-02  7.8664472609220146e-02  7.8890776083926292e-02  7.9110827847697421e-02  7.9318259513521353e-02  7.9506883145089524e-02  7.9670942721092888e-02  7.9805418553574259e-02  7.9906755851746669e-02  7.9976023977829741e-02  8.0022719778534007e-02  1.4383459537597260e-01  1.4383316059606222e-01  7.9985002074221836e-02  7.9900322659763337e-02  7.9811605056140170e-02  7.9692336062792260e-02  7.9536560061574252e-02  7.9347405377691652e-02  7.9130398144190442e-02  7.8892043764595479e-02  7.8639353195923689e-02  7.8379557985340756e-02  7.8119855054199897e-02  7.7867187384736608e-02  7.7628063277776091e-02  7.7408416169799599e-02  7.7213502543454687e-02  7.7047832578140699e-02  7.6915126786635479e-02  7.6818291641229303e-02  7.6759407738271723e-02  7.6739725147216081e-02  7.6759661990136063e-02  7.6818803854332179e-02  7.6915903264557925e-02  7.7048880082498175e-02  7.7214825328843315e-02  7.7410012470167780e-02  7.7629921630918725e-02  7.7869283258295063e-02  7.8122148315938861e-02  7.8381991745503851e-02  7.8641854538263514e-02  7.8894526611577601e-02  7.9132769394720526e-02  7.9349571898629068e-02  7.9538458418330293e-02  7.9693998643354358e-02  7.9813557010039282e-02  7.9904900898302350e-02  7.9995844049279161e-02  1.4383492793103300e-01  1.4382928759416938e-01  7.9933274815901359e-02  7.9790640641197841e-02  7.9684012971406884e-02  7.9557857588926778e-02  7.9396425919011929e-02  7.9201001170553384e-02  7.8976931950938592e-02  7.8730847955185493e-02  7.8469957316130157e-02  7.8201707640738458e-02  7.7933516446450107e-02  7.7672544156773729e-02  7.7425507463676296e-02  7.7198534712048128e-02  7.6997060163324832e-02  7.6825751581056784e-02  7.6688464201918091e-02  7.6588214009098377e-02  7.6527163881119825e-02  7.6506617285794887e-02  7.6527015656864067e-02  7.6587937108422599e-02  7.6688095746712551e-02  7.6825342465932117e-02  7.6996669694964520e-02  7.7198224134642307e-02  7.7425332924699164e-02  7.7672549828652557e-02  7.7933728617539333e-02  7.8202130588626892e-02  7.8470571813521725e-02  7.8731612670962389e-02  7.8977789639283369e-02  7.9201888101848417e-02  7.9397305214797959e-02  7.9558829756783273e-02  7.9685831221426667e-02  7.9796658582694718e-02  7.9949114972062946e-02  1.4383275634245893e-01  1.4382291135331218e-01  7.9859800843297690e-02  7.9637038614232686e-02  7.9507580009778450e-02  7.9375056797055615e-02  7.9210062946003940e-02  7.9011323153925631e-02  7.8783871665690036e-02  7.8534409728214599e-02  7.8270275554473759e-02  7.7999034057708402e-02  7.7728190522703841e-02  7.7464956922344008e-02  7.7216065456412963e-02  7.6987628524167503e-02  7.6785040582974570e-02  7.6612914990511274e-02  7.6475047650381933e-02  7.6374399324124542e-02  7.6313089402597761e-02  7.6292395258699602e-02  7.6312752964366806e-02  7.6373756866963266e-02  7.6474157238282867e-02  7.6611856975044232e-02  7.6783910052758475e-02  7.6986526164038213e-02  7.7215087584981509e-02  7.7464185683969233e-02  7.7727685322804441e-02  7.7998825329531535e-02  7.8270361988611217e-02  7.8534759450140268e-02  7.8784428991337432e-02  7.9012022645756241e-02  7.9210870927328716e-02  7.9376128192064577e-02  7.9509915256932504e-02  7.9644981582565874e-02  7.9880974903045687e-02  1.4382805620151451e-01  1.4381391637193855e-01  7.9763262663868323e-02  7.9436202110922088e-02  7.9276975083332687e-02  7.9136316536575962e-02  7.8967162538357755e-02  7.8764851123310095e-02  7.8533978502505444e-02  7.8281338016591429e-02  7.8014427680535195e-02  7.7740943668457477e-02  7.7468468806113744e-02  7.7204230575879038e-02  7.6954916576256999e-02  7.6726543393193236e-02  7.6524372558291087e-02  7.6352864505881232e-02  7.6215660242192201e-02  7.6115580772374430e-02  7.6054635555833611e-02  7.6034033011377081e-02  7.6054188090232663e-02  7.6114723979158624e-02  7.6214467028697830e-02  7.6351436042274165e-02  7.6522829095069786e-02  7.6725013112951490e-02  7.6953523417370287e-02  7.7203082179262930e-02  7.7467645914437347e-02  7.7740492294963756e-02  7.8014355371453514e-02  7.8281615127776538e-02  7.8534546052686185e-02  7.8765639876975935e-02  7.8968148405976532e-02  7.9137722032301350e-02  7.9280067054091949e-02  7.9446293389383568e-02  7.9790075372369595e-02  1.4382078330132655e-01  1.4380212925474495e-01  7.9641919988217610e-02  7.9184439239047930e-02  7.8987311281974476e-02  7.8835829047550099e-02  7.8661085651741999e-02  7.8454064630780293e-02  7.8218748100327445e-02  7.7962031628458925e-02  7.7691614734931275e-02  7.7415360217506002e-02  7.7140945722215887e-02  7.6875610996962426e-02  7.6625975928320655e-02  7.6397921413835709e-02  7.6196524198186483e-02  7.6026033715044627e-02  7.5889877915023343e-02  7.5790685677516123e-02  7.5730315064387238e-02  7.5709878927222293e-02  7.5729761838708554e-02  7.5789624819417201e-02  7.5888396744489592e-02  7.6024253789091362e-02  7.6194590687068645e-02  7.6395990109488485e-02  7.6624198924269610e-02  7.6874122347963370e-02  7.7139848619513993e-02  7.7414717284266674e-02  7.7691443034119567e-02  7.7962303790263074e-02  7.8219401832816352e-02  7.8455027875672531e-02  7.8662351950384526e-02  7.8837712004703936e-02  7.8991367604840851e-02  7.9196899713257760e-02  7.9674716503282048e-02  1.4381078322333088e-01  1.4378734224605505e-01  7.9493722011696841e-02  7.8877490171288783e-02  7.8633035358087439e-02  7.8467163387413719e-02  7.8284758435584453e-02  7.8071329584909865e-02  7.7830000684295769e-02  7.7567763359350964e-02  7.7292564537034550e-02  7.7012477171042662e-02  7.6735299272139082e-02  7.6468286850096170e-02  7.6217975440470612e-02  7.5990076591479411e-02  7.5789436717375008e-02  7.5620042705678722e-02  7.5485057850904730e-02  7.5386872694092277e-02  7.5327157655475194e-02  7.5306907168113779e-02  7.5326468093549093e-02  7.5385548182357848e-02  7.5483203253486009e-02  7.5617804646101835e-02  7.5786991422741395e-02  7.5987614849910706e-02  7.6215685750340517e-02  7.6466338216165775e-02  7.6733825419154661e-02  7.7011564144876893e-02  7.7292243752432960e-02  7.7568012139695497e-02  7.7830754003254843e-02  7.8072513766404061e-02  7.8286392945662892e-02  7.8469678933652628e-02  7.8638300080389953e-02  7.8892564820458866e-02  7.9532871974664646e-02  1.4379785041726584e-01  1.4376932531195177e-01  7.9316394173142707e-02  7.8510597786310837e-02  7.8207789768977437e-02  7.8022851229882173e-02  7.7829923985669777e-02  7.7607738853949643e-02  7.7358237350830084e-02  7.7088486492715963e-02  7.6806733237645475e-02  7.6521313276753031e-02  7.6240175942170585e-02  7.5970597821245850e-02  7.5719009414793162e-02  7.5490912220330511e-02  7.5290868260735652e-02  7.5122541687750774e-02  7.4988771764584961e-02  7.4891658240451339e-02  7.4832643255896794e-02  7.4812577571277447e-02  7.4831762599752466e-02  7.4889963318050659e-02  7.4986390467816522e-02  7.5119653811170084e-02  7.5287691599830217e-02  7.5487685058702514e-02  7.5715970488142520e-02  7.5967965319234290e-02  7.6238127596921307e-02  7.6519969992437514e-02  7.6806149029841397e-02  7.7088647796436371e-02  7.7359077570262183e-02  7.7609184205471957e-02  7.7832030747245248e-02  7.8026199762516721e-02  7.8214578729716613e-02  7.8528564481922844e-02  7.9362254261178669e-02  1.4378174329006077e-01  1.4374783174860187e-01  7.9107527814595818e-02  7.8078685921696839e-02  7.7704507535079681e-02  7.7494349655928135e-02  7.7286979986254389e-02  7.7052827006635641e-02  7.6792222760342393e-02  7.6512270784362471e-02  7.6221580941577369e-02  7.5928816831938389e-02  7.5642115993650588e-02  7.5368777428142603e-02  7.5115096128885089e-02  7.4886307917184772e-02  7.4686618773776553e-02  7.4519291939004390e-02  7.4386766706483573e-02  7.4290785763808515e-02  7.4232512145305893e-02  7.4212621608046120e-02  7.4231360681573932e-02  7.4288564807235100e-02  7.4383634753675820e-02  7.4515473204465665e-02  7.4682387288412061e-02  7.4881967047319600e-02  7.5110954526000501e-02  7.5365122999717621e-02  7.5639190261179295e-02  7.5926792752906286e-02  7.6220547996791260e-02  7.6512231984957310e-02  7.6793112647707926e-02  7.7054574139862997e-02  7.7289691113013273e-02  7.7498793471472940e-02  7.7713224800310884e-02  7.8099845742629972e-02  7.9160393726259728e-02  1.4376218978332453e-01  1.4372260021388134e-01  7.8864695819090724e-02  7.7576596768767894e-02  7.7115574652284261e-02  7.6872086021113450e-02  7.6644921926350584e-02  7.6394426868320639e-02  7.6118762987885891e-02  7.5825007249052903e-02  7.5522209551539321e-02  7.5219443491761698e-02  7.4925078627034181e-02  7.4646432710947369e-02  7.4389618535379731e-02  7.4159526979557036e-02  7.3959908949764605e-02  7.3793520803492357e-02  7.3662300419569504e-02  7.3567545847827570e-02  7.3510074390848806e-02  7.3490345950688568e-02  7.3508539902836692e-02  7.3564579385053341e-02  7.3658101011279481e-02  7.3788371949227660e-02  7.3954160518011069e-02  7.4153571280500319e-02  7.4383861297548967e-02  7.4641260489149638e-02  7.4920825289707019e-02  7.5216359643706002e-02  7.5520440126792682e-02  7.5824584380139795e-02  7.6119627948575991e-02  7.6396514755234624e-02  7.6648406688840820e-02  7.6877967937580949e-02  7.7126730275482863e-02  7.7601255642037875e-02  7.8924737796273306e-02  1.4373888903296997e-01  1.4369334453052240e-01  7.8585588378489848e-02  7.6999394545324285e-02  7.6433061066543448e-02  7.6145549015170372e-02  7.5891306593431282e-02  7.5618528684768704e-02  7.5322479322599861e-02  7.5010113791164984e-02  7.4691018491252037e-02  7.4374781481493193e-02  7.4070055591916886e-02  7.3784162759470626e-02  7.3522960440008403e-02  7.3290878503061818e-02  7.3091072086252776e-02  7.2925643030913784e-02  7.2795888481015536e-02  7.2702542874616763e-02  7.2645987932733039e-02  7.2626412843629196e-02  7.2643913280143302e-02  7.2698522958546674e-02  7.2790175629799309e-02  7.2918599334267073e-02  7.3083149083076684e-02  7.3282589442369081e-02  7.3514845311590304e-02  7.3776747333152162e-02  7.4063807246056310e-02  7.4370066582461036e-02  7.4688068547548614e-02  7.5009011103753798e-02  7.5323182780149614e-02  7.5620986972547377e-02  7.5895779824013784e-02  7.6153311654699643e-02  7.6447285504692722e-02  7.7027831477744599e-02  7.8652768039577811e-02  1.4371150539696878e-01  1.4365971367277222e-01  7.8268146836927843e-02  7.6342723298522347e-02  7.5649013168651510e-02  7.5303412566487912e-02  7.5012211234532888e-02  7.4709103285936981e-02  7.4385524620880231e-02  7.4048174650204426e-02  7.3707299875199486e-02  7.3373136511292375e-02  7.3054677883878885e-02  7.2759213913041049e-02  7.2492229367451380e-02  7.2257518553973069e-02  7.2057435879377615e-02  7.1893218115079233e-02  7.1765326032177126e-02  7.1673765310553000e-02  7.1618358341303062e-02  7.1598948303843779e-02  7.1615524263837230e-02  7.1668261326122570e-02  7.1757473818664569e-02  7.1883482937739454e-02  7.2046404416532622e-02  7.2245867321788490e-02  7.2480683034130813e-02  7.2748493977485715e-02  7.3045444339970358e-02  7.3365928219104370e-02  7.3702483465149723e-02  7.4045917831941449e-02  7.4385824448287854e-02  7.4711934286301934e-02  7.5017939132034014e-02  7.5313616890506668e-02  7.5667063372759941e-02  7.6375138610994597e-02  7.8342116654328012e-02  1.4367964359055171e-01  1.4362118794046552e-01  7.7910638771190643e-02  7.5603169315241706e-02  7.4755781164110607e-02  7.4333668398706948e-02  7.3992152298784072e-02  7.3647841353986485e-02  7.3287189926917531e-02  7.2916466548117245e-02  7.2546740869781343e-02  7.2189067322527736e-02  7.1852835422366909e-02  7.1545223068282246e-02  7.1271148582761137e-02  7.1033501122145348e-02  7.0833528962783332e-02  7.0671297744070855e-02  7.0546152672392767e-02  7.0457138139498721e-02  7.0403344543286658e-02  7.0384164385931480e-02  7.0399447863599238e-02  7.0449553166241768e-02  7.0535289781887320e-02  7.0657755526944782e-02  7.0818071198943011e-02  7.1017022118608622e-02  7.1254624615715967e-02  7.1529648912041915e-02  7.1839147825894775e-02  7.2178061760733547e-02  7.2538994642599663e-02  7.2912291664088552e-02  7.3286660204939458e-02  7.3650979883231743e-02  7.3999447350612257e-02  7.4347003264052830e-02  7.4778527064425157e-02  7.5639604485802439e-02  7.7990633221499961e-02  1.4364278215043269e-01  1.4357684637739751e-01  7.7511554902836108e-02  7.4778510992994679e-02  7.3746302357331789e-02  7.3223697017369277e-02  7.2813881258368240e-02  7.2413716230171885e-02  7.2003314953101430e-02  7.1588312721588387e-02  7.1180822712012926e-02  7.0792925303578266e-02  7.0434435405265172e-02  7.0112247788823398e-02  6.9830384644952434e-02  6.9590403713761378e-02  6.9391984699401277e-02  6.9233572725765705e-02  6.9112996867872950e-02  6.9028012197733954e-02  6.8976736236265157e-02  6.8957965435896024e-02  6.8971365565818829e-02  6.9017533751024471e-02  6.9097931174193064e-02  6.9214685943104162e-02  6.9370266946199369e-02  6.9567033577453044e-02  6.9806675208104060e-02  7.0089570496039283e-02  7.0414121260529039e-02  7.0776149568000268e-02  7.1168490670467432e-02  7.1580979940350342e-02  7.2001204327946489e-02  7.2416942587277044e-02  7.2823065441852936e-02  7.3240959548746390e-02  7.3774673326378368e-02  7.4818732556170581e-02  7.7596300282181174e-02  1.4360012259119062e-01  1.4352488823172807e-01  7.7069102401548906e-02  7.3867619031815532e-02  7.2614158576555676e-02  7.1960109763028607e-02  7.1457874662381904e-02  7.0982183144051775e-02  7.0505350752042228e-02  7.0032196080542786e-02  6.9576170142758006e-02  6.9150597330779426e-02  6.8765647874395555e-02  6.8427569377433703e-02  6.8138912834403792e-02  6.7899221160112239e-02  6.7705903164883938e-02  6.7555127515524671e-02  6.7442639588867925e-02  6.7364450260198550e-02  6.7317374778025990e-02  6.7299415813074637e-02  6.7309991467818991e-02  6.7350010233525548e-02  6.7421793230578106e-02  6.7528841465399836e-02  6.7675444019542716e-02  6.7866124125931557e-02  6.8104927239371449e-02  6.8394572449094040e-02  6.8735521653870521e-02  6.9125073860946920e-02  6.9556664823152620e-02  7.0019674249844191e-02  7.0500317250734870e-02  7.0984930836970980e-02  7.1469160400984888e-02  7.1982111427143891e-02  7.2649012188807066e-02  7.3910961696741453e-02  7.7156802767720342e-02  1.4355027560699068e-01  1.4346169254528796e-01  7.6579859338407733e-02  7.2869536933741139e-02  7.1353007106816302e-02  7.0527980622032055e-02  6.9901124916862664e-02  6.9323652420227755e-02  6.8758838645378448e-02  6.8210619950773835e-02  6.7694127760057690e-02  6.7224032098994829e-02  6.6810495865340561e-02  6.6458350516687970e-02  6.6167664775170221e-02  6.5934877902854183e-02  6.5754082791307594e-02  6.5618244223749594e-02  6.5520251317462405e-02  6.5453767981794586e-02  6.5413877996239711e-02  6.5397534200263438e-02  6.5403823089901530e-02  6.5434052660035130e-02  6.5491665704680208e-02  6.5581974369928464e-02  6.5711705590601341e-02  6.5888342677128120e-02  6.6119249351428558e-02  6.6410576203744798e-02  6.6765988653018943e-02  6.7185323984525563e-02  6.7663415694178580e-02  6.8189555103135582e-02  6.8748462781102915e-02  6.9324618913339950e-02  6.9914324781253701e-02  7.0555286801172110e-02  7.1394852783754126e-02  7.2914724827708818e-02  7.6668398792309286e-02  1.4349064494095642e-01  1.4337999487051184e-01  7.6035881098218197e-02  7.1780997926987972e-02  6.9954686876524882e-02  6.8908725146698574e-02  6.8114457177127233e-02  6.7400606135028532e-02  6.6721066897696774e-02  6.6079057143875478e-02  6.5491539879435789e-02  6.4974094321474787e-02  6.4535758967284571e-02  6.4178377558748501e-02  6.3897806819489422e-02  6.3685722640597617e-02  6.3531439766699754e-02  6.3423502578823926e-02  6.3350976747160309e-02  6.3304447627815230e-02  6.3276755696700798e-02  6.3263499872196843e-02  6.3263331799913780e-02  6.3278054541226453e-02  6.3312529792236130e-02  6.3374388352310296e-02  6.3473528421877590e-02  6.3621374731069019e-02  6.3829860039837039e-02  6.4110089946430110e-02  6.4470677229076914e-02  6.4915819260314436e-02  6.5443427627489226e-02  6.6043919591651110e-02  6.6700964904609583e-02  6.7396915632541410e-02  6.8128226330775629e-02  6.8940929880144913e-02  7.0003040535473793e-02  7.1825920349385772e-02  7.6123483593063868e-02  1.4341626314861686e-01  1.4326571858333143e-01  7.5419145076851810e-02  7.0590776929065915e-02  6.8404195624893457e-02  6.7074805625607942e-02  6.6056907176862634e-02  6.5162782237949149e-02  6.4338650704488340e-02  6.3587148774220559e-02  6.2926058984387162e-02  6.2369797951837280e-02  6.1923519500345858e-02  6.1583144620233274e-02  6.1337616268176291e-02  6.1171583049150782e-02  6.1067790196706884e-02  6.1008987894515171e-02  6.0979384999231057e-02  6.0965731572861365e-02  6.0958103197154861e-02  6.0950435295438865e-02  6.0940835501142238e-02  6.0931688436057056e-02  6.0929557446508853e-02  6.0944879631977686e-02  6.0991441151573705e-02  6.1085604177025347e-02  6.1245228941296186e-02  6.1488201219110819e-02  6.1830454230990206e-02  6.2283475748680719e-02  6.2851492844372567e-02  6.3528993378640056e-02  6.4300825602695566e-02  6.5148288176270580e-02  6.6067308123514260e-02  6.7109350218841707e-02  6.8456713577558184e-02  7.0632410656782052e-02  7.5505711290793476e-02  1.4331758775589440e-01  1.4309161558589845e-01  7.4690714560692179e-02  6.9269772655900799e-02  6.6672187401622118e-02  6.4982552136081589e-02  6.3669397255905272e-02  6.2544938398531619e-02  6.1552665511869942e-02  6.069251645